Title
81383
    1CHL1    C3    1   5.346   6.085  10.215  0.4060  0.2624  0.2383
    1CHL1    H3    2   5.333   6.194  10.195  0.7404  0.1356 -0.7278
    1CHL1    O3    3   5.379   6.053  10.354  0.0876 -0.8058  0.6600
    1CHL1   H3'    4   5.327   6.106  10.414  0.0568 -0.7369  0.5738
    1CHL1    C4    5   5.204   6.024  10.188  1.0590 -0.1395  0.1466
    1CHL1   H4A    6   5.199   5.920  10.227 -3.6985 -1.1291 -2.3839
    1CHL1   H4B    7   5.138   6.079  10.258 -0.5642  0.0970 -1.5081
    1CHL1    C5    8   5.164   6.018  10.042 -0.0181  0.3744  0.1306
    1CHL1    C6    9   5.046   6.066  10.007  0.1606  0.1554  0.9151
    1CHL1    H6   10   4.969   6.092  10.080 -1.1524 -0.6927 -0.1170
    1CHL1    C7   11   4.998   6.054   9.865  0.0968  0.1826 -0.0535
    1CHL1   H7A   12   4.894   6.015   9.859 -0.4012  0.8550  2.7790
    1CHL1   H7B   13   4.988   6.147   9.805 -2.3446  0.5180  0.7508
    1CHL1    C8   14   5.084   5.960   9.776  0.2013  0.2662  0.5408
    1CHL1    H8   15   5.073   5.854   9.807  1.0908  0.4235  1.4263
    1CHL1   C14   16   5.057   5.973   9.624  0.2990  0.1131 -0.4210
    1CHL1   H14   17   5.066   6.081   9.602  1.6117  0.1135  0.0311
    1CHL1   C15   18   4.912   5.928   9.588 -0.2188  0.3619  0.1259
    1CHL1  H15A   19   4.911   5.826   9.631 -0.8839  1.0170  1.7638
    1CHL1  H15B   20   4.836   5.998   9.630 -1.5515 -1.3707  0.7384
    1CHL1   C16   21   4.919   5.915   9.444 -0.0956 -0.0863  0.3220
    1CHL1  H16A   22   4.880   5.817   9.409  0.6982  0.8270 -3.6469
    1CHL1  H16B   23   4.854   5.993   9.400  0.5368  1.5329  2.1263
    1CHL1   C17   24   5.071   5.921   9.403 -0.9113  0.3450  0.0396
    1CHL1   H17   25   5.097   6.027   9.383  3.3886 -0.7659 -1.1543
    1CHL1   C13   26   5.151   5.897   9.530 -0.1406  0.7946  0.2776
    1CHL1   C18   27   5.148   5.744   9.557 -0.3498 -0.1530 -0.4520
    1CHL1  H18A   28   5.053   5.689   9.538 -0.8260 -0.4231  2.2229
    1CHL1  H18B   29   5.229   5.700   9.496 -0.9622  0.3903 -1.6752
    1CHL1  H18C   30   5.178   5.715   9.660  0.5492 -0.7721 -0.8759
    1CHL1   C12   31   5.281   5.969   9.550 -0.2527  0.0021  0.6037
    1CHL1  H12A   32   5.359   5.933   9.480  0.3065  0.3185  1.0536
    1CHL1  H12B   33   5.270   6.075   9.520 -2.5594 -0.3088  0.1251
    1CHL1   C11   34   5.328   5.951   9.694 -0.4880 -0.2490  0.2866
    1CHL1  H11A   35   5.360   5.847   9.719 -0.9709  0.1076  2.6016
    1CHL1  H11B   36   5.423   6.007   9.705 -0.5861  0.0987 -0.5724
    1CHL1    C9   37   5.224   6.002   9.800 -0.1961  0.5518  0.8908
    1CHL1    H9   38   5.224   6.113   9.786 -1.7332  0.4305 -0.2373
    1CHL1   C10   39   5.271   5.967   9.944 -0.3920 -0.4892 -0.4936
    1CHL1   C19   40   5.278   5.812   9.964 -0.0149  0.0661 -0.2296
    1CHL1  H19A   41   5.181   5.758   9.953  0.1540  0.1989 -3.0903
    1CHL1  H19B   42   5.338   5.762   9.886 -0.0941  0.7358 -0.7238
    1CHL1  H19C   43   5.321   5.792  10.064 -0.1725 -0.1074 -0.1955
    1CHL1    C1   44   5.408   6.031   9.981  0.0828  0.5394 -0.8951
    1CHL1   H1A   45   5.480   5.974   9.918  1.0930  0.7799  0.0202
    1CHL1   H1B   46   5.407   6.138   9.951 -2.2900  0.7286 -0.3170
    1CHL1    C2   47   5.457   6.031  10.126  0.3708  0.2276 -0.6330
    1CHL1   H2A   48   5.547   6.094  10.144 -0.8771  1.6779  0.9123
    1CHL1   H2B   49   5.486   5.929  10.156 -0.5696  0.3456  0.7524
    1CHL1   C20   50   5.093   5.831   9.276 -0.2062  0.0469  0.4810
    1CHL1   H20   51   5.091   5.724   9.306  2.5600 -0.6559 -1.3715
    1CHL1   C21   52   5.245   5.838   9.239  0.1367 -0.4118  0.5382
    1CHL1  H21A   53   5.305   5.790   9.319 -1.1999 -2.1721  0.5686
    1CHL1  H21B   54   5.263   5.945   9.217 -0.3355 -0.7136 -1.4653
    1CHL1  H21C   55   5.259   5.780   9.146  0.8108 -1.3384  1.1956
    1CHL1   C22   56   4.991   5.845   9.163  0.5233  0.4065 -0.2883
    1CHL1  H22A   57   4.999   5.784   9.071  0.8323  0.5830 -0.3813
    1CHL1  H22B   58   4.895   5.813   9.208  0.8823  0.5571  0.6102
    1CHL1   C23   59   4.968   5.993   9.114 -0.4686  0.0158  0.2694
    1CHL1  H23A   60   4.941   6.053   9.203 -0.1844  0.8448 -0.1937
    1CHL1  H23B   61   5.060   6.035   9.066 -1.0831  0.4721 -0.5389
    1CHL1   C24   62   4.845   6.003   9.008 -0.0730  0.1976 -0.7208
    1CHL1  H24A   63   4.878   5.944   8.920 -1.2168 -0.6511 -0.5984
    1CHL1  H24B   64   4.746   5.969   9.045 -1.0563 -0.0873 -3.3924
    1CHL1   C25   65   4.823   6.152   8.973 -0.0231  0.7330  0.0680
    1CHL1   H25   66   4.923   6.199   8.960  0.6333 -0.8957 -1.2111
    1CHL1   C26   67   4.758   6.160   8.839  0.1135 -0.3491 -0.2918
    1CHL1  H26A   68   4.743   6.268   8.815  1.0380  0.0534  0.8187
    1CHL1  H26B   69   4.816   6.126   8.751 -1.5594  2.2244 -2.5441
    1CHL1  H26C   70   4.656   6.117   8.833 -0.6829  1.3928  0.1166
    1CHL1   C27   71   4.740   6.224   9.071  0.4398  0.3517 -0.3756
    1CHL1  H27A   72   4.724   6.326   9.030 -1.6029  0.1078 -0.3151
    1CHL1  H27B   73   4.639   6.177   9.078  0.7369 -0.1876  0.4750
    1CHL1  H27C   74   4.784   6.239   9.172 -0.2680  0.9945 -0.1458
    2CHL1    C3   75   3.870   3.465  10.165  0.2404  0.4172  0.2415
    2CHL1    H3   76   3.950   3.532  10.127  0.1433 -0.5455 -1.8110
    2CHL1    O3   77   3.835   3.491  10.302  0.0164  0.1620 -0.2898
    2CHL1   H3'   78   3.777   3.419  10.326  0.3276 -0.1303 -0.4119
    2CHL1    C4   79   3.752   3.507  10.070 -0.1212 -0.3151 -0.0378
    2CHL1   H4A   80   3.659   3.457  10.106 -0.7939  1.9192  1.5217
    2CHL1   H4B   81   3.734   3.616  10.083 -0.0932  0.3003 -4.0194
    2CHL1    C5   82   3.779   3.473   9.924 -0.3188 -0.3104  0.5968
    2CHL1    C6   83   3.786   3.566   9.825 -0.4105  0.0259  0.3729
    2CHL1    H6   84   3.773   3.670   9.859  0.4190  0.3735 -0.3247
    2CHL1    C7   85   3.819   3.541   9.681  0.0404  0.3775  0.7620
    2CHL1   H7A   86   3.742   3.594   9.621 -2.0428 -0.7268  2.3176
    2CHL1   H7B   87   3.925   3.566   9.661  0.0236  1.0495  1.4922
    2CHL1    C8   88   3.812   3.387   9.646 -0.1548 -0.1763 -0.2471
    2CHL1    H8   89   3.704   3.362   9.642 -0.2230  0.2418 -1.2546
    2CHL1   C14   90   3.885   3.358   9.518  0.0672 -0.3409  0.1055
    2CHL1   H14   91   3.990   3.387   9.539  1.1286 -1.8977 -2.5154
    2CHL1   C15   92   3.834   3.444   9.398  0.0089 -0.3209  0.0612
    2CHL1  H15A   93   3.724   3.436   9.381  0.0021  1.0397 -0.6404
    2CHL1  H15B   94   3.847   3.551   9.422 -0.3207 -0.3016  0.1615
    2CHL1   C16   95   3.899   3.367   9.277  0.4000  0.2015 -0.3995
    2CHL1  H16A   96   3.836   3.346   9.188 -0.9780 -0.1547  0.6277
    2CHL1  H16B   97   3.981   3.435   9.245  0.1585  0.6437 -0.0878
    2CHL1   C17   98   3.960   3.232   9.335  0.2053  0.7342 -0.6785
    2CHL1   H17   99   4.065   3.261   9.358 -0.3179  1.9130  0.3886
    2CHL1   C13  100   3.897   3.213   9.481 -0.7601  0.8348  0.8428
    2CHL1   C18  101   3.758   3.156   9.458  0.3213  0.3887 -0.2544
    2CHL1  H18A  102   3.698   3.140   9.551  1.5621  2.7652  1.0288
    2CHL1  H18B  103   3.698   3.228   9.399 -0.1974 -0.7542 -1.1841
    2CHL1  H18C  104   3.756   3.057   9.408  0.9729  0.3929 -0.2921
    2CHL1   C12  105   3.975   3.132   9.589  0.1960 -0.1863  0.3147
    2CHL1  H12A  106   3.965   3.027   9.556  2.8023  0.5611 -3.5216
    2CHL1  H12B  107   4.077   3.176   9.574 -1.2238  2.7271 -1.9995
    2CHL1   C11  108   3.914   3.158   9.723  0.9908  0.2591  0.3766
    2CHL1  H11A  109   3.818   3.103   9.733 -0.1917  2.0361 -0.7829
    2CHL1  H11B  110   3.982   3.126   9.805  2.2550  0.7552 -0.4434
    2CHL1    C9  111   3.882   3.310   9.757  0.1056 -0.4784  0.0957
    2CHL1    H9  112   3.982   3.359   9.758 -0.3935  0.5876  1.0323
    2CHL1   C10  113   3.821   3.328   9.896 -0.5371 -0.0323  0.1055
    2CHL1   C19  114   3.700   3.233   9.911  0.0567 -0.1846 -0.1826
    2CHL1  H19A  115   3.619   3.272   9.845  0.2133  0.5923  0.0665
    2CHL1  H19B  116   3.719   3.126   9.888 -0.4391 -0.8993  2.3679
    2CHL1  H19C  117   3.650   3.220  10.009 -0.8233 -0.3491 -0.6519
    2CHL1    C1  118   3.933   3.296  10.006 -0.0577 -0.1140 -0.6677
    2CHL1   H1A  119   3.950   3.186  10.017  0.3173 -0.0209 -0.2721
    2CHL1   H1B  120   4.030   3.345   9.981 -0.0937  0.6194  0.5410
    2CHL1    C2  121   3.899   3.316  10.155 -0.8953 -0.3868  0.1145
    2CHL1   H2A  122   3.985   3.278  10.214  0.5497  0.6014 -1.2510
    2CHL1   H2B  123   3.808   3.259  10.181 -2.0456  1.1129 -0.4533
    2CHL1   C20  124   3.963   3.103   9.242 -1.0905 -0.3910 -0.1528
    2CHL1   H20  125   3.978   3.010   9.301  0.7028  1.1651  2.0270
    2CHL1   C21  126   4.096   3.120   9.160  0.1567  0.5043 -0.2022
    2CHL1  H21A  127   4.098   3.217   9.106  0.9772  1.0110  0.7220
    2CHL1  H21B  128   4.099   3.039   9.083  0.2876 -1.0654  1.3977
    2CHL1  H21C  129   4.181   3.108   9.230 -1.0610  2.7681  1.7931
    2CHL1   C22  130   3.841   3.075   9.148 -0.8158 -1.1928  0.1335
    2CHL1  H22A  131   3.747   3.095   9.204 -1.3775  0.6627 -1.3584
    2CHL1  H22B  132   3.855   3.150   9.067  5.8280  0.7706  2.3954
    2CHL1   C23  133   3.841   2.932   9.095  0.0691  0.1640  0.1478
    2CHL1  H23A  134   3.929   2.923   9.027  2.1892 -0.1759  2.7659
    2CHL1  H23B  135   3.872   2.864   9.177 -1.0998  1.3165  1.6245
    2CHL1   C24  136   3.707   2.884   9.029  0.2055  0.8384  0.1782
    2CHL1  H24A  137   3.712   2.774   9.021 -1.8378  0.7152  0.0837
    2CHL1  H24B  138   3.627   2.897   9.106  0.0787 -2.1009  0.6459
    2CHL1   C25  139   3.665   2.957   8.905 -0.1078 -0.3695  0.8387
    2CHL1   H25  140   3.669   3.067   8.922  1.3474  0.0531 -1.6372
    2CHL1   C26  141   3.756   2.938   8.786 -0.2170  1.0430  0.7028
    2CHL1  H26A  142   3.719   2.980   8.690 -0.3930  0.3770  0.4746
    2CHL1  H26B  143   3.850   2.994   8.804 -0.3018  1.6206 -0.5248
    2CHL1  H26C  144   3.768   2.830   8.761 -1.0449  0.3707  2.9880
    2CHL1   C27  145   3.518   2.926   8.874  0.8015  0.3666 -0.2869
    2CHL1  H27A  146   3.482   2.973   8.780  0.0331 -0.7183 -0.5601
    2CHL1  H27B  147   3.507   2.819   8.846 -0.5677 -0.0679  1.6885
    2CHL1  H27C  148   3.450   2.949   8.959 -0.0596 -1.2451 -0.4926
    3CHL1    C3  149   4.311   2.874  10.227  0.3205  0.6480 -0.2239
    3CHL1    H3  150   4.314   2.764  10.238  1.7138  0.5196 -1.6389
    3CHL1    O3  151   4.300   2.934  10.357  0.5463  0.0412 -0.1856
    3CHL1   H3'  152   4.225   2.890  10.397  0.5632 -2.6700 -2.8528
    3CHL1    C4  153   4.440   2.922  10.151  0.1535  0.1867 -0.3741
    3CHL1   H4A  154   4.447   3.033  10.158 -1.6095  0.4210 -1.6319
    3CHL1   H4B  155   4.522   2.876  10.210  0.7986  2.4069  0.5828
    3CHL1    C5  156   4.442   2.877  10.008  0.0686  0.4184 -0.0765
    3CHL1    C6  157   4.551   2.829   9.953  0.1579  0.3126 -0.0704
    3CHL1    H6  158   4.646   2.817  10.007 -0.2664 -2.5212  0.2039
    3CHL1    C7  159   4.568   2.786   9.810  0.6381  0.0001 -0.1785
    3CHL1   H7A  160   4.668   2.816   9.774  1.0564 -0.3756  0.6373
    3CHL1   H7B  161   4.548   2.677   9.800 -1.4324  0.4722 -1.9781
    3CHL1    C8  162   4.455   2.842   9.723  0.1993  0.3011  0.0155
    3CHL1    H8  163   4.477   2.947   9.696  1.6481 -0.1300 -0.5693
    3CHL1   C14  164   4.444   2.763   9.586 -0.2796 -0.2451  0.3189
    3CHL1   H14  165   4.437   2.653   9.604  1.1561 -0.7443 -1.8357
    3CHL1   C15  166   4.567   2.773   9.500  0.4124 -0.2150  0.9238
    3CHL1  H15A  167   4.610   2.875   9.493  0.3757 -0.1011  2.0614
    3CHL1  H15B  168   4.650   2.705   9.528 -1.2759 -2.5038  0.7608
    3CHL1   C16  169   4.511   2.739   9.356  0.1684  0.5472 -0.1314
    3CHL1  H16A  170   4.547   2.819   9.287 -3.3236  2.2051 -0.2522
    3CHL1  H16B  171   4.539   2.640   9.315  0.6012  0.5655  0.1239
    3CHL1   C17  172   4.355   2.725   9.370 -0.0012 -0.3585 -0.0894
    3CHL1   H17  173   4.320   2.620   9.385 -2.0951  0.4558  1.1537
    3CHL1   C13  174   4.320   2.801   9.506  0.0408  0.0650 -0.0519
    3CHL1   C18  175   4.313   2.947   9.474 -0.3865 -0.7499 -0.5331
    3CHL1  H18A  176   4.383   2.975   9.392 -1.3902  1.6908 -0.6480
    3CHL1  H18B  177   4.212   2.973   9.437 -0.2978  0.2531 -0.1360
    3CHL1  H18C  178   4.322   3.011   9.565 -1.8143  0.0096 -0.8939
    3CHL1   C12  179   4.198   2.749   9.580  0.2525 -0.1885  0.1637
    3CHL1  H12A  180   4.105   2.764   9.521 -1.1127 -1.4199  1.8806
    3CHL1  H12B  181   4.208   2.639   9.590 -1.1791 -0.5244 -1.5613
    3CHL1   C11  182   4.198   2.821   9.712 -0.0180 -0.2492  0.2612
    3CHL1  H11A  183   4.170   2.928   9.701  2.9494  0.8320  1.9508
    3CHL1  H11B  184   4.117   2.768   9.768  0.5560 -0.8950  0.4946
    3CHL1    C9  185   4.322   2.816   9.803 -0.1879 -0.3110  0.3005
    3CHL1    H9  186   4.329   2.712   9.842 -1.1102  0.0958  1.6195
    3CHL1   C10  187   4.308   2.898   9.932  0.2198 -0.3503  0.5332
    3CHL1   C19  188   4.320   3.056   9.902 -0.4027  0.9067 -0.8204
    3CHL1  H19A  189   4.232   3.092   9.845 -1.4204  0.6646  0.5360
    3CHL1  H19B  190   4.312   3.120   9.993 -3.1555 -2.9321  1.9853
    3CHL1  H19C  191   4.416   3.072   9.849 -0.5563 -0.2269 -1.4622
    3CHL1    C1  192   4.177   2.862  10.014  0.2085  0.3134 -0.0372
    3CHL1   H1A  193   4.088   2.904   9.964 -2.1007 -1.6498  2.1226
    3CHL1   H1B  194   4.170   2.752  10.027  0.4943  0.3160  0.1700
    3CHL1    C2  195   4.180   2.920  10.156  0.0529 -0.4173 -0.0265
    3CHL1   H2A  196   4.087   2.888  10.206 -0.3817  0.9430  0.0778
    3CHL1   H2B  197   4.184   3.031  10.156 -1.0527 -0.3479  1.6553
    3CHL1   C20  198   4.281   2.771   9.237 -0.5443  0.6022 -0.3462
    3CHL1   H20  199   4.308   2.875   9.211 -0.4254  0.8431  0.7154
    3CHL1   C21  200   4.133   2.758   9.259  0.2805  0.0364 -0.3912
    3CHL1  H21A  201   4.093   2.775   9.157  3.0171 -0.3563 -1.6217
    3CHL1  H21B  202   4.091   2.846   9.312 -0.5362  0.4462 -1.6799
    3CHL1  H21C  203   4.096   2.665   9.308  0.1607  0.5957  0.5960
    3CHL1   C22  204   4.318   2.678   9.115 -0.1734 -0.7112  1.2176
    3CHL1  H22A  205   4.425   2.651   9.117 -0.6949 -3.0339  0.3924
    3CHL1  H22B  206   4.268   2.582   9.139 -1.1148 -1.2856 -2.3766
    3CHL1   C23  207   4.280   2.724   8.971  1.0509 -0.0572  0.8301
    3CHL1  H23A  208   4.298   2.648   8.892 -0.3289  0.8485 -0.4179
    3CHL1  H23B  209   4.171   2.741   8.961  1.2908  0.2586 -2.7495
    3CHL1   C24  210   4.365   2.847   8.929 -0.0834  0.0588  0.2252
    3CHL1  H24A  211   4.349   2.923   9.008 -1.1909  0.2024 -0.1297
    3CHL1  H24B  212   4.472   2.816   8.935 -0.2109 -0.4894 -0.2002
    3CHL1   C25  213   4.326   2.906   8.788  0.0430 -0.1156  1.2103
    3CHL1   H25  214   4.334   2.823   8.715 -0.4425  0.9286 -0.0720
    3CHL1   C26  215   4.182   2.970   8.773  0.2186  0.1171  0.1153
    3CHL1  H26A  216   4.108   2.901   8.818  0.6190  0.3100  1.0978
    3CHL1  H26B  217   4.196   3.059   8.838  1.7366 -0.4954  0.6945
    3CHL1  H26C  218   4.151   2.987   8.668  0.0363  2.2504  0.4752
    3CHL1   C27  219   4.443   3.004   8.734  0.3145  1.1466  0.7240
    3CHL1  H27A  220   4.402   3.096   8.686 -1.0690 -0.0040 -0.4094
    3CHL1  H27B  221   4.502   3.030   8.824  2.1765  0.4448 -0.2420
    3CHL1  H27C  222   4.501   2.953   8.654 -2.3307  0.8864 -1.1763
    4CHL1    C3  223   4.836   3.526  10.410 -0.1252  0.4464 -0.0318
    4CHL1    H3  224   4.790   3.430  10.379  0.3989 -0.1776  1.0891
    4CHL1    O3  225   4.865   3.512  10.548 -0.3019 -0.4281  0.8167
    4CHL1   H3'  226   4.949   3.558  10.558 -0.0598 -0.1555 -1.7467
    4CHL1    C4  227   4.959   3.550  10.321 -0.2278  0.0968  0.5133
    4CHL1   H4A  228   5.015   3.640  10.355 -1.0661  1.2260 -0.9640
    4CHL1   H4B  229   5.035   3.471  10.338  1.6974  1.8871  0.6227
    4CHL1    C5  230   4.924   3.577  10.176 -0.5028  0.5345  0.1861
    4CHL1    C6  231   4.988   3.527  10.066 -0.3616  0.0577 -0.5052
    4CHL1    H6  232   5.070   3.455  10.080  0.9157  1.0890 -2.3559
    4CHL1    C7  233   4.957   3.567   9.935  0.3941  0.1236 -0.1402
    4CHL1   H7A  234   5.043   3.577   9.865  0.8238  0.1660  0.3873
    4CHL1   H7B  235   4.888   3.488   9.897 -2.2486  1.2279  2.0002
    4CHL1    C8  236   4.876   3.700   9.918  0.6841  0.9447 -0.5834
    4CHL1    H8  237   4.939   3.791   9.933  3.1784 -0.6029 -1.0747
    4CHL1   C14  238   4.821   3.709   9.782  0.2239  0.4173  0.5157
    4CHL1   H14  239   4.756   3.619   9.777  1.8344 -0.8040  0.8995
    4CHL1   C15  240   4.923   3.686   9.674  1.0409  0.0851  0.4588
    4CHL1  H15A  241   5.005   3.759   9.690  0.1799  1.0754  0.4508
    4CHL1  H15B  242   4.964   3.583   9.667 -0.5799 -0.5901  0.3627
    4CHL1   C16  243   4.848   3.715   9.547  0.1353 -0.9237 -0.5768
    4CHL1  H16A  244   4.911   3.776   9.479 -0.2569  0.9676  0.6985
    4CHL1  H16B  245   4.814   3.617   9.506  1.0231 -2.8433  2.8369
    4CHL1   C17  246   4.720   3.795   9.591  0.2731  0.0606  0.2406
    4CHL1   H17  247   4.637   3.722   9.582 -0.5146  0.9301  0.2743
    4CHL1   C13  248   4.734   3.831   9.741  0.5596 -0.6939 -0.3812
    4CHL1   C18  249   4.818   3.961   9.757  0.0550 -0.0879 -0.1288
    4CHL1  H18A  250   4.905   3.966   9.688  1.2245 -0.9854  1.2374
    4CHL1  H18B  251   4.748   4.042   9.724 -0.2032  0.6339  2.0197
    4CHL1  H18C  252   4.842   3.992   9.860  0.6820  2.9952 -1.0887
    4CHL1   C12  253   4.608   3.826   9.841 -0.8691 -0.0682  0.3386
    4CHL1  H12A  254   4.560   3.926   9.838  0.1053  0.3928 -0.9221
    4CHL1  H12B  255   4.540   3.747   9.801 -0.3159 -0.9470  1.0831
    4CHL1   C11  256   4.660   3.814   9.987  0.1928 -0.5620  0.2152
    4CHL1  H11A  257   4.701   3.915  10.008  1.0432 -0.9731  0.5871
    4CHL1  H11B  258   4.574   3.801  10.056 -0.9077 -0.4783 -1.1234
    4CHL1    C9  259   4.759   3.698  10.015 -0.8839 -0.2514 -0.3206
    4CHL1    H9  260   4.713   3.598   9.997 -0.0237 -1.1156  2.0207
    4CHL1   C10  261   4.810   3.685  10.164  0.7142 -0.2192 -0.3126
    4CHL1   C19  262   4.865   3.832  10.206 -0.3071  0.5772  0.1918
    4CHL1  H19A  263   4.897   3.830  10.313 -4.0789 -1.6906  1.4646
    4CHL1  H19B  264   4.956   3.854  10.147 -1.6265  1.3041 -1.6550
    4CHL1  H19C  265   4.793   3.916  10.195  1.3012  1.9765 -0.1700
    4CHL1    C1  266   4.688   3.651  10.249  0.0996 -0.0038 -0.1263
    4CHL1   H1A  267   4.617   3.735  10.238  1.2397  1.1861  1.2039
    4CHL1   H1B  268   4.633   3.561  10.213 -1.2149 -0.1951  2.1375
    4CHL1    C2  269   4.726   3.637  10.400 -0.5374  0.3389  0.2017
    4CHL1   H2A  270   4.643   3.592  10.458 -0.5727 -3.3776 -2.3808
    4CHL1   H2B  271   4.767   3.730  10.445  1.9904 -0.2733 -0.6547
    4CHL1   C20  272   4.676   3.907   9.494 -0.0934  0.4885  0.2075
    4CHL1   H20  273   4.748   3.988   9.468 -3.3581  4.1277  1.5173
    4CHL1   C21  274   4.547   3.961   9.546 -0.7682  0.3664  0.7584
    4CHL1  H21A  275   4.480   3.881   9.582  1.0441 -1.0331  1.1320
    4CHL1  H21B  276   4.494   4.015   9.464  4.3770  1.6469 -2.1975
    4CHL1  H21C  277   4.566   4.032   9.629  1.3258  0.2200  0.4616
    4CHL1   C22  278   4.666   3.841   9.353  0.3947  0.9698 -0.4178
    4CHL1  H22A  279   4.765   3.794   9.334  0.8496  0.5709  2.5406
    4CHL1  H22B  280   4.601   3.751   9.361  0.3839  1.1407  1.9454
    4CHL1   C23  281   4.634   3.934   9.234  0.3206  0.3481 -0.0105
    4CHL1  H23A  282   4.542   3.988   9.266  0.6824 -0.1364  1.9664
    4CHL1  H23B  283   4.714   4.010   9.222  0.3472  0.6118  1.6955
    4CHL1   C24  284   4.603   3.851   9.108 -0.6258  0.3498  0.2980
    4CHL1  H24A  285   4.695   3.804   9.067 -0.8355 -0.3420  0.6201
    4CHL1  H24B  286   4.531   3.768   9.121 -1.2887  0.8903  0.1259
    4CHL1   C25  287   4.546   3.930   8.996  1.1988 -0.2186 -0.5963
    4CHL1   H25  288   4.457   3.984   9.035  2.9248  2.1634  0.2738
    4CHL1   C26  289   4.645   4.035   8.944 -0.7203  0.4759  0.3707
    4CHL1  H26A  290   4.680   4.105   9.023  0.1772 -0.5486  0.9000
    4CHL1  H26B  291   4.735   3.978   8.914 -0.5895  0.0087  1.5996
    4CHL1  H26C  292   4.632   4.087   8.846  3.2334 -2.3635 -1.9317
    4CHL1   C27  293   4.494   3.834   8.884  0.8230 -0.7786  0.0120
    4CHL1  H27A  294   4.434   3.749   8.922 -0.1443 -0.0281  0.1961
    4CHL1  H27B  295   4.426   3.898   8.823 -0.3616 -1.7543  0.2784
    4CHL1  H27C  296   4.583   3.795   8.830  2.2243  1.4875  0.5311
    5CHL1    C3  297   6.578   2.447  10.112 -0.7309 -0.0414  0.0871
    5CHL1    H3  298   6.490   2.505  10.077  0.5482  1.3876 -0.9473
    5CHL1    O3  299   6.567   2.417  10.251  0.5055  0.0343 -0.7740
    5CHL1   H3'  300   6.471   2.411  10.262  0.6707  0.7344  1.5934
    5CHL1    C4  301   6.578   2.323  10.024 -0.2788  0.3101  0.4045
    5CHL1   H4A  302   6.670   2.266  10.050  0.9336  1.4875 -1.0942
    5CHL1   H4B  303   6.493   2.257  10.052 -0.5759  0.0255 -1.0611
    5CHL1    C5  304   6.581   2.360   9.878  0.7445  0.1399  0.0930
    5CHL1    C6  305   6.483   2.329   9.796  0.0869 -0.4100  0.1780
    5CHL1    H6  306   6.402   2.267   9.837  0.1669 -0.2378  0.6036
    5CHL1    C7  307   6.496   2.342   9.646  0.6301 -0.1278 -0.2295
    5CHL1   H7A  308   6.465   2.256   9.583 -0.5978  0.5489 -0.5852
    5CHL1   H7B  309   6.422   2.418   9.614  1.6842  1.4292  0.9035
    5CHL1    C8  310   6.643   2.380   9.599 -0.9739  0.1670  0.0622
    5CHL1    H8  311   6.711   2.292   9.600  0.3914  1.2007  0.5740
    5CHL1   C14  312   6.642   2.435   9.459 -0.7364  0.1611  0.0527
    5CHL1   H14  313   6.580   2.527   9.464  0.3649  0.8748  0.9692
    5CHL1   C15  314   6.580   2.343   9.347  0.3609 -0.2189  0.3461
    5CHL1  H15A  315   6.626   2.241   9.353 -0.9768 -0.8336  0.4329
    5CHL1  H15B  316   6.470   2.340   9.356  0.4429 -0.2900  1.5413
    5CHL1   C16  317   6.624   2.403   9.213  0.1058 -0.2365  1.0794
    5CHL1  H16A  318   6.679   2.323   9.159 -0.1234  0.4365 -0.2066
    5CHL1  H16B  319   6.539   2.423   9.145  0.7160 -1.2119 -0.0066
    5CHL1   C17  320   6.706   2.524   9.257  0.6299  0.4903 -0.2233
    5CHL1   H17  321   6.645   2.615   9.276 -1.5049 -0.5718 -1.6535
    5CHL1   C13  322   6.772   2.489   9.396  0.0885  0.6650 -0.0823
    5CHL1   C18  323   6.873   2.374   9.384  0.2823 -0.1924 -0.1826
    5CHL1  H18A  324   6.883   2.323   9.483 -2.0766  0.1690  0.2977
    5CHL1  H18B  325   6.859   2.293   9.310 -0.3352 -0.5008  0.2619
    5CHL1  H18C  326   6.974   2.406   9.350 -0.3158 -1.0371 -2.9765
    5CHL1   C12  327   6.823   2.600   9.482  0.1626  0.5638  0.2038
    5CHL1  H12A  328   6.920   2.645   9.451 -0.0830  0.2113 -1.1151
    5CHL1  H12B  329   6.752   2.686   9.475  1.3261  1.4487 -1.4161
    5CHL1   C11  330   6.826   2.559   9.633 -0.5271 -0.0281  0.4240
    5CHL1  H11A  331   6.915   2.492   9.637 -1.2979 -0.9881  3.1355
    5CHL1  H11B  332   6.851   2.649   9.694  1.7246 -0.1751 -0.1822
    5CHL1    C9  333   6.697   2.491   9.693  0.0250 -0.4294 -0.5911
    5CHL1    H9  334   6.618   2.569   9.694  1.6528  1.3257  1.6627
    5CHL1   C10  335   6.707   2.437   9.837 -0.8819 -0.2335 -0.1833
    5CHL1   C19  336   6.832   2.343   9.854 -0.0595 -0.2196  0.8062
    5CHL1  H19A  337   6.812   2.249   9.800  0.0228 -1.7302  3.2680
    5CHL1  H19B  338   6.920   2.393   9.808 -0.6024 -1.4930 -1.8106
    5CHL1  H19C  339   6.852   2.306   9.957  1.2314 -1.6454  0.0673
    5CHL1    C1  340   6.738   2.557   9.933 -0.2230  0.0668  0.2915
    5CHL1   H1A  341   6.844   2.586   9.918 -0.4068  0.5076 -0.1863
    5CHL1   H1B  342   6.676   2.648   9.914 -0.2076  1.2761  4.7539
    5CHL1    C2  343   6.711   2.533  10.084  0.5204  0.3601  0.6577
    5CHL1   H2A  344   6.707   2.632  10.136 -0.6837  0.5564  0.2325
    5CHL1   H2B  345   6.779   2.466  10.141  0.7935 -1.5463 -1.7722
    5CHL1   C20  346   6.804   2.560   9.138 -0.1810 -1.3778 -0.3076
    5CHL1   H20  347   6.876   2.476   9.147 -0.2877 -1.8238 -2.8099
    5CHL1   C21  348   6.865   2.700   9.180 -0.3432 -0.5003 -0.1234
    5CHL1  H21A  349   6.796   2.785   9.199  1.3924  1.2611 -1.2359
    5CHL1  H21B  350   6.926   2.733   9.092  0.4932  0.8487  0.9125
    5CHL1  H21C  351   6.935   2.694   9.266  0.7066 -0.9852 -0.9935
    5CHL1   C22  352   6.741   2.588   8.999 -0.1021  0.1747 -0.0402
    5CHL1  H22A  353   6.644   2.533   8.997  0.0577 -0.2294  1.5152
    5CHL1  H22B  354   6.722   2.697   9.013 -0.3257  0.0677  0.5475
    5CHL1   C23  355   6.834   2.565   8.875 -0.7107 -0.6816 -0.8077
    5CHL1  H23A  356   6.791   2.604   8.780 -0.1952 -0.1535 -0.8305
    5CHL1  H23B  357   6.921   2.631   8.895 -0.7884  0.0551 -2.7326
    5CHL1   C24  358   6.873   2.422   8.853  1.1936  0.3379 -1.0104
    5CHL1  H24A  359   6.917   2.383   8.947 -1.9921  1.5474  1.1345
    5CHL1  H24B  360   6.782   2.362   8.831 -0.0184  1.0725  1.7153
    5CHL1   C25  361   6.958   2.396   8.735 -0.6433 -0.0787  0.9008
    5CHL1   H25  362   6.907   2.434   8.644  0.0669  2.1213  1.3440
    5CHL1   C26  363   7.095   2.472   8.735 -0.0577  0.6191  0.2034
    5CHL1  H26A  364   7.152   2.427   8.652 -0.7708  1.2192 -0.6297
    5CHL1  H26B  365   7.078   2.581   8.720  2.4395  1.0839  0.3991
    5CHL1  H26C  366   7.161   2.450   8.822  0.5026  1.2611 -0.0499
    5CHL1   C27  367   6.996   2.251   8.710 -0.1112  0.0953  0.0943
    5CHL1  H27A  368   7.076   2.220   8.780  1.0685  1.6740 -0.4966
    5CHL1  H27B  369   6.903   2.191   8.709 -0.3951  0.5239 -1.1530
    5CHL1  H27C  370   7.043   2.235   8.611  1.7047  0.5931  0.8339
    6CHL1    C3  371   5.272   0.289  10.151  0.3273 -0.3168 -0.6621
    6CHL1    H3  372   5.210   0.377  10.124  0.9273 -0.2010 -1.7232
    6CHL1    O3  373   5.267   0.276  10.286  0.0066  0.8314 -0.0401
    6CHL1   H3'  374   5.173   0.267  10.301 -0.0377  0.8246 -0.3309
    6CHL1    C4  375   5.214   0.160  10.095 -0.3439  0.2325  0.1780
    6CHL1   H4A  376   5.248   0.063  10.138  1.6223  0.9741  0.4273
    6CHL1   H4B  377   5.108   0.146  10.122  0.1153 -0.9083  1.5215
    6CHL1    C5  378   5.245   0.141   9.945  0.4614  0.7421 -0.4191
    6CHL1    C6  379   5.143   0.117   9.865  0.2839  0.6100  0.8876
    6CHL1    H6  380   5.040   0.094   9.898 -0.0316  0.6536 -0.0206
    6CHL1    C7  381   5.149   0.096   9.712  1.2020 -0.1593 -0.8066
    6CHL1   H7A  382   5.092   0.006   9.680 -1.3948  1.2196 -0.3077
    6CHL1   H7B  383   5.095   0.179   9.662 -0.7137  0.2334  1.7078
    6CHL1    C8  384   5.298   0.084   9.667 -0.1078 -0.1233 -0.7312
    6CHL1    H8  385   5.341  -0.014   9.700  2.0332  1.0701  0.2541
    6CHL1   C14  386   5.307   0.098   9.510 -0.5016 -0.5814  0.9607
    6CHL1   H14  387   5.265   0.201   9.501 -0.2198 -0.6202 -1.3026
    6CHL1   C15  388   5.223   0.003   9.425  0.9603 -0.0289 -0.4925
    6CHL1  H15A  389   5.251  -0.100   9.455  1.9007 -0.3831 -2.4619
    6CHL1  H15B  390   5.113   0.021   9.430  0.9410 -0.4148  1.0554
    6CHL1   C16  391   5.273   0.028   9.278  0.6738  0.6006  0.0142
    6CHL1  H16A  392   5.300  -0.070   9.234  1.4677  0.0689  1.6391
    6CHL1  H16B  393   5.193   0.084   9.225  0.0145 -1.7290 -1.5749
    6CHL1   C17  394   5.403   0.116   9.300 -0.1677  0.2223  0.3041
    6CHL1   H17  395   5.375   0.223   9.292  0.5527  0.4344  0.5174
    6CHL1   C13  396   5.448   0.100   9.450  0.0827 -0.8956  0.0505
    6CHL1   C18  397   5.521  -0.035   9.462  0.8996  0.1154 -0.6785
    6CHL1  H18A  398   5.630  -0.025   9.441  0.9196 -1.0803 -1.2656
    6CHL1  H18B  399   5.510  -0.073   9.566  2.3190 -0.2605 -0.6372
    6CHL1  H18C  400   5.490  -0.107   9.383  0.9044  1.7915 -2.2716
    6CHL1   C12  401   5.522   0.212   9.521 -0.2792  1.1667 -0.2867
    6CHL1  H12A  402   5.628   0.217   9.490 -0.0550 -0.9225 -0.0218
    6CHL1  H12B  403   5.465   0.303   9.493 -2.6913 -0.0285  0.3951
    6CHL1   C11  404   5.520   0.204   9.679 -0.4551  0.4111 -0.2487
    6CHL1  H11A  405   5.581   0.112   9.688 -0.3963  0.1407 -2.7088
    6CHL1  H11B  406   5.574   0.288   9.728 -1.1083 -0.0230  1.2687
    6CHL1    C9  407   5.380   0.191   9.734  0.4435 -0.6495 -0.3507
    6CHL1    H9  408   5.322   0.284   9.718 -0.6221 -0.9376  1.5548
    6CHL1   C10  409   5.385   0.183   9.889  0.5191  0.8972  0.8804
    6CHL1   C19  410   5.485   0.062   9.924 -0.1295 -0.9392  0.3525
    6CHL1  H19A  411   5.474   0.046  10.034 -2.6241  1.3825  0.5408
    6CHL1  H19B  412   5.452  -0.033   9.876 -0.1188 -0.9275  0.3227
    6CHL1  H19C  413   5.593   0.082   9.910 -0.1851 -0.2323  0.8697
    6CHL1    C1  414   5.423   0.319   9.951 -0.6852  0.0749  0.0406
    6CHL1   H1A  415   5.529   0.347   9.933 -1.3284  1.2587 -2.4791
    6CHL1   H1B  416   5.361   0.399   9.904 -0.4624 -0.0821 -0.5291
    6CHL1    C2  417   5.412   0.322  10.103 -0.3737 -0.1151 -0.6090
    6CHL1   H2A  418   5.441   0.419  10.149 -1.1160 -1.7192  3.7583
    6CHL1   H2B  419   5.475   0.240  10.143 -0.5022  0.1645  0.2053
    6CHL1   C20  420   5.509   0.093   9.192 -0.3914  0.2591  0.3634
    6CHL1   H20  421   5.542  -0.013   9.197 -2.1260 -0.6348 -3.5409
    6CHL1   C21  422   5.617   0.194   9.214 -0.0233  0.5123  0.0857
    6CHL1  H21A  423   5.688   0.166   9.294  1.8533  1.5986 -1.1199
    6CHL1  H21B  424   5.575   0.293   9.245 -0.5613  0.6760 -1.0850
    6CHL1  H21C  425   5.680   0.203   9.123 -0.2903 -2.0960 -0.4334
    6CHL1   C22  426   5.450   0.114   9.044 -0.3908 -0.1853  0.2196
    6CHL1  H22A  427   5.360   0.049   9.038  0.1313 -1.0306  1.1492
    6CHL1  H22B  428   5.422   0.221   9.046 -2.4960 -0.6599 -0.9909
    6CHL1   C23  429   5.549   0.080   8.924  0.7096 -0.5947 -0.2146
    6CHL1  H23A  430   5.636   0.149   8.927 -0.3749  0.7958  0.1250
    6CHL1  H23B  431   5.579  -0.025   8.946  1.8402 -0.8639 -2.7108
    6CHL1   C24  432   5.475   0.093   8.789 -0.1496  0.4765 -0.6319
    6CHL1  H24A  433   5.402   0.009   8.780  0.8183 -0.1855 -4.7108
    6CHL1  H24B  434   5.432   0.195   8.796  0.1910  0.4777  2.9566
    6CHL1   C25  435   5.562   0.083   8.663 -0.4270  0.1172 -0.0112
    6CHL1   H25  436   5.616   0.178   8.644  0.3555 -0.0246  1.3996
    6CHL1   C26  437   5.651  -0.035   8.685  0.2070  0.1852 -0.5861
    6CHL1  H26A  438   5.591  -0.120   8.725 -0.2109  0.7998  0.1336
    6CHL1  H26B  439   5.684  -0.070   8.585 -1.0316  0.7688 -1.2262
    6CHL1  H26C  440   5.740  -0.028   8.751 -0.6036 -0.0341  0.5679
    6CHL1   C27  441   5.482   0.050   8.545  0.1646  0.5578  0.8266
    6CHL1  H27A  442   5.440  -0.052   8.556  0.7083  0.0201 -1.4879
    6CHL1  H27B  443   5.393   0.117   8.550  0.0304  0.3602  1.0890
    6CHL1  H27C  444   5.549   0.047   8.457 -0.0678  0.4330  0.6533
    7CHL1    C3  445   1.489   1.456  10.350  0.2790 -0.8383 -0.1493
    7CHL1    H3  446   1.462   1.361  10.298 -1.3445 -1.2242  1.3270
    7CHL1    O3  447   1.475   1.441  10.486 -0.9599  0.3471 -0.1354
    7CHL1   H3'  448   1.561   1.440  10.529 -1.2389 -2.2626  0.5556
    7CHL1    C4  449   1.633   1.497  10.327 -0.2269  0.5742  0.5309
    7CHL1   H4A  450   1.659   1.585  10.389  1.6118  1.2618 -1.1269
    7CHL1   H4B  451   1.695   1.409  10.354  0.2311 -0.3456 -3.0553
    7CHL1    C5  452   1.650   1.529  10.184 -0.7755 -0.4025  0.3389
    7CHL1    C6  453   1.746   1.463  10.116  0.1350 -0.3545 -0.5903
    7CHL1    H6  454   1.819   1.403  10.172  0.0606  1.6724  1.8482
    7CHL1    C7  455   1.778   1.488   9.966  0.1155 -0.0001 -0.4813
    7CHL1   H7A  456   1.888   1.498   9.953  0.0493  0.4680 -0.7083
    7CHL1   H7B  457   1.737   1.411   9.897 -0.8754 -0.5262  0.6632
    7CHL1    C8  458   1.723   1.632   9.913 -0.1530 -0.7563  0.2846
    7CHL1    H8  459   1.789   1.707   9.961 -1.2784 -0.2489  1.0752
    7CHL1   C14  460   1.712   1.639   9.757 -0.3599  0.1673 -0.5974
    7CHL1   H14  461   1.653   1.554   9.716 -2.9956  1.6007 -0.0269
    7CHL1   C15  462   1.850   1.612   9.677 -0.0158  0.1661 -0.8318
    7CHL1  H15A  463   1.934   1.644   9.743  0.3166 -0.8417 -0.7504
    7CHL1  H15B  464   1.872   1.504   9.664  0.2309 -0.0180  0.8886
    7CHL1   C16  465   1.834   1.684   9.549  0.0303  0.5290 -0.4769
    7CHL1  H16A  466   1.905   1.767   9.533  1.1290 -0.3737 -0.4340
    7CHL1  H16B  467   1.840   1.614   9.462  2.3030  1.0401 -0.7807
    7CHL1   C17  468   1.690   1.755   9.552  0.3420 -0.1060  0.1152
    7CHL1   H17  469   1.620   1.675   9.520  0.2872 -0.4443  1.0460
    7CHL1   C13  470   1.669   1.775   9.703  0.1662 -0.5736  0.1226
    7CHL1   C18  471   1.756   1.893   9.759 -0.0328  0.0469 -0.3866
    7CHL1  H18A  472   1.721   1.990   9.719 -1.3850 -0.4549 -0.4859
    7CHL1  H18B  473   1.750   1.895   9.870 -1.1658 -1.4210 -0.3747
    7CHL1  H18C  474   1.859   1.878   9.720 -0.7850 -1.6392 -1.9073
    7CHL1   C12  475   1.526   1.790   9.755 -0.0380  0.8470 -0.0736
    7CHL1  H12A  476   1.493   1.892   9.726 -1.5071 -0.0527 -1.7855
    7CHL1  H12B  477   1.465   1.716   9.699 -1.7863  2.1362  0.0445
    7CHL1   C11  478   1.512   1.775   9.915  0.0323 -0.5835  0.6704
    7CHL1  H11A  479   1.571   1.862   9.952  0.3635 -0.5486  0.0602
    7CHL1  H11B  480   1.404   1.791   9.939 -0.5206  0.3452 -2.0836
    7CHL1    C9  481   1.576   1.650   9.970 -0.2261  0.5031  0.6629
    7CHL1    H9  482   1.526   1.573   9.908 -0.7311  2.1554 -1.0779
    7CHL1   C10  483   1.556   1.636  10.119 -1.4908  0.3606  0.5516
    7CHL1   C19  484   1.596   1.772  10.193  0.1041  0.4474 -0.7446
    7CHL1  H19A  485   1.578   1.752  10.301  2.5999 -2.8099 -0.7679
    7CHL1  H19B  486   1.704   1.793  10.186  0.6646 -1.1861  1.7771
    7CHL1  H19C  487   1.536   1.858  10.156 -1.4587  1.1808  3.0682
    7CHL1    C1  488   1.414   1.596  10.155  0.1504 -0.3705  0.0004
    7CHL1   H1A  489   1.331   1.666  10.130  0.0891 -0.4606 -0.0510
    7CHL1   H1B  490   1.383   1.509  10.093 -3.1114 -0.5021  1.6109
    7CHL1    C2  491   1.395   1.561  10.304  0.5485  0.3808 -1.0501
    7CHL1   H2A  492   1.288   1.535  10.319  1.1521 -0.4162  2.7695
    7CHL1   H2B  493   1.407   1.659  10.355  3.8330  0.1257 -1.0874
    7CHL1   C20  494   1.679   1.865   9.451  0.4621 -0.1628 -0.1087
    7CHL1   H20  495   1.762   1.938   9.464 -0.1569  0.8736 -1.6558
    7CHL1   C21  496   1.538   1.938   9.456  0.2139 -0.2776  0.1303
    7CHL1  H21A  497   1.467   1.864   9.498  0.6623  1.1521  3.7516
    7CHL1  H21B  498   1.509   1.977   9.356  1.9502 -3.4238 -1.7839
    7CHL1  H21C  499   1.549   2.021   9.529 -1.5161 -1.1546  1.4440
    7CHL1   C22  500   1.706   1.813   9.306 -0.1781 -0.2838 -0.2067
    7CHL1  H22A  501   1.732   1.901   9.244  1.3882 -0.4600  0.1769
    7CHL1  H22B  502   1.808   1.770   9.301  0.1462  0.3560  0.6788
    7CHL1   C23  503   1.598   1.735   9.239 -0.1009 -0.7746 -0.1767
    7CHL1  H23A  504   1.579   1.639   9.291 -1.7725 -0.2754  0.1836
    7CHL1  H23B  505   1.504   1.792   9.247  0.6481  0.9277 -2.3351
    7CHL1   C24  506   1.645   1.699   9.095 -0.8490 -0.1825 -0.1714
    7CHL1  H24A  507   1.682   1.790   9.045  3.1967  0.9702  4.1416
    7CHL1  H24B  508   1.727   1.627   9.116 -1.1944  0.2032  2.9907
    7CHL1   C25  509   1.535   1.640   9.002 -0.5662  0.2297  0.6180
    7CHL1   H25  510   1.512   1.534   9.025 -1.8281  0.1913 -0.6195
    7CHL1   C26  511   1.401   1.712   9.001  1.0365  1.0808  0.1345
    7CHL1  H26A  512   1.367   1.718   9.107 -0.4286  0.9892 -0.3084
    7CHL1  H26B  513   1.403   1.814   8.957  0.0174  1.3982  0.7828
    7CHL1  H26C  514   1.323   1.663   8.940  0.6473  0.7924  0.8437
    7CHL1   C27  515   1.576   1.641   8.853  0.2919 -0.2495  0.8098
    7CHL1  H27A  516   1.586   1.749   8.830 -0.2624  0.2325  2.7053
    7CHL1  H27B  517   1.675   1.593   8.838  0.3234  0.5095 -2.0087
    7CHL1  H27C  518   1.498   1.593   8.790 -1.2024  2.8473  0.0794
    8CHL1    C3  519   5.748   4.110  10.222 -0.3436 -0.3270 -0.2027
    8CHL1    H3  520   5.799   4.208  10.217  1.4193 -1.1027  1.2619
    8CHL1    O3  521   5.714   4.078  10.354  0.6579 -0.1320 -0.8173
    8CHL1   H3'  522   5.654   4.003  10.353 -0.9293  1.0931 -1.5730
    8CHL1    C4  523   5.615   4.109  10.143  0.5490 -0.0601  0.3820
    8CHL1   H4A  524   5.559   4.015  10.158 -0.4619  0.8367  2.6904
    8CHL1   H4B  525   5.550   4.182  10.195  1.0920  1.3301 -0.7875
    8CHL1    C5  526   5.647   4.150  10.003 -0.8097  0.6053  0.0067
    8CHL1    C6  527   5.597   4.259   9.950 -0.4768 -0.3885  0.4349
    8CHL1    H6  528   5.526   4.325  10.002 -1.5293  0.2457 -1.7087
    8CHL1    C7  529   5.625   4.293   9.805  0.6722  0.4172 -0.6247
    8CHL1   H7A  530   5.537   4.340   9.755  1.1482  0.6240 -1.2706
    8CHL1   H7B  531   5.700   4.373   9.793  0.4257  0.8068  0.3296
    8CHL1    C8  532   5.677   4.170   9.726  0.4745  0.9847  0.1745
    8CHL1    H8  533   5.591   4.101   9.710  0.4985  0.5916  1.5965
    8CHL1   C14  534   5.721   4.207   9.588  0.3431 -0.1034 -0.3826
    8CHL1   H14  535   5.809   4.275   9.599  0.4906 -0.0005 -1.9765
    8CHL1   C15  536   5.614   4.282   9.503 -0.5139  0.2735  0.3074
    8CHL1  H15A  537   5.514   4.238   9.525  0.0940 -1.4551 -0.2069
    8CHL1  H15B  538   5.608   4.390   9.530  0.5173  0.8555 -1.6701
    8CHL1   C16  539   5.661   4.264   9.360  0.4348  0.1371 -0.3753
    8CHL1  H16A  540   5.590   4.197   9.306  0.5709  0.5207 -1.0448
    8CHL1  H16B  541   5.671   4.364   9.312 -2.1059  0.6138 -0.0898
    8CHL1   C17  542   5.787   4.170   9.363  0.1171  0.4116 -0.2775
    8CHL1   H17  543   5.877   4.234   9.376  0.5265 -0.2098 -0.0088
    8CHL1   C13  544   5.761   4.092   9.490  0.6915 -0.5323 -0.2086
    8CHL1   C18  545   5.649   3.984   9.467 -0.0698 -1.1123  0.9017
    8CHL1  H18A  546   5.559   4.018   9.412 -0.8357 -2.0323  1.5536
    8CHL1  H18B  547   5.688   3.895   9.413 -1.6406 -0.4286 -1.4978
    8CHL1  H18C  548   5.596   3.962   9.562  0.3815  0.7813  1.6261
    8CHL1   C12  549   5.885   4.033   9.572 -0.1417 -0.3759  0.1125
    8CHL1  H12A  550   5.921   3.942   9.519  1.3095 -1.1943  2.3715
    8CHL1  H12B  551   5.973   4.100   9.567  0.3853 -1.1223 -1.5184
    8CHL1   C11  552   5.850   3.987   9.712 -0.6904  1.4170 -0.5471
    8CHL1  H11A  553   5.776   3.910   9.683 -0.4072  0.4949  1.0227
    8CHL1  H11B  554   5.943   3.946   9.758 -2.3807 -1.1027  0.8658
    8CHL1    C9  555   5.787   4.098   9.799  0.8911 -0.3289 -0.2582
    8CHL1    H9  556   5.871   4.171   9.805  2.0803 -1.7340  0.8483
    8CHL1   C10  557   5.749   4.053   9.937  0.5501 -0.3760  1.1805
    8CHL1   C19  558   5.672   3.923   9.928  0.5822 -0.0250  0.7256
    8CHL1  H19A  559   5.580   3.939   9.867  1.6803  2.1805 -0.4817
    8CHL1  H19B  560   5.736   3.845   9.881 -1.1838 -0.6605 -0.7368
    8CHL1  H19C  561   5.643   3.887  10.029  0.6103 -1.6617  0.1720
    8CHL1    C1  562   5.882   4.037  10.017 -0.5332  0.4757 -0.0640
    8CHL1   H1A  563   5.929   3.941   9.987 -3.6249 -1.1183 -0.1948
    8CHL1   H1B  564   5.943   4.130  10.012 -1.6169  1.1530 -1.5451
    8CHL1    C2  565   5.847   4.003  10.172  1.0621 -0.8879  0.4474
    8CHL1   H2A  566   5.942   4.018  10.228  0.4722  1.4424  0.9048
    8CHL1   H2B  567   5.796   3.906  10.192 -0.0128 -0.2593  0.8509
    8CHL1   C20  568   5.812   4.088   9.227  0.1619 -0.7274  0.0041
    8CHL1   H20  569   5.742   4.003   9.210 -1.8822  1.0456 -1.0159
    8CHL1   C21  570   5.956   4.034   9.224  0.3160 -0.6412  0.4820
    8CHL1  H21A  571   6.027   4.111   9.260 -0.8892  1.3648 -1.2099
    8CHL1  H21B  572   5.984   4.017   9.117  2.1087  0.0188  0.8196
    8CHL1  H21C  573   5.961   3.938   9.279  0.1796 -0.1940  1.2846
    8CHL1   C22  574   5.789   4.179   9.097  0.7634  0.0106 -0.8094
    8CHL1  H22A  575   5.683   4.211   9.099  0.6525 -0.2985  1.6007
    8CHL1  H22B  576   5.851   4.271   9.097 -1.5781  1.6614 -1.1593
    8CHL1   C23  577   5.785   4.107   8.963  0.0847 -0.0513  0.1027
    8CHL1  H23A  578   5.883   4.075   8.922 -0.5196 -1.3244 -0.4068
    8CHL1  H23B  579   5.735   4.009   8.977 -2.6104  1.2546  0.3068
    8CHL1   C24  580   5.719   4.201   8.858  0.3424  0.3070  0.0612
    8CHL1  H24A  581   5.623   4.232   8.905  1.3344  0.3168  2.2360
    8CHL1  H24B  582   5.780   4.293   8.845 -0.4781  1.0354  1.1656
    8CHL1   C25  583   5.695   4.145   8.722 -0.4720  0.3410 -0.8669
    8CHL1   H25  584   5.650   4.044   8.733 -2.9656  1.4658  0.0298
    8CHL1   C26  585   5.592   4.230   8.638  0.1824  0.2745  0.0033
    8CHL1  H26A  586   5.584   4.172   8.544  0.1652  0.3564 -0.0458
    8CHL1  H26B  587   5.493   4.230   8.688  0.2808 -3.5553  0.4775
    8CHL1  H26C  588   5.627   4.329   8.601  1.4616  0.0836  0.6491
    8CHL1   C27  589   5.822   4.128   8.642 -0.0206 -0.4900  0.0230
    8CHL1  H27A  590   5.901   4.070   8.694  1.7631  1.6599 -0.1258
    8CHL1  H27B  591   5.795   4.083   8.544  1.6265  0.2402 -0.8056
    8CHL1  H27C  592   5.863   4.228   8.613 -5.5889  2.8885  2.1321
    9CHL1    C3  593   3.779   1.919  10.265 -0.6975 -0.2910  0.7542
    9CHL1    H3  594   3.669   1.909  10.262 -0.6748 -2.5968  3.3460
    9CHL1    O3  595   3.821   1.971  10.393 -0.2861 -0.5483 -0.0361
    9CHL1   H3'  596   3.779   1.912  10.455 -0.5081  0.7611  1.1072
    9CHL1    C4  597   3.833   1.781  10.253  0.0175 -0.1587  0.3769
    9CHL1   H4A  598   3.941   1.784  10.277 -0.1450 -1.7277  1.4875
    9CHL1   H4B  599   3.793   1.727  10.342 -1.2710 -0.5506 -0.4112
    9CHL1    C5  600   3.796   1.708  10.125  0.4031 -0.0752  0.0904
    9CHL1    C6  601   3.735   1.589  10.128  0.6925  0.2822  0.3818
    9CHL1    H6  602   3.716   1.527  10.217  2.8541 -2.6266 -1.0245
    9CHL1    C7  603   3.703   1.526   9.997  0.0672  0.3909 -0.5419
    9CHL1   H7A  604   3.753   1.427  10.005 -2.6386 -1.0058  0.5154
    9CHL1   H7B  605   3.596   1.496   9.986  0.4026 -0.2158 -2.6547
    9CHL1    C8  606   3.757   1.596   9.868 -0.2792  0.6079  0.1450
    9CHL1    H8  607   3.863   1.562   9.861 -0.5562 -1.1193  3.0592
    9CHL1   C14  608   3.690   1.553   9.736  0.3037  0.5891 -0.4248
    9CHL1   H14  609   3.583   1.577   9.752 -0.3873 -2.5927  0.5783
    9CHL1   C15  610   3.679   1.402   9.717  0.7163 -0.1950 -0.1767
    9CHL1  H15A  611   3.776   1.355   9.743  1.7815  1.8577 -0.2504
    9CHL1  H15B  612   3.595   1.360   9.776 -1.8216  1.4945 -2.3147
    9CHL1   C16  613   3.648   1.386   9.568  1.6588  0.2524 -0.2010
    9CHL1  H16A  614   3.722   1.327   9.510  0.5748  0.7024 -2.1440
    9CHL1  H16B  615   3.541   1.363   9.546  1.7226 -1.1706  0.8016
    9CHL1   C17  616   3.656   1.533   9.503  0.3146  0.2589 -0.2061
    9CHL1   H17  617   3.557   1.580   9.519 -0.1953 -1.0316  0.5856
    9CHL1   C13  618   3.743   1.608   9.604  0.1919 -0.4367 -0.0000
    9CHL1   C18  619   3.890   1.570   9.586 -0.1727  0.4829  0.6435
    9CHL1  H18A  620   3.945   1.624   9.506  0.2981 -1.5466 -0.4928
    9CHL1  H18B  621   3.955   1.597   9.672 -0.1967  1.1659  0.4545
    9CHL1  H18C  622   3.903   1.462   9.560  3.3317  1.1676 -1.1626
    9CHL1   C12  623   3.733   1.760   9.614 -0.5987  0.0137  0.0311
    9CHL1  H12A  624   3.772   1.810   9.524  2.2930  0.8916  1.6508
    9CHL1  H12B  625   3.625   1.787   9.621 -1.2274 -2.5143  1.9510
    9CHL1   C11  626   3.787   1.819   9.745 -0.1964 -0.5871  0.6733
    9CHL1  H11A  627   3.897   1.803   9.738 -0.4077 -1.9315  0.0057
    9CHL1  H11B  628   3.765   1.928   9.742 -2.0306 -0.9411 -0.8347
    9CHL1    C9  629   3.751   1.750   9.881 -0.1162  0.2452 -0.0372
    9CHL1    H9  630   3.642   1.769   9.891  0.1779  1.7292  0.6738
    9CHL1   C10  631   3.827   1.800  10.000 -0.2426  0.0133  0.2088
    9CHL1   C19  632   3.979   1.806   9.981  0.9405 -0.2956 -0.0906
    9CHL1  H19A  633   4.026   1.824  10.081 -3.0741 -0.0162  1.9224
    9CHL1  H19B  634   4.019   1.709   9.945 -0.7421 -1.3890  0.8811
    9CHL1  H19C  635   4.009   1.889   9.913  4.0915 -0.7891  0.5205
    9CHL1    C1  636   3.785   1.952  10.022 -0.1248 -0.1836  0.7248
    9CHL1   H1A  637   3.828   2.020   9.946 -1.7480  0.2814  0.1945
    9CHL1   H1B  638   3.676   1.971  10.017 -0.4867 -2.3132 -2.1066
    9CHL1    C2  639   3.840   2.004  10.155  0.0735 -0.6466 -0.2186
    9CHL1   H2A  640   3.809   2.111  10.164 -0.1127 -0.7770  0.7830
    9CHL1   H2B  641   3.951   2.006  10.161 -0.0106  0.0283  2.1523
    9CHL1   C20  642   3.692   1.535   9.351  0.3603 -0.0429  0.4171
    9CHL1   H20  643   3.801   1.520   9.336  0.1413 -0.1266 -1.2143
    9CHL1   C21  644   3.668   1.680   9.293  0.5662  0.9105 -0.4858
    9CHL1  H21A  645   3.750   1.749   9.324 -0.0005  0.2845  2.7692
    9CHL1  H21B  646   3.569   1.719   9.326  1.1994 -1.3318  5.1950
    9CHL1  H21C  647   3.672   1.666   9.183  1.7680  3.6971 -0.8699
    9CHL1   C22  648   3.618   1.441   9.255 -0.1501 -0.8420 -0.7733
    9CHL1  H22A  649   3.655   1.447   9.150 -1.3376 -3.2263 -1.3945
    9CHL1  H22B  650   3.656   1.343   9.292  2.9974  1.5418  3.0417
    9CHL1   C23  651   3.466   1.451   9.260  0.0714 -0.2197 -0.1938
    9CHL1  H23A  652   3.434   1.456   9.366 -1.2902  0.4772 -0.6076
    9CHL1  H23B  653   3.419   1.534   9.203 -1.5841 -2.9768 -3.1950
    9CHL1   C24  654   3.399   1.324   9.207 -0.0133  0.0964 -0.3634
    9CHL1  H24A  655   3.465   1.298   9.122  1.7695 -0.2361  1.0650
    9CHL1  H24B  656   3.407   1.241   9.279 -2.2451 -1.5269 -1.8465
    9CHL1   C25  657   3.247   1.340   9.164  0.5023 -0.3153 -0.0722
    9CHL1   H25  658   3.198   1.403   9.242 -1.0207  0.1404 -1.3435
    9CHL1   C26  659   3.224   1.418   9.031  0.1668  0.1547  0.3390
    9CHL1  H26A  660   3.271   1.517   9.050 -1.0513  0.8345 -0.0800
    9CHL1  H26B  661   3.272   1.375   8.940  0.4307 -0.2701  0.6731
    9CHL1  H26C  662   3.117   1.428   9.006  0.1831  0.7015  0.4764
    9CHL1   C27  663   3.182   1.210   9.157 -0.3472  1.3735 -0.2188
    9CHL1  H27A  664   3.182   1.167   9.260 -3.4562 -0.6335 -0.9163
    9CHL1  H27B  665   3.076   1.205   9.124 -0.7238 -1.1723  1.1092
    9CHL1  H27C  666   3.242   1.140   9.096  0.7973 -1.0531  3.3267
   10CHL1    C3  667   4.411   5.576  10.033 -0.6530  0.2137 -0.8506
   10CHL1    H3  668   4.504   5.515  10.038 -0.6871  0.2050  3.2196
   10CHL1    O3  669   4.418   5.646  10.157 -0.0922 -0.1906  0.5270
   10CHL1   H3'  670   4.409   5.736  10.125 -1.2432 -0.3098  0.4767
   10CHL1    C4  671   4.397   5.675   9.917 -0.1690  0.7771  0.4916
   10CHL1   H4A  672   4.302   5.730   9.932  0.7494  2.8812 -0.9335
   10CHL1   H4B  673   4.478   5.751   9.910  0.5573 -0.1331 -1.4808
   10CHL1    C5  674   4.380   5.600   9.786  0.5595 -0.0614  0.4262
   10CHL1    C6  675   4.455   5.636   9.683  0.6664 -0.1751  0.1230
   10CHL1    H6  676   4.541   5.700   9.705  2.2576 -1.1723 -2.6114
   10CHL1    C7  677   4.437   5.591   9.546 -0.5538 -0.4242 -0.1135
   10CHL1   H7A  678   4.448   5.676   9.476 -1.4692  0.5279  0.8567
   10CHL1   H7B  679   4.517   5.517   9.524 -0.3096 -0.9780  2.2929
   10CHL1    C8  680   4.311   5.505   9.524  0.1922 -0.2509 -0.3290
   10CHL1    H8  681   4.220   5.564   9.500 -0.8406 -1.9925 -0.8982
   10CHL1   C14  682   4.324   5.419   9.399 -0.5630  0.6742  0.6352
   10CHL1   H14  683   4.414   5.354   9.407 -2.9341 -3.1750 -1.0505
   10CHL1   C15  684   4.365   5.494   9.267  0.4708 -0.0150  0.7651
   10CHL1  H15A  685   4.295   5.580   9.264  0.1503 -0.2730  0.7396
   10CHL1  H15B  686   4.468   5.534   9.280 -0.1986  2.1309 -0.0888
   10CHL1   C16  687   4.326   5.392   9.156  0.4022  0.0718 -0.0576
   10CHL1  H16A  688   4.268   5.443   9.076 -0.3888  0.0418  0.4883
   10CHL1  H16B  689   4.422   5.357   9.111  1.9491 -1.4040  3.9239
   10CHL1   C17  690   4.243   5.272   9.231  0.4987 -0.0956 -0.4182
   10CHL1   H17  691   4.318   5.195   9.259 -0.2585 -0.3816  0.9598
   10CHL1   C13  692   4.205   5.328   9.368  0.3205  0.0519 -0.0199
   10CHL1   C18  693   4.077   5.422   9.346  0.8788 -0.2916  0.1181
   10CHL1  H18A  694   4.003   5.361   9.290  0.7703 -0.0824  0.0290
   10CHL1  H18B  695   4.033   5.449   9.445  0.5114 -2.1584  0.4995
   10CHL1  H18C  696   4.100   5.513   9.286 -0.2991 -0.2885 -0.3517
   10CHL1   C12  697   4.184   5.231   9.494  0.2885 -0.6799  0.2067
   10CHL1  H12A  698   4.092   5.169   9.482 -0.5670  0.4204  0.8215
   10CHL1  H12B  699   4.275   5.168   9.500  0.7351  0.0381  1.2561
   10CHL1   C11  700   4.169   5.311   9.624  0.6229  0.1951  0.4376
   10CHL1  H11A  701   4.069   5.360   9.629  1.9028  3.0288  0.3639
   10CHL1  H11B  702   4.178   5.240   9.708 -0.4370  1.8749  2.0460
   10CHL1    C9  703   4.278   5.419   9.645  0.8110  0.5237 -0.2002
   10CHL1    H9  704   4.364   5.351   9.657 -0.5988 -1.6231 -1.5945
   10CHL1   C10  705   4.259   5.497   9.774  0.0085 -0.6487 -0.0769
   10CHL1   C19  706   4.121   5.566   9.777  0.4749  0.1753  1.1379
   10CHL1  H19A  707   4.037   5.494   9.786  2.1100 -1.8782  0.8207
   10CHL1  H19B  708   4.110   5.631   9.866  0.2468 -1.1099  2.0900
   10CHL1  H19C  709   4.107   5.629   9.687  0.7205 -3.0310 -1.3488
   10CHL1    C1  710   4.275   5.402   9.897  0.0284  0.0071 -0.6204
   10CHL1   H1A  711   4.189   5.333   9.903 -0.3696  0.3098 -2.3814
   10CHL1   H1B  712   4.361   5.333   9.881 -1.3645 -1.6620 -1.1383
   10CHL1    C2  713   4.292   5.471  10.030  0.6759 -0.2733 -0.2146
   10CHL1   H2A  714   4.301   5.400  10.114 -0.1694  1.2112  1.1820
   10CHL1   H2B  715   4.199   5.526  10.056 -0.4595 -2.3024  0.1664
   10CHL1   C20  716   4.132   5.192   9.160 -0.1785  0.1473  0.1783
   10CHL1   H20  717   4.056   5.168   9.237  0.8178 -2.0683  0.5480
   10CHL1   C21  718   4.191   5.053   9.113 -0.5545 -0.9047 -0.1908
   10CHL1  H21A  719   4.221   4.995   9.203  1.6113 -2.4652 -1.7985
   10CHL1  H21B  720   4.288   5.075   9.063 -0.3737 -1.7791 -0.2417
   10CHL1  H21C  721   4.133   4.997   9.037 -0.3431 -0.4506 -0.6973
   10CHL1   C22  722   4.068   5.257   9.040 -0.3292 -0.6576  0.0001
   10CHL1  H22A  723   4.040   5.361   9.068  0.7597  0.0262 -1.3570
   10CHL1  H22B  724   4.142   5.270   8.958 -0.2385  0.5026  0.2575
   10CHL1   C23  725   3.932   5.193   9.002 -0.8568 -0.0135  0.1487
   10CHL1  H23A  726   3.944   5.095   8.952 -4.0384 -0.4963  0.1326
   10CHL1  H23B  727   3.877   5.179   9.098 -1.4516 -1.7992 -0.4102
   10CHL1   C24  728   3.838   5.280   8.916  0.5623  0.1346  0.1818
   10CHL1  H24A  729   3.834   5.385   8.952  0.2052  0.6046 -1.1638
   10CHL1  H24B  730   3.877   5.287   8.812  0.6017 -0.8506  0.1265
   10CHL1   C25  731   3.694   5.229   8.924  0.4567  0.4138  0.3585
   10CHL1   H25  732   3.671   5.208   9.031  0.2110  0.6429  0.3531
   10CHL1   C26  733   3.598   5.341   8.877 -0.6094  0.2007  0.5554
   10CHL1  H26A  734   3.598   5.433   8.939 -1.8460  0.4391  0.2194
   10CHL1  H26B  735   3.589   5.355   8.767  0.4355 -0.9708  0.3005
   10CHL1  H26C  736   3.501   5.293   8.902 -0.3669 -0.7744 -0.2905
   10CHL1   C27  737   3.671   5.102   8.829 -0.7219  0.5971 -0.0061
   10CHL1  H27A  738   3.563   5.086   8.813 -0.3783 -2.0148 -0.0509
   10CHL1  H27B  739   3.720   5.112   8.729 -0.6615  0.3573 -0.0006
   10CHL1  H27C  740   3.727   5.018   8.874  1.2002  0.6631 -2.0866
   11CHL1    C3  741   6.390   6.626  10.127 -0.3694  0.4279  0.6692
   11CHL1    H3  742   6.395   6.524  10.083 -0.2079 -0.1940  2.0988
   11CHL1    O3  743   6.358   6.620  10.265  0.3576  0.1675  0.4385
   11CHL1   H3'  744   6.263   6.606  10.262  0.5324 -1.1393  0.3343
   11CHL1    C4  745   6.520   6.707  10.092  0.7509 -0.2645 -0.1641
   11CHL1   H4A  746   6.502   6.808  10.134 -1.0737 -0.9373  0.7853
   11CHL1   H4B  747   6.603   6.652  10.141  0.6784 -0.7774 -0.6110
   11CHL1    C5  748   6.537   6.714   9.943  0.2046  0.1810  0.5833
   11CHL1    C6  749   6.636   6.649   9.885 -0.4550 -0.7273  0.1093
   11CHL1    H6  750   6.713   6.605   9.951  1.9092 -0.1551 -2.0962
   11CHL1    C7  751   6.665   6.648   9.738  0.2234 -0.3785 -0.2490
   11CHL1   H7A  752   6.775   6.662   9.727 -0.1864  2.8258 -1.3841
   11CHL1   H7B  753   6.644   6.547   9.696 -1.2315 -0.1113 -0.2059
   11CHL1    C8  754   6.581   6.753   9.661 -1.0721 -0.4432  0.2314
   11CHL1    H8  755   6.622   6.852   9.690 -0.8177 -0.4902  0.0362
   11CHL1   C14  756   6.599   6.729   9.518  0.3747 -0.0263 -0.5880
   11CHL1   H14  757   6.555   6.629   9.496 -0.3245  0.2216 -0.3463
   11CHL1   C15  758   6.741   6.725   9.463 -0.0320  0.2230 -0.2065
   11CHL1  H15A  759   6.790   6.809   9.518 -0.6984  0.0314  0.6916
   11CHL1  H15B  760   6.783   6.625   9.485 -0.6161 -0.7207 -2.9238
   11CHL1   C16  761   6.727   6.750   9.309  0.7051  0.0123 -0.9862
   11CHL1  H16A  762   6.781   6.847   9.297  0.6366  0.3979  1.2686
   11CHL1  H16B  763   6.781   6.666   9.260  1.4970  0.5346 -1.0279
   11CHL1   C17  764   6.582   6.781   9.280  1.1283  0.3907 -0.9386
   11CHL1   H17  765   6.540   6.682   9.252 -0.4395  0.5636  0.6278
   11CHL1   C13  766   6.518   6.822   9.426 -0.7539  0.6506  0.2521
   11CHL1   C18  767   6.556   6.966   9.458  0.4231 -0.3012 -0.1726
   11CHL1  H18A  768   6.542   6.996   9.564 -0.7123 -1.7485  0.1159
   11CHL1  H18B  769   6.652   6.989   9.406  0.9505  0.7704  1.1986
   11CHL1  H18C  770   6.496   7.037   9.398 -0.0802 -1.4482 -1.0646
   11CHL1   C12  771   6.370   6.795   9.447 -0.5195  0.3228  0.3242
   11CHL1  H12A  772   6.290   6.843   9.386 -0.9513  1.1457  1.4946
   11CHL1  H12B  773   6.356   6.686   9.431  0.6119 -0.0635  1.6992
   11CHL1   C11  774   6.337   6.813   9.597  0.2626  0.2777  0.0811
   11CHL1  H11A  775   6.341   6.920   9.628  1.4734 -0.0976  1.3438
   11CHL1  H11B  776   6.235   6.779   9.622 -0.1578  2.6163  1.8976
   11CHL1    C9  777   6.435   6.745   9.698  0.1521  0.1608  0.4200
   11CHL1    H9  778   6.414   6.637   9.682 -0.8463  0.5799 -1.4242
   11CHL1   C10  779   6.422   6.775   9.847  0.8303 -0.8552  0.1050
   11CHL1   C19  780   6.407   6.931   9.870  0.2019 -0.7755  0.2725
   11CHL1  H19A  781   6.485   6.993   9.822 -0.7726  0.9525  0.8305
   11CHL1  H19B  782   6.313   6.952   9.814  1.9044  1.1024 -2.0821
   11CHL1  H19C  783   6.396   6.970   9.974 -0.1127  2.9133 -0.9958
   11CHL1    C1  784   6.297   6.694   9.903  0.0313  0.5477  0.6997
   11CHL1   H1A  785   6.209   6.743   9.857  0.4880 -0.3050 -1.2046
   11CHL1   H1B  786   6.309   6.585   9.881  2.9121  0.1307  3.5289
   11CHL1    C2  787   6.277   6.702  10.057 -0.3071 -0.0304  1.1529
   11CHL1   H2A  788   6.187   6.645  10.089  0.5459 -2.1940 -0.0711
   11CHL1   H2B  789   6.265   6.812  10.072 -2.8775 -0.2818  1.4166
   11CHL1   C20  790   6.552   6.869   9.164  0.6394  0.0688  0.7484
   11CHL1   H20  791   6.584   6.972   9.190  0.5953  0.1556  0.4555
   11CHL1   C21  792   6.403   6.881   9.140  0.0730  0.0246  0.3962
   11CHL1  H21A  793   6.390   6.947   9.052 -0.6308 -0.3198  0.2309
   11CHL1  H21B  794   6.353   6.945   9.215 -0.7052 -0.5077  0.3462
   11CHL1  H21C  795   6.349   6.787   9.112 -0.9635  0.3357  1.2603
   11CHL1   C22  796   6.634   6.816   9.036 -0.9238 -0.7314 -0.5530
   11CHL1  H22A  797   6.740   6.803   9.065 -1.2598  1.6845  2.2204
   11CHL1  H22B  798   6.597   6.715   9.010 -2.0416 -0.4684 -0.0496
   11CHL1   C23  799   6.621   6.910   8.914  0.4087 -0.4782 -0.2298
   11CHL1  H23A  800   6.519   6.927   8.874  1.2725  1.5528 -1.7430
   11CHL1  H23B  801   6.641   7.011   8.955  2.8262 -1.0289  0.1373
   11CHL1   C24  802   6.717   6.862   8.805  0.2747  0.0342 -0.5728
   11CHL1  H24A  803   6.824   6.865   8.835 -0.1539 -2.0338  1.4884
   11CHL1  H24B  804   6.688   6.759   8.774  0.2361  0.3804 -1.7491
   11CHL1   C25  805   6.703   6.952   8.678  0.7039 -0.0083  0.3211
   11CHL1   H25  806   6.706   7.054   8.723  3.3075  0.5909 -1.0022
   11CHL1   C26  807   6.822   6.940   8.570  0.6749 -0.4115 -0.3688
   11CHL1  H26A  808   6.818   6.834   8.537 -2.0203 -1.7698  3.5697
   11CHL1  H26B  809   6.814   7.004   8.479 -1.2401 -0.1382 -0.0517
   11CHL1  H26C  810   6.912   6.969   8.627 -0.8637  1.0534  1.4403
   11CHL1   C27  811   6.565   6.925   8.607  0.3097  0.2277  0.7492
   11CHL1  H27A  812   6.557   7.010   8.536 -0.5172 -0.1984  0.3251
   11CHL1  H27B  813   6.570   6.828   8.553 -0.2557  0.5104  0.1673
   11CHL1  H27C  814   6.482   6.912   8.679 -0.0631  2.9191  0.9299
   12CHL1    C3  815   0.900   5.081  10.251  0.3973  0.0265 -0.4840
   12CHL1    H3  816   0.893   4.972  10.228 -0.7911  0.1881 -0.9131
   12CHL1    O3  817   0.876   5.099  10.392 -0.5257  0.0056  0.6902
   12CHL1   H3'  818   0.910   5.187  10.409  1.2647 -0.5214  0.0769
   12CHL1    C4  819   1.045   5.130  10.212  0.0799 -0.3049  0.6169
   12CHL1   H4A  820   1.059   5.235  10.244 -2.9635  0.7204 -1.0001
   12CHL1   H4B  821   1.117   5.067  10.269 -0.3194 -1.7216 -0.3893
   12CHL1    C5  822   1.058   5.128  10.058  0.5370 -0.0075  0.0050
   12CHL1    C6  823   1.161   5.061  10.015 -0.1629 -0.6030  0.1718
   12CHL1    H6  824   1.232   5.011  10.082  1.0826  1.1941  0.2572
   12CHL1    C7  825   1.195   5.057   9.865 -0.0021  0.1247 -0.6340
   12CHL1   H7A  826   1.301   5.090   9.856  0.4008 -1.1680 -0.8086
   12CHL1   H7B  827   1.191   4.951   9.831 -2.2335 -0.2738  0.6896
   12CHL1    C8  828   1.116   5.155   9.772 -0.2219  0.8873 -0.7836
   12CHL1    H8  829   1.175   5.247   9.794  2.3185 -1.2399  2.2688
   12CHL1   C14  830   1.122   5.115   9.625 -0.0924 -0.4454 -0.3149
   12CHL1   H14  831   1.067   5.019   9.628 -0.1351 -0.4985 -1.8290
   12CHL1   C15  832   1.257   5.075   9.557  0.0137 -0.2407  0.0277
   12CHL1  H15A  833   1.339   5.148   9.569  1.3229 -1.4177 -1.3394
   12CHL1  H15B  834   1.288   4.973   9.589 -2.9849 -1.8224 -1.6550
   12CHL1   C16  835   1.222   5.098   9.407 -0.6147 -0.2557  0.8755
   12CHL1  H16A  836   1.284   5.182   9.369 -2.7787  0.6107 -0.9363
   12CHL1  H16B  837   1.248   5.014   9.339 -3.3474 -0.9173  0.5277
   12CHL1   C17  838   1.075   5.148   9.396  0.3082 -0.4319 -0.1989
   12CHL1   H17  839   1.019   5.054   9.382 -1.8673  0.7027  0.4594
   12CHL1   C13  840   1.047   5.207   9.535 -0.4450  0.3403  0.2442
   12CHL1   C18  841   1.099   5.349   9.541 -0.7105 -0.2606 -0.7245
   12CHL1  H18A  842   1.016   5.419   9.517 -0.6181  0.9190  2.0947
   12CHL1  H18B  843   1.130   5.377   9.644  1.4600  1.2855 -1.7217
   12CHL1  H18C  844   1.184   5.365   9.471  0.5678 -0.7245  0.6925
   12CHL1   C12  845   0.900   5.214   9.574 -0.4292  0.2864 -0.1089
   12CHL1  H12A  846   0.844   5.280   9.505 -2.9300 -2.2831 -0.7541
   12CHL1  H12B  847   0.860   5.111   9.559  1.6124 -0.2509 -2.5918
   12CHL1   C11  848   0.894   5.266   9.722  0.0176  0.3877  0.5306
   12CHL1  H11A  849   0.924   5.373   9.730  0.6783  0.0783  2.8461
   12CHL1  H11B  850   0.790   5.266   9.762 -0.3507  3.7346 -0.0951
   12CHL1    C9  851   0.974   5.173   9.818  0.8107  0.1423 -0.4382
   12CHL1    H9  852   0.918   5.077   9.808 -1.5239  1.1100  2.0402
   12CHL1   C10  853   0.958   5.209   9.972 -0.3992 -0.0505 -0.3868
   12CHL1   C19  854   0.973   5.357   9.999 -0.3282 -0.9909  0.3082
   12CHL1  H19A  855   1.000   5.393  10.100  1.1113 -1.0509 -0.0324
   12CHL1  H19B  856   1.045   5.399   9.925 -0.8355  1.4193  1.0981
   12CHL1  H19C  857   0.874   5.401   9.974 -0.3619 -0.1096  1.8601
   12CHL1    C1  858   0.819   5.160  10.020  0.0738 -0.5352  0.3816
   12CHL1   H1A  859   0.746   5.220   9.962  1.4921  0.2287 -0.6675
   12CHL1   H1B  860   0.803   5.051  10.004 -2.3419 -0.3127  0.8563
   12CHL1    C2  861   0.797   5.168  10.175 -0.1099 -0.1033 -0.7139
   12CHL1   H2A  862   0.692   5.155  10.208 -0.1490  0.0894 -0.7575
   12CHL1   H2B  863   0.827   5.269  10.210 -1.7651  0.3919 -0.6519
   12CHL1   C20  864   1.053   5.233   9.272  0.7049 -0.1871  0.0767
   12CHL1   H20  865   1.076   5.342   9.279  0.3840  0.1831 -3.1603
   12CHL1   C21  866   0.904   5.223   9.226 -0.1570 -0.1592 -0.8808
   12CHL1  H21A  867   0.843   5.269   9.307  2.5363  1.2680  0.4743
   12CHL1  H21B  868   0.878   5.118   9.199  1.4915 -0.5691 -0.9731
   12CHL1  H21C  869   0.883   5.288   9.138  1.2246 -1.2354 -2.0643
   12CHL1   C22  870   1.140   5.190   9.143  0.4020 -0.0868 -0.5096
   12CHL1  H22A  871   1.246   5.163   9.160  0.7434 -0.7806 -3.2933
   12CHL1  H22B  872   1.101   5.093   9.104 -1.7982  0.8433 -0.7745
   12CHL1   C23  873   1.149   5.297   9.027  0.2711  0.1657 -0.0803
   12CHL1  H23A  874   1.048   5.314   8.985  1.3641 -1.3053 -3.6954
   12CHL1  H23B  875   1.191   5.390   9.072  0.3086  0.1982 -0.1822
   12CHL1   C24  876   1.217   5.247   8.893 -0.3012  0.0120 -0.6944
   12CHL1  H24A  877   1.309   5.307   8.876 -0.0346 -0.0975  0.3464
   12CHL1  H24B  878   1.255   5.144   8.904  0.4290  0.5205  2.9105
   12CHL1   C25  879   1.124   5.256   8.764  0.0988  0.1027 -1.2762
   12CHL1   H25  880   1.062   5.348   8.775  0.9761  0.4535  2.1746
   12CHL1   C26  881   1.212   5.255   8.633  0.4313  0.2184  0.2163
   12CHL1  H26A  882   1.279   5.167   8.624  2.8665  2.1427 -2.2865
   12CHL1  H26B  883   1.144   5.268   8.546  0.6888 -1.9930 -0.3748
   12CHL1  H26C  884   1.276   5.345   8.637 -1.4956  1.8028 -2.0710
   12CHL1   C27  885   1.026   5.148   8.748  0.7082  0.0489  0.3489
   12CHL1  H27A  886   1.072   5.047   8.758 -0.7242 -0.6620  0.1965
   12CHL1  H27B  887   0.952   5.150   8.832  0.0664 -1.8477 -0.1168
   12CHL1  H27C  888   0.982   5.153   8.646 -1.3896 -1.5852  1.0755
   13CHL1    C3  889   1.545   6.240   9.913 -0.0789  0.2300  0.8900
   13CHL1    H3  890   1.627   6.181   9.866 -1.7431 -0.1262 -1.8093
   13CHL1    O3  891   1.557   6.248  10.053 -0.7942  0.3241 -0.1556
   13CHL1   H3'  892   1.514   6.325  10.092 -1.1179  1.0353 -1.8294
   13CHL1    C4  893   1.521   6.375   9.866 -0.5480 -0.1012 -0.0257
   13CHL1   H4A  894   1.441   6.426   9.924 -0.4608  0.2318 -0.1969
   13CHL1   H4B  895   1.613   6.433   9.891 -1.1669 -0.1065  2.5874
   13CHL1    C5  896   1.489   6.392   9.716 -0.2799  0.1755 -0.2016
   13CHL1    C6  897   1.572   6.459   9.632 -0.4349  0.3289 -0.3150
   13CHL1    H6  898   1.662   6.513   9.667 -0.1406  0.3654 -1.1001
   13CHL1    C7  899   1.543   6.472   9.483  0.1417  0.2406  0.3347
   13CHL1   H7A  900   1.546   6.577   9.449  0.4092  0.0879 -0.1263
   13CHL1   H7B  901   1.611   6.408   9.422 -1.1805 -1.0171  0.1326
   13CHL1    C8  902   1.402   6.419   9.444 -0.2078  0.1299  0.7734
   13CHL1    H8  903   1.333   6.496   9.485  4.0763  3.9065  1.8036
   13CHL1   C14  904   1.387   6.412   9.294  0.5786 -0.3310  0.3487
   13CHL1   H14  905   1.464   6.336   9.269 -0.5593 -1.0954 -0.9838
   13CHL1   C15  906   1.431   6.538   9.209 -1.1098  0.6289  0.2206
   13CHL1  H15A  907   1.405   6.641   9.241 -0.1864  0.9012  0.1252
   13CHL1  H15B  908   1.542   6.544   9.199 -0.8994 -1.3108  0.9347
   13CHL1   C16  909   1.374   6.505   9.072 -0.3400  0.4048 -0.0636
   13CHL1  H16A  910   1.317   6.593   9.037  0.9137  1.0129 -0.6568
   13CHL1  H16B  911   1.458   6.477   9.003 -0.5500  0.2862 -0.2741
   13CHL1   C17  912   1.282   6.377   9.086 -0.6211 -0.0182 -0.1118
   13CHL1   H17  913   1.339   6.287   9.055 -1.6848  0.1307 -2.7590
   13CHL1   C13  914   1.257   6.364   9.239 -0.0391  0.1175 -0.0333
   13CHL1   C18  915   1.144   6.452   9.294  0.3556  0.0362 -0.1386
   13CHL1  H18A  916   1.134   6.438   9.404  3.8802 -1.5645  0.1115
   13CHL1  H18B  917   1.172   6.553   9.259 -0.7143  0.8035  1.1284
   13CHL1  H18C  918   1.047   6.428   9.246  0.4988 -0.7829 -0.0358
   13CHL1   C12  919   1.233   6.225   9.298 -0.1835  0.3829  1.0208
   13CHL1  H12A  920   1.134   6.184   9.269  0.4027 -1.1121  1.0341
   13CHL1  H12B  921   1.311   6.161   9.253  0.8315  1.0464  1.7821
   13CHL1   C11  922   1.240   6.219   9.454 -0.9992  0.1299 -0.2930
   13CHL1  H11A  923   1.143   6.258   9.491 -1.8134 -0.3633 -1.8070
   13CHL1  H11B  924   1.242   6.111   9.481  1.7448  0.6239  1.8793
   13CHL1    C9  925   1.365   6.287   9.507  0.3753  0.2772  0.6951
   13CHL1    H9  926   1.450   6.223   9.476 -0.7654 -0.4176 -1.1295
   13CHL1   C10  927   1.375   6.300   9.660  0.2362  0.0584 -0.3936
   13CHL1   C19  928   1.241   6.359   9.707  0.1141 -0.2802 -0.2706
   13CHL1  H19A  929   1.164   6.280   9.698 -0.7777  0.6279 -0.7796
   13CHL1  H19B  930   1.240   6.393   9.813 -1.6565  1.5559 -0.8270
   13CHL1  H19C  931   1.217   6.451   9.649  0.7276  0.5613  0.7671
   13CHL1    C1  932   1.398   6.159   9.722  0.1694 -0.1430 -0.3418
   13CHL1   H1A  933   1.301   6.111   9.700 -0.2054  1.1510 -1.5752
   13CHL1   H1B  934   1.480   6.102   9.672  0.4197 -1.1927  1.1756
   13CHL1    C2  935   1.426   6.155   9.877 -0.6029 -1.0061 -0.4441
   13CHL1   H2A  936   1.446   6.054   9.919  1.6733 -0.4383 -0.0670
   13CHL1   H2B  937   1.329   6.191   9.919 -1.5218 -0.4573 -2.8747
   13CHL1   C20  938   1.158   6.385   8.992  0.4458 -0.3995 -0.6891
   13CHL1   H20  939   1.084   6.458   9.034  2.5372  0.6893  1.3523
   13CHL1   C21  940   1.076   6.252   8.996  0.0434 -0.4780 -0.6499
   13CHL1  H21A  941   1.041   6.230   9.099 -0.5910  0.8702 -0.5568
   13CHL1  H21B  942   1.139   6.170   8.957  1.8803  0.2683  0.5816
   13CHL1  H21C  943   0.988   6.266   8.929 -1.4399  1.7488  1.5809
   13CHL1   C22  944   1.187   6.420   8.844  0.4168 -0.3535  0.2938
   13CHL1  H22A  945   1.086   6.439   8.802  0.4807 -3.3045 -1.4821
   13CHL1  H22B  946   1.257   6.507   8.842 -0.1967  0.1481 -0.1235
   13CHL1   C23  947   1.257   6.314   8.766 -0.0375 -0.4088 -0.3696
   13CHL1  H23A  948   1.348   6.277   8.819 -0.4206 -0.1357  0.5112
   13CHL1  H23B  949   1.190   6.226   8.753  0.2915 -0.4561 -1.9462
   13CHL1   C24  950   1.283   6.355   8.623  0.8642  0.0576  0.1632
   13CHL1  H24A  951   1.311   6.266   8.562 -1.0836 -0.2058 -0.4057
   13CHL1  H24B  952   1.194   6.398   8.573  0.5503  0.8631  1.3679
   13CHL1   C25  953   1.390   6.464   8.615 -0.2756  0.6832 -0.1789
   13CHL1   H25  954   1.357   6.556   8.668  0.9153  0.5528  0.8365
   13CHL1   C26  955   1.522   6.429   8.681  0.2941  0.2979  0.2451
   13CHL1  H26A  956   1.605   6.497   8.651 -1.4099  1.6162 -1.7585
   13CHL1  H26B  957   1.510   6.425   8.792  0.5880  1.8264  0.3573
   13CHL1  H26C  958   1.549   6.326   8.649 -1.4556 -0.1988  0.2511
   13CHL1   C27  959   1.423   6.491   8.464  0.5038  0.5274 -0.0218
   13CHL1  H27A  960   1.495   6.576   8.461  1.3955 -0.1889  0.5335
   13CHL1  H27B  961   1.475   6.405   8.417  0.0864  0.3685 -0.1996
   13CHL1  H27C  962   1.330   6.523   8.413 -0.8855 -0.8521  1.5439
   14CHL1    C3  963   5.772   4.495  10.386  0.7118  0.7429 -0.8447
   14CHL1    H3  964   5.720   4.409  10.337  0.3007  0.8014 -0.5242
   14CHL1    O3  965   5.764   4.479  10.531  0.6246 -0.2435 -0.0103
   14CHL1   H3'  966   5.743   4.565  10.566  0.8194 -0.6438  1.1246
   14CHL1    C4  967   5.924   4.497  10.363  0.4143  0.9486 -0.5376
   14CHL1   H4A  968   5.974   4.587  10.405 -0.7797  1.9494 -1.1831
   14CHL1   H4B  969   5.968   4.408  10.411  0.2507 -0.0019 -2.0684
   14CHL1    C5  970   5.946   4.504  10.205 -0.3397  0.4871 -0.1653
   14CHL1    C6  971   6.008   4.411  10.138  0.4064  0.5591  0.2941
   14CHL1    H6  972   6.049   4.332  10.204  1.7435  2.1976  1.5163
   14CHL1    C7  973   6.034   4.407   9.992 -0.0098  0.5422  0.2117
   14CHL1   H7A  974   6.131   4.363   9.960 -1.3588 -1.8165 -0.9191
   14CHL1   H7B  975   5.951   4.346   9.951 -0.7809  0.2925  2.0583
   14CHL1    C8  976   6.006   4.535   9.920 -0.3671 -0.4922 -0.0163
   14CHL1    H8  977   6.088   4.609   9.933 -1.1093  0.8503 -2.4293
   14CHL1   C14  978   5.985   4.523   9.767  0.0930  0.2145 -0.6293
   14CHL1   H14  979   5.888   4.469   9.754 -0.3143  1.4138 -3.3312
   14CHL1   C15  980   6.074   4.424   9.691  0.5199 -0.2965 -0.2291
   14CHL1  H15A  981   6.181   4.448   9.708  0.3653  0.0171  0.3475
   14CHL1  H15B  982   6.053   4.322   9.728 -1.3333  0.0370 -0.2321
   14CHL1   C16  983   6.038   4.456   9.543 -0.6275  0.0336 -0.5664
   14CHL1  H16A  984   6.137   4.467   9.493 -0.0065 -2.7380 -0.1292
   14CHL1  H16B  985   5.983   4.366   9.508  2.7301 -1.8214 -1.5402
   14CHL1   C17  986   5.946   4.576   9.539  0.8928  0.0595 -0.3494
   14CHL1   H17  987   5.841   4.542   9.532  0.2164  1.9282  0.2164
   14CHL1   C13  988   5.976   4.642   9.680  0.8840  0.3416  0.0323
   14CHL1   C18  989   6.108   4.728   9.684  0.2265  0.5717  1.0147
   14CHL1  H18A  990   6.091   4.811   9.612  0.2711  0.2160  0.5905
   14CHL1  H18B  991   6.114   4.771   9.786 -2.0797 -1.5669  2.1537
   14CHL1  H18C  992   6.200   4.678   9.647 -1.6511 -0.6824 -2.4767
   14CHL1   C12  993   5.857   4.730   9.738  1.0551 -0.1480 -0.3584
   14CHL1  H12A  994   5.845   4.837   9.709 -2.3249 -0.2478  0.2005
   14CHL1  H12B  995   5.761   4.676   9.719 -0.5642  1.8927  1.5247
   14CHL1   C11  996   5.869   4.742   9.896 -0.0237  0.7796  0.2570
   14CHL1  H11A  997   5.961   4.802   9.912  0.9524 -0.0181 -2.0152
   14CHL1  H11B  998   5.774   4.783   9.938 -1.4036 -2.1493  0.2554
   14CHL1    C9  999   5.886   4.607   9.971 -0.2286  0.1215 -0.0035
   14CHL1    H9 1000   5.797   4.550   9.935 -0.3948  0.6988 -0.5351
   14CHL1   C10 1001   5.884   4.621  10.133 -0.5415  0.3772  0.2685
   14CHL1   C19 1002   5.964   4.737  10.175  0.2517 -0.1718  0.1237
   14CHL1  H19A 1003   5.968   4.767  10.282  1.2094 -2.0761  0.6484
   14CHL1  H19B 1004   6.072   4.727  10.152  0.6197 -0.5094  1.8309
   14CHL1  H19C 1005   5.940   4.836  10.131  4.1431  2.9334  4.0081
   14CHL1    C1 1006   5.737   4.639  10.177 -0.1045 -0.3806 -0.1395
   14CHL1   H1A 1007   5.704   4.743  10.159 -1.8802  0.0332  4.3117
   14CHL1   H1B 1008   5.682   4.561  10.120  0.2681  0.5313 -1.8066
   14CHL1    C2 1009   5.714   4.625  10.332 -0.0235  0.6939  0.3961
   14CHL1   H2A 1010   5.610   4.645  10.368 -0.0538 -0.4663  0.9841
   14CHL1   H2B 1011   5.771   4.707  10.380 -0.8102  0.3206  2.0357
   14CHL1   C20 1012   5.943   4.665   9.414  0.1048 -0.2037 -0.6378
   14CHL1   H20 1013   6.044   4.711   9.404  0.0809  0.0007  0.0082
   14CHL1   C21 1014   5.830   4.775   9.424 -0.1574 -0.1205  0.0549
   14CHL1  H21A 1015   5.820   4.844   9.337  3.2523 -1.0722 -1.2623
   14CHL1  H21B 1016   5.855   4.851   9.502  0.7671  0.4639 -0.7883
   14CHL1  H21C 1017   5.731   4.731   9.445  0.0325 -0.4907  0.1904
   14CHL1   C22 1018   5.903   4.577   9.295  0.5412  0.3063  0.7955
   14CHL1  H22A 1019   5.970   4.488   9.287  0.4527  0.1244  1.9693
   14CHL1  H22B 1020   5.797   4.545   9.303  0.4550  0.1868 -0.6252
   14CHL1   C23 1021   5.935   4.643   9.163  0.0536  0.4264  0.1065
   14CHL1  H23A 1022   5.853   4.717   9.150  1.0207  1.6481  0.7194
   14CHL1  H23B 1023   6.033   4.694   9.166  0.5294 -0.4856  0.5011
   14CHL1   C24 1024   5.924   4.551   9.037  0.1620  0.1830  0.4895
   14CHL1  H24A 1025   5.982   4.462   9.071 -2.7975 -1.4113  1.8338
   14CHL1  H24B 1026   5.820   4.510   9.038  0.6005 -0.9882  2.1853
   14CHL1   C25 1027   5.978   4.619   8.911  0.2887 -0.1422  0.2750
   14CHL1   H25 1028   5.929   4.718   8.902 -1.2249 -1.0712 -2.8629
   14CHL1   C26 1029   6.134   4.642   8.923 -0.4463 -0.5631  0.1550
   14CHL1  H26A 1030   6.167   4.697   8.832 -0.6189  0.2495  0.5648
   14CHL1  H26B 1031   6.167   4.702   9.012  1.1896  0.7004 -1.2252
   14CHL1  H26C 1032   6.182   4.542   8.919  0.2778 -0.1774 -2.9621
   14CHL1   C27 1033   5.948   4.534   8.787 -0.6130  0.4911  0.2700
   14CHL1  H27A 1034   5.997   4.434   8.789 -1.6616 -0.0871 -1.5237
   14CHL1  H27B 1035   5.839   4.518   8.779 -0.7897  1.1131  1.2001
   14CHL1  H27C 1036   5.994   4.590   8.704 -0.2737 -0.4098 -0.1622
   15CHL1    C3 1037   4.571   0.406  10.165  0.2466  0.2101  0.4582
   15CHL1    H3 1038   4.470   0.361  10.149 -0.3599  1.5504  0.3901
   15CHL1    O3 1039   4.567   0.439  10.306 -0.6203 -0.6842  0.1825
   15CHL1   H3' 1040   4.648   0.489  10.320 -1.5251  1.3368 -1.2195
   15CHL1    C4 1041   4.692   0.320  10.141  0.9286  0.3889 -0.2490
   15CHL1   H4A 1042   4.776   0.384  10.173  0.7712  1.1649 -1.3329
   15CHL1   H4B 1043   4.689   0.235  10.212  1.2106 -0.9627 -1.7937
   15CHL1    C5 1044   4.704   0.272   9.999  0.1610 -0.1351  0.2494
   15CHL1    C6 1045   4.706   0.141   9.964  0.1084 -0.1406  0.3306
   15CHL1    H6 1046   4.704   0.061  10.040 -1.8621 -1.5656 -1.0981
   15CHL1    C7 1047   4.728   0.089   9.820  0.6706 -0.4441 -0.4898
   15CHL1   H7A 1048   4.803   0.006   9.816  0.4652 -0.7396  0.9001
   15CHL1   H7B 1049   4.631   0.057   9.776 -0.4529 -0.5190  1.8807
   15CHL1    C8 1050   4.765   0.206   9.727  0.4223  0.1518 -0.2241
   15CHL1    H8 1051   4.870   0.239   9.748  0.2845 -0.5595  1.7607
   15CHL1   C14 1052   4.732   0.156   9.578  0.1302  0.1746 -0.7929
   15CHL1   H14 1053   4.623   0.135   9.583 -0.0255  1.0797 -0.0539
   15CHL1   C15 1054   4.805   0.030   9.536 -0.6452  0.2245 -0.0681
   15CHL1  H15A 1055   4.913   0.029   9.559 -0.3039 -1.0385 -1.5314
   15CHL1  H15B 1056   4.752  -0.062   9.567 -2.9881  0.8477 -1.9069
   15CHL1   C16 1057   4.796   0.047   9.377 -0.0061 -0.0136 -0.3559
   15CHL1  H16A 1058   4.901   0.034   9.345  0.6381  0.9112  1.2822
   15CHL1  H16B 1059   4.739  -0.040   9.337 -0.2371 -0.3784  0.7362
   15CHL1   C17 1060   4.722   0.177   9.354 -0.5056 -1.1613 -0.4776
   15CHL1   H17 1061   4.613   0.157   9.358 -0.4762 -1.4846 -1.1673
   15CHL1   C13 1062   4.757   0.263   9.474  0.2798 -0.0543 -0.4896
   15CHL1   C18 1063   4.901   0.314   9.465 -0.1412  0.3709 -0.0680
   15CHL1  H18A 1064   4.924   0.389   9.386  2.4608 -0.2416  0.0226
   15CHL1  H18B 1065   4.923   0.374   9.555  1.3073 -1.0310  0.5566
   15CHL1  H18C 1066   4.977   0.233   9.462  0.3044  0.7846 -0.0621
   15CHL1   C12 1067   4.658   0.378   9.513 -0.6857 -0.1317 -0.2483
   15CHL1  H12A 1068   4.671   0.445   9.426  1.0231 -0.8110 -0.5619
   15CHL1  H12B 1069   4.561   0.325   9.522  0.8906 -3.2518  0.0079
   15CHL1   C11 1070   4.683   0.440   9.646  0.4110 -0.3055  0.0486
   15CHL1  H11A 1071   4.783   0.490   9.641  0.3332 -0.1868 -0.3641
   15CHL1  H11B 1072   4.603   0.514   9.665 -1.2100 -1.6229 -1.3040
   15CHL1    C9 1073   4.679   0.330   9.759 -0.0235  0.0276 -0.9248
   15CHL1    H9 1074   4.574   0.295   9.759 -0.3153  0.8764 -0.7212
   15CHL1   C10 1075   4.707   0.392   9.904 -0.1506 -0.7759 -0.0507
   15CHL1   C19 1076   4.846   0.465   9.908 -0.3508 -0.0006 -0.3121
   15CHL1  H19A 1077   4.852   0.566   9.862 -0.7360 -0.4143 -1.3030
   15CHL1  H19B 1078   4.882   0.468  10.013 -0.4420  0.9289 -0.3075
   15CHL1  H19C 1079   4.920   0.401   9.855 -1.1519 -0.1893 -1.2313
   15CHL1    C1 1080   4.597   0.507   9.935  0.1699  0.3206  0.6867
   15CHL1   H1A 1081   4.614   0.597   9.872  0.1762  0.0008  0.2319
   15CHL1   H1B 1082   4.498   0.468   9.904  0.2459 -0.9897  1.9799
   15CHL1    C2 1083   4.589   0.534  10.080  0.0580  0.4290  0.8463
   15CHL1   H2A 1084   4.504   0.600  10.106 -0.0813 -0.4642  2.8891
   15CHL1   H2B 1085   4.679   0.592  10.108  1.4718 -0.8166 -0.8969
   15CHL1   C20 1086   4.743   0.246   9.213  0.7472 -0.6365  0.0307
   15CHL1   H20 1087   4.725   0.354   9.232 -1.4486 -0.4259 -2.5496
   15CHL1   C21 1088   4.630   0.201   9.115  0.2520 -0.4643  0.9000
   15CHL1  H21A 1089   4.636   0.091   9.103  1.7002 -0.4274  1.0654
   15CHL1  H21B 1090   4.632   0.249   9.015  0.8835 -1.9105  0.1926
   15CHL1  H21C 1091   4.530   0.231   9.152  0.2393 -0.6703  1.0314
   15CHL1   C22 1092   4.883   0.223   9.149  0.3345  0.0383 -0.0864
   15CHL1  H22A 1093   4.961   0.239   9.227  0.0656  0.9425  0.0012
   15CHL1  H22B 1094   4.887   0.115   9.123  0.1286  0.3039 -1.2784
   15CHL1   C23 1095   4.903   0.310   9.026 -0.4911 -0.1616  0.1223
   15CHL1  H23A 1096   4.829   0.285   8.946  0.4989 -2.0473 -0.2460
   15CHL1  H23B 1097   4.898   0.416   9.059  2.0233 -0.3712  1.3663
   15CHL1   C24 1098   5.046   0.291   8.965  0.0914 -0.1088  0.5708
   15CHL1  H24A 1099   5.122   0.332   9.034 -0.4394 -0.4518  1.3764
   15CHL1  H24B 1100   5.066   0.183   8.951  2.0231  0.1876  0.8382
   15CHL1   C25 1101   5.068   0.376   8.840 -0.0064  0.0004  0.6371
   15CHL1   H25 1102   4.996   0.361   8.757 -0.3491  4.1737 -0.0538
   15CHL1   C26 1103   5.055   0.526   8.867 -0.3767 -0.4889  0.0986
   15CHL1  H26A 1104   5.102   0.562   8.961 -0.1511  0.0339 -0.2056
   15CHL1  H26B 1105   5.098   0.593   8.789 -0.4878  1.1847  1.4060
   15CHL1  H26C 1106   4.947   0.546   8.882 -0.1771  0.3712  0.4910
   15CHL1   C27 1107   5.213   0.358   8.794  0.1962  0.2742 -0.6245
   15CHL1  H27A 1108   5.271   0.359   8.889 -2.6333  0.4959  1.2472
   15CHL1  H27B 1109   5.230   0.262   8.741  0.0816 -0.6511  0.9407
   15CHL1  H27C 1110   5.254   0.446   8.741  0.7788  0.1283 -0.4287
   16CHL1    C3 1111   0.849   0.978  10.208  0.0060 -0.5304  0.6888
   16CHL1    H3 1112   0.750   1.019  10.233 -0.3531 -0.5060 -0.6628
   16CHL1    O3 1113   0.885   0.896  10.310 -0.6725 -0.0416  0.1630
   16CHL1   H3' 1114   0.963   0.854  10.273 -1.3660 -0.4118 -0.9206
   16CHL1    C4 1115   0.850   0.895  10.079  0.6555 -0.2091 -0.5513
   16CHL1   H4A 1116   0.955   0.862  10.060  0.5223 -0.5838 -0.6473
   16CHL1   H4B 1117   0.783   0.808  10.099 -1.8382  1.2204 -2.2681
   16CHL1    C5 1118   0.826   0.968   9.950 -0.1631  0.1082 -0.1131
   16CHL1    C6 1119   0.726   0.946   9.864  0.4389  0.8334  0.4916
   16CHL1    H6 1120   0.654   0.868   9.894 -1.1041  2.5265  1.3200
   16CHL1    C7 1121   0.695   1.027   9.742  0.2262 -0.5089 -0.1371
   16CHL1   H7A 1122   0.668   0.963   9.656  0.6132 -1.8697  0.7171
   16CHL1   H7B 1123   0.601   1.083   9.760 -0.5990 -2.6753  3.2116
   16CHL1    C8 1124   0.815   1.103   9.695  0.0393 -0.1109 -0.6203
   16CHL1    H8 1125   0.904   1.047   9.657 -0.4019 -0.6752 -0.8279
   16CHL1   C14 1126   0.769   1.189   9.579 -0.3168 -0.0335 -0.0241
   16CHL1   H14 1127   0.693   1.260   9.620 -0.8711 -0.8254  0.3357
   16CHL1   C15 1128   0.704   1.124   9.462  0.0331  1.0100 -0.0351
   16CHL1  H15A 1129   0.767   1.035   9.440 -0.5506  0.3701  0.8171
   16CHL1  H15B 1130   0.601   1.089   9.482  0.2374  0.2728 -0.2529
   16CHL1   C16 1131   0.715   1.233   9.356 -0.0443  0.5908  0.0972
   16CHL1  H16A 1132   0.770   1.189   9.270  0.7910  0.8344  0.4879
   16CHL1  H16B 1133   0.615   1.263   9.319  0.6275  1.9964 -0.6895
   16CHL1   C17 1134   0.789   1.358   9.415  0.0441  0.3931 -0.3245
   16CHL1   H17 1135   0.708   1.422   9.455  0.9649  0.9909  0.6384
   16CHL1   C13 1136   0.875   1.289   9.525  0.6956  0.1849  0.0065
   16CHL1   C18 1137   0.999   1.213   9.455  0.2544 -0.4152  0.5001
   16CHL1  H18A 1138   0.974   1.153   9.365 -1.7661 -1.7249  1.8355
   16CHL1  H18B 1139   1.066   1.296   9.425 -2.8990  1.5685 -1.7192
   16CHL1  H18C 1140   1.043   1.142   9.528 -1.6406 -2.3171 -0.1180
   16CHL1   C12 1141   0.918   1.381   9.642  0.6977 -0.6857 -0.2825
   16CHL1  H12A 1142   1.003   1.446   9.611  0.2098  0.6368  1.0143
   16CHL1  H12B 1143   0.834   1.442   9.681 -0.0041 -1.9405  0.2049
   16CHL1   C11 1144   0.975   1.294   9.759  0.0822  0.0054 -0.2573
   16CHL1  H11A 1145   1.060   1.244   9.708 -1.3349 -2.5611 -0.2702
   16CHL1  H11B 1146   1.017   1.348   9.847  0.8400 -2.8153  1.2459
   16CHL1    C9 1147   0.874   1.184   9.811  0.1073 -0.3299 -0.2093
   16CHL1    H9 1148   0.788   1.235   9.860 -0.5165 -0.8654 -0.7255
   16CHL1   C10 1149   0.928   1.088   9.931  0.1343 -0.0616  0.5117
   16CHL1   C19 1150   1.072   1.040   9.902 -0.0988 -0.7570  0.6359
   16CHL1  H19A 1151   1.112   0.979   9.986  1.9236 -0.7532 -0.2786
   16CHL1  H19B 1152   1.055   0.982   9.809  1.1314 -1.2985  0.7390
   16CHL1  H19C 1153   1.138   1.127   9.881  1.2658 -2.3373 -2.1666
   16CHL1    C1 1154   0.940   1.174  10.058  0.5944 -0.0854  0.4880
   16CHL1   H1A 1155   1.025   1.244  10.048 -2.7779  4.0955 -2.1598
   16CHL1   H1B 1156   0.845   1.230  10.063  0.3379 -0.5268  0.7186
   16CHL1    C2 1157   0.951   1.101  10.191 -0.3852 -0.0689 -0.0409
   16CHL1   H2A 1158   0.929   1.163  10.281  2.2637 -1.1280  1.4520
   16CHL1   H2B 1159   1.057   1.070  10.208 -0.0071  1.4221  0.4423
   16CHL1   C20 1160   0.855   1.441   9.304 -0.8591  0.6064  0.3301
   16CHL1   H20 1161   0.942   1.385   9.263  0.8662  2.9290  0.5689
   16CHL1   C21 1162   0.914   1.574   9.368  0.1873  0.0853  0.4041
   16CHL1  H21A 1163   0.843   1.619   9.440  0.1997  0.3270  0.2665
   16CHL1  H21B 1164   0.947   1.656   9.302  0.4137  0.1981  0.6569
   16CHL1  H21C 1165   1.002   1.547   9.431  0.4636  0.7529  0.3087
   16CHL1   C22 1166   0.769   1.468   9.176  0.2496 -0.4085 -0.4311
   16CHL1  H22A 1167   0.698   1.390   9.141  0.5686 -0.0359 -1.9789
   16CHL1  H22B 1168   0.695   1.546   9.203  1.0164  0.4793 -0.8473
   16CHL1   C23 1169   0.854   1.513   9.060 -0.1414  0.1957  0.0330
   16CHL1  H23A 1170   0.797   1.553   8.973  1.8724 -0.4341 -1.6621
   16CHL1  H23B 1171   0.929   1.585   9.100 -0.5051 -0.3070  1.6779
   16CHL1   C24 1172   0.938   1.397   9.001  0.3217  0.7498  0.6673
   16CHL1  H24A 1173   0.983   1.442   8.910  0.4722 -0.7309 -0.0293
   16CHL1  H24B 1174   1.025   1.373   9.067  0.6165  1.0190  0.3821
   16CHL1   C25 1175   0.852   1.268   8.961  0.0512  0.0788  0.2475
   16CHL1   H25 1176   0.785   1.232   9.043 -0.7753 -0.3609 -0.6065
   16CHL1   C26 1177   0.752   1.284   8.850 -0.3362 -0.8236  0.2270
   16CHL1  H26A 1178   0.794   1.285   8.747 -2.8372 -0.1640 -0.8539
   16CHL1  H26B 1179   0.682   1.198   8.841  0.5883 -1.4034 -2.6238
   16CHL1  H26C 1180   0.695   1.376   8.874  0.3017 -0.5244  0.6263
   16CHL1   C27 1181   0.950   1.152   8.932  0.1896 -0.0067  0.0848
   16CHL1  H27A 1182   0.908   1.057   8.893  1.8385 -0.8960  0.3869
   16CHL1  H27B 1183   1.020   1.185   8.852  0.0523 -1.6049 -0.7323
   16CHL1  H27C 1184   1.013   1.136   9.022  1.7111  3.4249 -0.1972
   17CHL1    C3 1185   4.219   0.071  10.452  0.4531  0.7780 -0.4366
   17CHL1    H3 1186   4.315   0.127  10.444  1.2348 -0.7362 -2.8136
   17CHL1    O3 1187   4.163   0.095  10.582 -0.0822 -0.1538  0.3089
   17CHL1   H3' 1188   4.082   0.045  10.596 -1.1057  1.6199  1.0804
   17CHL1    C4 1189   4.128   0.128  10.349  0.5339 -0.1500  0.9278
   17CHL1   H4A 1190   4.029   0.081  10.367  0.3652  0.0346  0.4935
   17CHL1   H4B 1191   4.128   0.238  10.361  0.7207 -0.3244  2.7044
   17CHL1    C5 1192   4.173   0.097  10.206 -0.1770 -0.0791  0.3680
   17CHL1    C6 1193   4.198   0.197  10.117 -1.4635  0.2820 -0.4566
   17CHL1    H6 1194   4.183   0.299  10.154 -2.3794 -0.1146  0.3176
   17CHL1    C7 1195   4.249   0.190   9.977  0.0771  0.2064  0.4677
   17CHL1   H7A 1196   4.188   0.259   9.916  1.3191 -0.7553 -2.0024
   17CHL1   H7B 1197   4.356   0.217   9.972  0.0883  0.0135 -0.5195
   17CHL1    C8 1198   4.235   0.044   9.929  0.1626  0.1636 -0.5425
   17CHL1    H8 1199   4.126   0.029   9.911 -0.2007  1.5623  0.3302
   17CHL1   C14 1200   4.307   0.015   9.798 -0.0377 -0.4332 -0.2692
   17CHL1   H14 1201   4.413   0.031   9.825 -0.5302 -0.5762  1.9111
   17CHL1   C15 1202   4.267   0.101   9.681  0.0482 -0.7729 -0.2693
   17CHL1  H15A 1203   4.158   0.125   9.677 -0.1418 -1.5830 -0.1706
   17CHL1  H15B 1204   4.317   0.200   9.676  0.4795 -1.0481 -2.5539
   17CHL1   C16 1205   4.317   0.025   9.559  0.6605  0.5906 -0.2455
   17CHL1  H16A 1206   4.229  -0.003   9.498  0.6955 -0.3231  0.1174
   17CHL1  H16B 1207   4.389   0.094   9.509 -1.1923  0.8867 -2.7163
   17CHL1   C17 1208   4.375  -0.114   9.615 -0.0126  0.3401  0.0229
   17CHL1   H17 1209   4.482  -0.100   9.642  0.3011 -3.0500  0.9595
   17CHL1   C13 1210   4.294  -0.127   9.751 -0.1263 -0.4064 -0.3809
   17CHL1   C18 1211   4.152  -0.169   9.717  0.6470  0.1842  0.5704
   17CHL1  H18A 1212   4.089  -0.162   9.808 -0.0264 -0.7712  0.1923
   17CHL1  H18B 1213   4.099  -0.110   9.639 -0.8133 -3.5280 -1.5083
   17CHL1  H18C 1214   4.150  -0.275   9.684 -1.2283  1.2577 -3.4606
   17CHL1   C12 1215   4.368  -0.216   9.858  0.3868 -0.2033  0.0429
   17CHL1  H12A 1216   4.357  -0.321   9.823  0.9738 -0.1893 -0.2010
   17CHL1  H12B 1217   4.477  -0.196   9.849  0.8181 -2.6743 -0.9588
   17CHL1   C11 1218   4.301  -0.205   9.991 -0.3309  0.5667  0.0423
   17CHL1  H11A 1219   4.195  -0.238   9.982 -1.0660  1.9487  2.5465
   17CHL1  H11B 1220   4.355  -0.272  10.061  0.9838  0.8713 -0.6471
   17CHL1    C9 1221   4.287  -0.061  10.039 -0.1889  0.0725  0.2278
   17CHL1    H9 1222   4.390  -0.024  10.057 -0.5071  0.7253  0.7614
   17CHL1   C10 1223   4.204  -0.049  10.176  0.2590  0.1340 -0.0436
   17CHL1   C19 1224   4.067  -0.122  10.168  0.3413  0.6302  0.8096
   17CHL1  H19A 1225   4.072  -0.232  10.161 -4.4153  0.3032 -2.7230
   17CHL1  H19B 1226   4.001  -0.104  10.256 -1.7879 -0.8610 -0.3899
   17CHL1  H19C 1227   3.996  -0.094  10.086 -3.0174 -1.1526  2.8695
   17CHL1    C1 1228   4.305  -0.087  10.288  0.6367 -0.5000  0.4340
   17CHL1   H1A 1229   4.333  -0.193  10.272 -0.3177 -0.5162 -1.2901
   17CHL1   H1B 1230   4.393  -0.019  10.292  0.7626 -0.6728  0.6504
   17CHL1    C2 1231   4.243  -0.075  10.430 -0.3168 -0.6941 -0.2789
   17CHL1   H2A 1232   4.326  -0.113  10.493  0.3642  0.9333 -0.1299
   17CHL1   H2B 1233   4.150  -0.131  10.453 -0.6208  0.2907  1.0288
   17CHL1   C20 1234   4.357  -0.217   9.500 -1.3342 -0.2374 -0.7131
   17CHL1   H20 1235   4.252  -0.241   9.473 -0.9165 -1.6103 -1.2417
   17CHL1   C21 1236   4.414  -0.349   9.542  0.5444 -0.0110  0.1488
   17CHL1  H21A 1237   4.362  -0.382   9.635 -0.6888 -0.5537 -0.7081
   17CHL1  H21B 1238   4.521  -0.333   9.564  0.5057  0.2945  0.1143
   17CHL1  H21C 1239   4.394  -0.424   9.463  1.0047  0.2748 -0.2380
   17CHL1   C22 1240   4.423  -0.173   9.370 -0.3078 -0.4861  0.6787
   17CHL1  H22A 1241   4.370  -0.080   9.340 -2.0154 -1.5385  0.3705
   17CHL1  H22B 1242   4.528  -0.140   9.391 -0.8639  2.6391 -0.8166
   17CHL1   C23 1243   4.419  -0.266   9.250  0.3920 -0.0564  0.6497
   17CHL1  H23A 1244   4.491  -0.348   9.275 -0.7471 -0.5262  2.5711
   17CHL1  H23B 1245   4.315  -0.302   9.236 -0.3800  2.4880 -0.8824
   17CHL1   C24 1246   4.456  -0.205   9.117  0.3881  0.6850 -0.0244
   17CHL1  H24A 1247   4.393  -0.114   9.104 -1.8829 -0.5503  1.5656
   17CHL1  H24B 1248   4.562  -0.173   9.116  0.4750  0.3827 -0.2699
   17CHL1   C25 1249   4.441  -0.312   9.001 -0.2808  0.5931 -0.1319
   17CHL1   H25 1250   4.466  -0.413   9.040 -0.2211  0.9573  0.7973
   17CHL1   C26 1251   4.290  -0.323   8.964 -0.0954 -0.3319  0.0835
   17CHL1  H26A 1252   4.242  -0.224   8.952  2.2786  0.9656  0.6010
   17CHL1  H26B 1253   4.293  -0.380   8.869 -1.4540 -0.8339  0.3264
   17CHL1  H26C 1254   4.230  -0.376   9.041 -2.0261  0.5733 -0.7530
   17CHL1   C27 1255   4.524  -0.260   8.880 -0.3304  0.1431  0.0119
   17CHL1  H27A 1256   4.474  -0.178   8.824  0.9775 -2.0832 -4.8779
   17CHL1  H27B 1257   4.624  -0.221   8.906 -0.7961  1.0845  0.4453
   17CHL1  H27C 1258   4.539  -0.345   8.811  1.6584 -0.1289  0.7397
   18CHL1    C3 1259   2.718   4.696  10.135 -0.7514  0.1858  0.2172
   18CHL1    H3 1260   2.772   4.607  10.098 -0.4054  0.3836  0.2445
   18CHL1    O3 1261   2.745   4.720  10.272 -0.3677  0.2727 -0.4101
   18CHL1   H3' 1262   2.686   4.790  10.301 -0.1542  0.6208 -0.8130
   18CHL1    C4 1263   2.757   4.818  10.047  0.2527  0.1641  0.2280
   18CHL1   H4A 1264   2.697   4.905  10.081 -0.2936 -0.4787  0.9354
   18CHL1   H4B 1265   2.863   4.845  10.064  0.5671  0.1940 -1.5505
   18CHL1    C5 1266   2.735   4.793   9.901 -0.0293  0.5163 -0.0125
   18CHL1    C6 1267   2.836   4.793   9.809  0.5957  0.5627  0.8580
   18CHL1    H6 1268   2.937   4.814   9.848  0.2531  1.5618  1.2556
   18CHL1    C7 1269   2.819   4.769   9.663 -0.0496 -0.5466  0.3195
   18CHL1   H7A 1270   2.890   4.841   9.616  0.7206  0.0887  2.3537
   18CHL1   H7B 1271   2.866   4.674   9.627  0.7923  0.7205 -2.1387
   18CHL1    C8 1272   2.680   4.782   9.614 -0.1680  0.3625 -0.2635
   18CHL1    H8 1273   2.657   4.891   9.614 -0.9148  0.2209  0.4078
   18CHL1   C14 1274   2.671   4.719   9.475 -0.4945  0.6094  0.0740
   18CHL1   H14 1275   2.705   4.615   9.494  1.7278  1.4988  1.3654
   18CHL1   C15 1276   2.779   4.765   9.371 -0.5861  0.0071 -0.1383
   18CHL1  H15A 1277   2.803   4.872   9.388  2.7137 -0.7515  0.8551
   18CHL1  H15B 1278   2.872   4.705   9.382 -0.9418 -0.4435  0.4951
   18CHL1   C16 1279   2.713   4.738   9.238 -0.0057 -0.1926 -0.3234
   18CHL1  H16A 1280   2.713   4.833   9.181  1.7184 -0.2685 -0.4942
   18CHL1  H16B 1281   2.787   4.681   9.177  1.7980  0.1219  1.4683
   18CHL1   C17 1282   2.575   4.675   9.263  0.1864 -0.1736  0.5797
   18CHL1   H17 1283   2.587   4.567   9.284  0.6281  0.0811  1.7047
   18CHL1   C13 1284   2.534   4.725   9.405 -0.5119 -0.2083  0.5135
   18CHL1   C18 1285   2.473   4.867   9.393  0.0819 -0.8924 -0.3265
   18CHL1  H18A 1286   2.416   4.904   9.480 -3.2334 -0.3421 -2.5589
   18CHL1  H18B 1287   2.538   4.943   9.345  1.6435 -3.8344 -3.2968
   18CHL1  H18C 1288   2.394   4.854   9.316 -0.2287 -1.5895  0.0991
   18CHL1   C12 1289   2.448   4.631   9.498 -0.4330  0.6199  0.0042
   18CHL1  H12A 1290   2.345   4.606   9.462  0.2688 -0.4938 -1.3390
   18CHL1  H12B 1291   2.499   4.532   9.500 -0.6833  0.5022  0.6655
   18CHL1   C11 1292   2.453   4.686   9.643  0.0612  0.0146 -0.1883
   18CHL1  H11A 1293   2.396   4.781   9.648 -2.3356 -1.2916 -0.8672
   18CHL1  H11B 1294   2.397   4.615   9.708 -1.5551  1.1585 -0.2620
   18CHL1    C9 1295   2.590   4.700   9.710 -0.6141  0.3302  0.4810
   18CHL1    H9 1296   2.641   4.602   9.706  0.5104  0.9280 -0.7390
   18CHL1   C10 1297   2.590   4.749   9.858 -0.5841 -0.7869  0.1164
   18CHL1   C19 1298   2.509   4.879   9.875  0.5980 -0.4213 -0.1910
   18CHL1  H19A 1299   2.546   4.949   9.797  0.3675  0.1559  0.2087
   18CHL1  H19B 1300   2.401   4.869   9.853  0.4254  2.6926 -1.1721
   18CHL1  H19C 1301   2.519   4.927   9.974  1.0799 -1.1045  0.0984
   18CHL1    C1 1302   2.535   4.641   9.948 -0.2838  0.7440 -0.3322
   18CHL1   H1A 1303   2.425   4.635   9.941 -0.4503  0.1057  1.9051
   18CHL1   H1B 1304   2.573   4.540   9.922 -1.9919  0.0172 -0.1134
   18CHL1    C2 1305   2.567   4.658  10.102 -0.2195  0.2233  0.0516
   18CHL1   H2A 1306   2.542   4.562  10.154 -0.2436 -0.3032 -0.9116
   18CHL1   H2B 1307   2.500   4.738  10.140  2.2177  2.3039  0.2434
   18CHL1   C20 1308   2.472   4.693   9.142  0.3956 -0.0962  0.3330
   18CHL1   H20 1309   2.444   4.799   9.127  3.8444  0.7500 -1.0536
   18CHL1   C21 1310   2.341   4.617   9.170  0.2078  0.0623 -0.1592
   18CHL1  H21A 1311   2.351   4.509   9.195 -2.0894 -0.4160 -1.0222
   18CHL1  H21B 1312   2.278   4.631   9.080 -2.2635 -1.7593  1.1505
   18CHL1  H21C 1313   2.289   4.654   9.261 -1.6384 -0.4157 -0.9734
   18CHL1   C22 1314   2.517   4.645   9.001  0.5690  0.7015 -0.0234
   18CHL1  H22A 1315   2.431   4.655   8.931  0.7930 -1.5833 -0.7234
   18CHL1  H22B 1316   2.603   4.711   8.977  0.1498  1.9173  1.6621
   18CHL1   C23 1317   2.542   4.488   8.994  0.4864  0.5682  0.2847
   18CHL1  H23A 1318   2.622   4.474   9.070  0.0223 -1.3472  0.4613
   18CHL1  H23B 1319   2.460   4.417   9.016  0.6485  0.2430 -0.1557
   18CHL1   C24 1320   2.576   4.447   8.850  0.2698 -0.2282 -0.2922
   18CHL1  H24A 1321   2.492   4.478   8.784  0.5935  0.7710 -0.2439
   18CHL1  H24B 1322   2.663   4.506   8.815 -1.0128  2.8689  1.2898
   18CHL1   C25 1323   2.580   4.292   8.832 -0.9433  0.3830  0.1484
   18CHL1   H25 1324   2.614   4.241   8.925  0.3528 -2.3947 -1.6948
   18CHL1   C26 1325   2.444   4.230   8.788 -0.5818  0.0255 -0.3011
   18CHL1  H26A 1326   2.455   4.120   8.792  0.2222  0.1374  2.0535
   18CHL1  H26B 1327   2.364   4.256   8.859 -1.2511 -1.6986 -0.3820
   18CHL1  H26C 1328   2.417   4.263   8.685 -0.4560  0.0010 -0.3434
   18CHL1   C27 1329   2.676   4.269   8.722  0.4686 -0.6243  1.0418
   18CHL1  H27A 1330   2.625   4.280   8.624 -0.9056 -2.7333  1.4625
   18CHL1  H27B 1331   2.765   4.335   8.737 -0.1383  0.6886 -0.7823
   18CHL1  H27C 1332   2.712   4.165   8.740  3.0184  0.4086  2.4279
   19CHL1    C3 1333   5.973   1.480  10.329 -0.4834 -0.2160  0.4111
   19CHL1    H3 1334   6.007   1.387  10.280 -0.7287  0.2401 -0.6561
   19CHL1    O3 1335   6.008   1.470  10.469  0.0334  0.0248  0.0867
   19CHL1   H3' 1336   6.093   1.426  10.466 -0.9412 -2.0677  1.3222
   19CHL1    C4 1337   6.049   1.605  10.274  1.1069  0.5156 -0.5033
   19CHL1   H4A 1338   6.024   1.682  10.350 -0.3691  0.7232 -1.1711
   19CHL1   H4B 1339   6.157   1.585  10.289  0.5567 -1.6561  1.1109
   19CHL1    C5 1340   6.004   1.634  10.132  0.4689 -0.6540  0.5575
   19CHL1    C6 1341   6.092   1.627  10.028  0.1242 -0.3260 -0.3776
   19CHL1    H6 1342   6.195   1.601  10.053  0.0618 -1.1446 -0.8955
   19CHL1    C7 1343   6.065   1.649   9.881  0.5125  0.4076  0.1585
   19CHL1   H7A 1344   6.131   1.728   9.841 -2.5298  1.7228 -2.7128
   19CHL1   H7B 1345   6.081   1.551   9.831 -0.2123  0.3805 -0.0321
   19CHL1    C8 1346   5.918   1.702   9.861  0.4251 -0.1654  0.2223
   19CHL1    H8 1347   5.913   1.809   9.889 -0.7952 -0.7299  2.3873
   19CHL1   C14 1348   5.876   1.680   9.720 -0.5026 -0.0904 -0.6134
   19CHL1   H14 1349   5.875   1.569   9.713  0.8478 -0.2165  0.7563
   19CHL1   C15 1350   5.976   1.718   9.606  0.2534 -0.1856  0.4696
   19CHL1  H15A 1351   6.025   1.816   9.627  1.8625 -0.6660 -0.7904
   19CHL1  H15B 1352   6.057   1.642   9.595  0.6512  0.3257 -0.2322
   19CHL1   C16 1353   5.891   1.738   9.478 -0.7488 -0.0226  0.0944
   19CHL1  H16A 1354   5.893   1.844   9.446  0.7639 -0.4619 -1.3809
   19CHL1  H16B 1355   5.935   1.676   9.397  0.8534  0.3765  0.6253
   19CHL1   C17 1356   5.749   1.703   9.515  0.2943  0.3817 -0.2865
   19CHL1   H17 1357   5.749   1.592   9.515  0.5397  0.3769 -0.9533
   19CHL1   C13 1358   5.743   1.732   9.675 -0.1002 -0.6666 -0.4365
   19CHL1   C18 1359   5.721   1.882   9.693  0.0683  0.6934 -0.6045
   19CHL1  H18A 1360   5.616   1.917   9.689 -0.7954 -1.2242  2.2331
   19CHL1  H18B 1361   5.760   1.919   9.791  0.5638  1.7910 -1.1914
   19CHL1  H18C 1362   5.788   1.939   9.624 -1.8454  1.9141 -1.5311
   19CHL1   C12 1363   5.639   1.664   9.763  0.6980 -0.4288  0.1476
   19CHL1  H12A 1364   5.535   1.699   9.750  0.5927  0.0034  1.8676
   19CHL1  H12B 1365   5.638   1.556   9.737  1.8730 -0.0397 -1.7332
   19CHL1   C11 1366   5.663   1.672   9.914  0.9276  0.5093 -0.6684
   19CHL1  H11A 1367   5.638   1.774   9.948 -0.3214 -0.4112  1.3817
   19CHL1  H11B 1368   5.601   1.603   9.975  1.3792 -0.4412 -1.2420
   19CHL1    C9 1369   5.813   1.631   9.957 -0.1672  0.4116  0.8341
   19CHL1    H9 1370   5.814   1.524   9.927 -0.0219  0.1459  1.7613
   19CHL1   C10 1371   5.847   1.651  10.101 -0.7115  0.4478  0.9150
   19CHL1   C19 1372   5.793   1.787  10.147  0.2320  0.3960  0.2983
   19CHL1  H19A 1373   5.686   1.778  10.174  0.7678 -1.0439  2.1308
   19CHL1  H19B 1374   5.845   1.812  10.242  1.3037  1.6876 -0.5831
   19CHL1  H19C 1375   5.814   1.876  10.084 -0.5987  1.0552  0.9337
   19CHL1    C1 1376   5.779   1.538  10.178 -0.7625  0.2624  0.6072
   19CHL1   H1A 1377   5.671   1.561  10.171 -0.6552  1.2425  1.8447
   19CHL1   H1B 1378   5.795   1.445  10.119 -0.1949 -0.4643  1.8732
   19CHL1    C2 1379   5.827   1.510  10.325 -0.3079 -0.2390 -1.0566
   19CHL1   H2A 1380   5.770   1.432  10.380  0.7567 -0.9521 -0.9299
   19CHL1   H2B 1381   5.817   1.602  10.387 -0.5234  1.1212 -3.0353
   19CHL1   C20 1382   5.638   1.766   9.430 -0.0782 -0.2000  0.0646
   19CHL1   H20 1383   5.643   1.876   9.445 -0.1466 -0.3330  1.1180
   19CHL1   C21 1384   5.493   1.719   9.472 -0.5538  0.4829 -0.1805
   19CHL1  H21A 1385   5.475   1.610   9.461  1.4523  0.1018 -0.0051
   19CHL1  H21B 1386   5.423   1.764   9.399  0.8095  1.1801 -1.0970
   19CHL1  H21C 1387   5.452   1.761   9.566 -2.0454  2.0032 -1.4376
   19CHL1   C22 1388   5.664   1.744   9.283 -0.5266  0.6183  0.3127
   19CHL1  H22A 1389   5.583   1.800   9.232 -0.7022  2.2067  2.2236
   19CHL1  H22B 1390   5.757   1.797   9.255 -0.2207  0.8273  1.6848
   19CHL1   C23 1391   5.672   1.594   9.233  0.5551 -0.3511  0.4514
   19CHL1  H23A 1392   5.753   1.539   9.286  0.9941  1.8181  2.2084
   19CHL1  H23B 1393   5.585   1.547   9.284  0.7116  0.5734  1.6155
   19CHL1   C24 1394   5.681   1.569   9.079  0.4988  0.1029 -0.3687
   19CHL1  H24A 1395   5.609   1.640   9.033  0.4847  0.0640 -0.4082
   19CHL1  H24B 1396   5.781   1.600   9.042  0.5818  1.5276  0.9506
   19CHL1   C25 1397   5.644   1.423   9.046  1.3661 -0.0729  0.5334
   19CHL1   H25 1398   5.535   1.409   9.060  0.8884  2.8604  0.4022
   19CHL1   C26 1399   5.661   1.386   8.897  0.3806  0.2459 -0.2911
   19CHL1  H26A 1400   5.768   1.363   8.879 -0.1332 -1.9299 -0.8577
   19CHL1  H26B 1401   5.610   1.290   8.876 -1.4708  1.6951 -3.0223
   19CHL1  H26C 1402   5.631   1.463   8.822 -1.5267 -0.4895 -0.3533
   19CHL1   C27 1403   5.719   1.312   9.135  0.0540  0.1497 -0.5288
   19CHL1  H27A 1404   5.691   1.319   9.242 -1.6117 -0.3306 -0.8979
   19CHL1  H27B 1405   5.688   1.212   9.096 -2.3088  1.2106 -1.6216
   19CHL1  H27C 1406   5.829   1.308   9.125  0.1150 -0.9470  0.3125
   20CHL1    C3 1407   1.242   2.039  10.250  0.5741 -0.2287 -0.3201
   20CHL1    H3 1408   1.271   1.940  10.209  1.6102 -0.9072  1.8748
   20CHL1    O3 1409   1.189   2.033  10.384  0.5986 -0.1427 -0.7752
   20CHL1   H3' 1410   1.200   2.121  10.421 -2.3713  0.5196 -1.2559
   20CHL1    C4 1411   1.370   2.120  10.254 -0.6407 -0.9109  0.7685
   20CHL1   H4A 1412   1.357   2.213  10.313  0.6075 -0.8133  0.9323
   20CHL1   H4B 1413   1.450   2.056  10.297  0.9448  0.8773  0.6185
   20CHL1    C5 1414   1.426   2.174  10.122 -0.1651 -0.2372  0.3402
   20CHL1    C6 1415   1.550   2.151  10.082 -0.3241  0.1169  0.1708
   20CHL1    H6 1416   1.616   2.091  10.146  0.3414 -1.4234 -1.8541
   20CHL1    C7 1417   1.601   2.191   9.948  0.7846 -0.3846 -0.3144
   20CHL1   H7A 1418   1.705   2.229   9.955 -0.5505  3.6633  0.0327
   20CHL1   H7B 1419   1.600   2.105   9.877 -1.3022  1.2928 -2.4944
   20CHL1    C8 1420   1.520   2.292   9.863  0.0446  0.0931  0.0447
   20CHL1    H8 1421   1.540   2.393   9.906  0.0880 -0.5172  1.5255
   20CHL1   C14 1422   1.557   2.292   9.717 -0.1592  0.3249  0.1657
   20CHL1   H14 1423   1.524   2.189   9.695 -0.9371  0.3749  1.0140
   20CHL1   C15 1424   1.711   2.301   9.675  0.3133 -0.1041  0.6225
   20CHL1  H15A 1425   1.770   2.369   9.740  0.1524  0.6809 -0.0362
   20CHL1  H15B 1426   1.757   2.202   9.698  1.5736  0.2581 -0.2290
   20CHL1   C16 1427   1.696   2.314   9.518  0.3790 -0.0586 -0.6015
   20CHL1  H16A 1428   1.755   2.401   9.482 -0.6278  0.3929 -1.2037
   20CHL1  H16B 1429   1.721   2.231   9.448 -0.7467  0.0393 -1.1382
   20CHL1   C17 1430   1.547   2.346   9.493 -0.0914 -0.4038  0.3675
   20CHL1   H17 1431   1.504   2.246   9.472  0.3325 -0.1961 -1.7945
   20CHL1   C13 1432   1.489   2.391   9.627  0.7504 -0.3775 -0.1614
   20CHL1   C18 1433   1.528   2.533   9.667  0.3507 -1.2940  0.6631
   20CHL1  H18A 1434   1.636   2.551   9.646  0.0306 -0.2486 -0.1895
   20CHL1  H18B 1435   1.478   2.603   9.597  0.8331 -1.4396  0.1643
   20CHL1  H18C 1436   1.503   2.561   9.771  1.0038  0.1698  0.4581
   20CHL1   C12 1437   1.333   2.368   9.643 -0.1420 -0.5473  0.2481
   20CHL1  H12A 1438   1.272   2.446   9.594  1.3973  1.5738  1.5354
   20CHL1  H12B 1439   1.315   2.274   9.588  1.2998 -0.2412 -0.8123
   20CHL1   C11 1440   1.286   2.359   9.793 -0.0804  0.6430  0.1276
   20CHL1  H11A 1441   1.296   2.461   9.836  3.4107  1.0837 -1.4577
   20CHL1  H11B 1442   1.178   2.333   9.804 -0.6160  3.0742  1.4942
   20CHL1    C9 1443   1.370   2.255   9.879  0.0061 -0.0879  0.2782
   20CHL1    H9 1444   1.361   2.158   9.827 -0.0189  0.3586 -0.5761
   20CHL1   C10 1445   1.320   2.230  10.020  0.2555 -0.0000  0.1769
   20CHL1   C19 1446   1.283   2.364  10.082  0.2287  0.3114 -0.0724
   20CHL1  H19A 1447   1.353   2.449  10.064 -0.0476  0.2576 -1.4970
   20CHL1  H19B 1448   1.185   2.396  10.041 -1.1014  0.6705  3.1138
   20CHL1  H19C 1449   1.250   2.361  10.188  0.5510  1.8544  0.1022
   20CHL1    C1 1450   1.196   2.130  10.023  0.1823 -0.4765  0.4394
   20CHL1   H1A 1451   1.120   2.157   9.947  2.8116 -0.2758 -2.3025
   20CHL1   H1B 1452   1.241   2.039   9.979 -1.4144 -0.8719 -0.4239
   20CHL1    C2 1453   1.134   2.109  10.161  0.2250 -0.8698 -0.2020
   20CHL1   H2A 1454   1.046   2.042  10.161  1.2092 -2.1969  0.1923
   20CHL1   H2B 1455   1.104   2.209  10.199  0.9936 -1.2918  1.6272
   20CHL1   C20 1456   1.519   2.434   9.375  0.2635 -0.0618  0.6381
   20CHL1   H20 1457   1.570   2.532   9.386 -0.5801  0.4999 -0.2413
   20CHL1   C21 1458   1.369   2.460   9.344 -0.9492 -0.2864  0.0200
   20CHL1  H21A 1459   1.324   2.544   9.401 -0.5281  0.8314 -1.2249
   20CHL1  H21B 1460   1.336   2.356   9.366 -0.5226 -0.1061  1.6174
   20CHL1  H21C 1461   1.350   2.488   9.238  2.2834  0.2990 -0.5107
   20CHL1   C22 1462   1.596   2.377   9.250  0.0733 -0.1768  0.0064
   20CHL1  H22A 1463   1.572   2.449   9.170 -1.2227 -2.0401 -1.3764
   20CHL1  H22B 1464   1.707   2.385   9.256 -0.0224  0.4254  1.2355
   20CHL1   C23 1465   1.567   2.234   9.198  0.0306  0.6185 -0.0145
   20CHL1  H23A 1466   1.573   2.156   9.277  2.2948  1.5307  0.7787
   20CHL1  H23B 1467   1.460   2.236   9.170 -0.8259  0.6717  2.9579
   20CHL1   C24 1468   1.656   2.193   9.084  0.2943  0.3571 -0.0296
   20CHL1  H24A 1469   1.760   2.224   9.109  1.5071 -2.9800 -0.4883
   20CHL1  H24B 1470   1.660   2.083   9.075  1.8452  0.5278 -2.4255
   20CHL1   C25 1471   1.614   2.257   8.947  0.5316 -0.1362  1.0077
   20CHL1   H25 1472   1.582   2.359   8.975 -1.7126 -0.4610 -0.1488
   20CHL1   C26 1473   1.734   2.264   8.848  1.1435  0.5004  0.4916
   20CHL1  H26A 1474   1.703   2.292   8.745 -2.2174  0.4602  1.3789
   20CHL1  H26B 1475   1.812   2.337   8.880  0.4301  1.0260  1.0644
   20CHL1  H26C 1476   1.788   2.167   8.840 -0.3277 -0.3153  0.1397
   20CHL1   C27 1477   1.497   2.184   8.873  0.3156 -0.1199 -0.7859
   20CHL1  H27A 1478   1.536   2.084   8.844 -0.2451 -0.6381  0.1818
   20CHL1  H27B 1479   1.416   2.172   8.949 -0.0027 -2.1482 -1.3772
   20CHL1  H27C 1480   1.454   2.236   8.785  0.7488  0.6497 -0.5517
   21CHL1    C3 1481   2.020   4.257  10.365 -0.5134  0.0303  0.0592
   21CHL1    H3 1482   1.912   4.240  10.347 -0.4464  0.0380 -0.3563
   21CHL1    O3 1483   2.032   4.280  10.505  0.2958 -0.5210 -0.3043
   21CHL1   H3' 1484   2.117   4.321  10.522  0.2916 -0.7523  0.3035
   21CHL1    C4 1485   2.101   4.132  10.328 -0.0407  0.1645 -0.0078
   21CHL1   H4A 1486   2.206   4.144  10.361 -0.5288 -2.0590  2.7148
   21CHL1   H4B 1487   2.059   4.046  10.385  2.7050 -0.5795  1.0746
   21CHL1    C5 1488   2.093   4.112  10.174 -0.8867 -0.0956 -0.2067
   21CHL1    C6 1489   2.039   4.001  10.125 -0.4613 -0.5804 -0.0804
   21CHL1    H6 1490   2.014   3.927  10.203 -0.0998  0.2197  0.8176
   21CHL1    C7 1491   2.025   3.977   9.977 -0.2138  0.0430  0.5275
   21CHL1   H7A 1492   2.045   3.870   9.951 -0.2412  0.5454 -1.8391
   21CHL1   H7B 1493   1.920   3.985   9.942  0.3121 -0.2433 -1.2332
   21CHL1    C8 1494   2.122   4.071   9.896  0.0045  0.1430  1.7107
   21CHL1    H8 1495   2.221   4.032   9.926  0.7540 -0.2250 -0.9741
   21CHL1   C14 1496   2.103   4.052   9.745  0.3218 -0.6059 -0.3208
   21CHL1   H14 1497   2.009   4.104   9.719  0.2341 -0.2713  0.6284
   21CHL1   C15 1498   2.099   3.905   9.694 -0.3999 -0.4060 -0.2725
   21CHL1  H15A 1499   2.158   3.830   9.752 -2.2614 -1.8679 -0.1891
   21CHL1  H15B 1500   1.992   3.876   9.690 -0.4208 -0.1952 -2.3929
   21CHL1   C16 1501   2.149   3.920   9.551  0.1092 -0.5328 -0.4290
   21CHL1  H16A 1502   2.249   3.877   9.530  0.1438 -0.3689 -0.6030
   21CHL1  H16B 1503   2.077   3.874   9.480  0.6692 -1.3962 -0.4385
   21CHL1   C17 1504   2.158   4.074   9.523 -0.2727  0.3433  0.0956
   21CHL1   H17 1505   2.052   4.099   9.503 -0.6237 -2.4074 -2.2317
   21CHL1   C13 1506   2.210   4.128   9.657 -0.3021  0.2810 -0.0694
   21CHL1   C18 1507   2.353   4.078   9.694  0.5227  0.5313  0.1827
   21CHL1  H18A 1508   2.430   4.116   9.623 -0.5506 -1.1015 -1.9785
   21CHL1  H18B 1509   2.384   4.110   9.796 -0.7867  2.1259  0.1085
   21CHL1  H18C 1510   2.357   3.967   9.688  3.3778  0.6178 -0.9757
   21CHL1   C12 1511   2.195   4.277   9.694 -0.4586  1.4580  0.0704
   21CHL1  H12A 1512   2.280   4.328   9.644  0.2781  0.7159  0.5207
   21CHL1  H12B 1513   2.099   4.302   9.644 -0.0416  2.7234 -0.1180
   21CHL1   C11 1514   2.202   4.313   9.844  0.6383  0.5655  0.9657
   21CHL1  H11A 1515   2.310   4.298   9.865  1.0725  0.7931 -0.9167
   21CHL1  H11B 1516   2.172   4.419   9.858  0.3436  0.7033 -0.5576
   21CHL1    C9 1517   2.117   4.214   9.934  0.4188 -0.2869  0.1788
   21CHL1    H9 1518   2.012   4.247   9.917  1.2087  2.6133  0.4390
   21CHL1   C10 1519   2.138   4.235  10.093 -0.1471  0.3627  1.0007
   21CHL1   C19 1520   2.290   4.250  10.104 -0.6877 -0.1654 -0.2376
   21CHL1  H19A 1521   2.329   4.343  10.058 -3.4031  1.8593  1.2322
   21CHL1  H19B 1522   2.310   4.251  10.213  0.4939  0.6580 -0.4454
   21CHL1  H19C 1523   2.343   4.172  10.046  2.3933  2.3608 -1.1320
   21CHL1    C1 1524   2.057   4.362  10.135 -0.8481  0.1719  0.2918
   21CHL1   H1A 1525   2.100   4.446  10.076  1.0463 -0.8706  0.0889
   21CHL1   H1B 1526   1.949   4.360  10.109 -0.4344  3.3591 -2.4306
   21CHL1    C2 1527   2.065   4.386  10.286  0.0573  0.8416  0.4514
   21CHL1   H2A 1528   2.006   4.476  10.314  0.3837  1.8608 -1.9244
   21CHL1   H2B 1529   2.173   4.406  10.307  0.3071  1.0006 -0.8853
   21CHL1   C20 1530   2.240   4.102   9.385  0.8063  0.7626  0.1382
   21CHL1   H20 1531   2.346   4.080   9.413  0.6716  1.2466  1.0459
   21CHL1   C21 1532   2.231   4.249   9.358  0.4314 -0.3759 -0.9235
   21CHL1  H21A 1533   2.279   4.284   9.264  2.9447 -0.6009  0.1905
   21CHL1  H21B 1534   2.293   4.297   9.437 -1.2244 -1.0648  0.8660
   21CHL1  H21C 1535   2.126   4.279   9.376  0.1639 -2.4526  1.3869
   21CHL1   C22 1536   2.195   4.016   9.266 -0.6430  0.3248  0.4759
   21CHL1  H22A 1537   2.196   3.910   9.301 -0.4269  0.4569  0.8719
   21CHL1  H22B 1538   2.090   4.039   9.240 -0.4513 -1.2172 -2.0560
   21CHL1   C23 1539   2.293   4.031   9.151  0.4160  0.1954 -0.0079
   21CHL1  H23A 1540   2.255   3.983   9.059  4.0283 -1.1722 -0.9691
   21CHL1  H23B 1541   2.323   4.134   9.122 -0.1440 -0.1131 -1.7710
   21CHL1   C24 1542   2.430   3.961   9.180  0.1093  0.3712  0.3077
   21CHL1  H24A 1543   2.486   4.010   9.264 -0.3457 -0.2383  0.9815
   21CHL1  H24B 1544   2.406   3.859   9.218 -3.1999  1.3093  1.0131
   21CHL1   C25 1545   2.525   3.960   9.069  0.3735 -0.6044  0.0336
   21CHL1   H25 1546   2.529   4.059   9.017 -0.5206 -1.8290 -2.5287
   21CHL1   C26 1547   2.674   3.926   9.105  0.7602  0.0593 -0.1698
   21CHL1  H26A 1548   2.696   3.823   9.068 -0.0834 -0.6951  1.3260
   21CHL1  H26B 1549   2.743   3.990   9.046  0.3612 -0.8990 -1.7431
   21CHL1  H26C 1550   2.695   3.956   9.210 -0.2344  3.0964 -0.7550
   21CHL1   C27 1551   2.468   3.868   8.952 -0.7521 -0.0391  0.7448
   21CHL1  H27A 1552   2.446   3.766   8.989 -0.2679 -0.6041 -0.4654
   21CHL1  H27B 1553   2.375   3.910   8.910 -0.9513  1.0543  2.1887
   21CHL1  H27C 1554   2.542   3.860   8.869 -1.8299 -0.0373 -0.2263
   22CHL1    C3 1555   0.391   5.392  10.257  0.3511  0.0961 -0.1099
   22CHL1    H3 1556   0.476   5.321  10.244 -1.6461 -2.0058 -2.9632
   22CHL1    O3 1557   0.352   5.384  10.400  0.4923  0.1688 -0.5928
   22CHL1   H3' 1558   0.436   5.398  10.445  0.5517  0.9741 -0.9374
   22CHL1    C4 1559   0.424   5.538  10.217  0.0253  0.5464 -0.0561
   22CHL1   H4A 1560   0.336   5.598  10.250 -0.1845 -0.4309  1.2665
   22CHL1   H4B 1561   0.505   5.564  10.288  0.2442 -2.6041  0.9915
   22CHL1    C5 1562   0.457   5.541  10.065 -0.7717  0.0704 -0.1108
   22CHL1    C6 1563   0.580   5.573  10.028 -0.2624  0.0780  0.8897
   22CHL1    H6 1564   0.659   5.600  10.100 -0.7431  1.6295  0.8725
   22CHL1    C7 1565   0.635   5.557   9.888 -0.2780  0.2867 -0.5806
   22CHL1   H7A 1566   0.697   5.641   9.851 -1.7493  0.9726 -1.6342
   22CHL1   H7B 1567   0.701   5.468   9.884 -1.9942 -1.1619  1.2531
   22CHL1    C8 1568   0.516   5.562   9.791  0.3526  0.3149  0.6564
   22CHL1    H8 1569   0.469   5.662   9.784 -0.0115  0.0212 -2.4720
   22CHL1   C14 1570   0.563   5.517   9.650  0.2193 -0.0714 -0.4767
   22CHL1   H14 1571   0.597   5.411   9.659  1.5919  0.3922  0.1347
   22CHL1   C15 1572   0.679   5.581   9.579 -0.2565  0.5008 -0.4351
   22CHL1  H15A 1573   0.669   5.691   9.586 -0.3127  0.4217  1.6048
   22CHL1  H15B 1574   0.775   5.548   9.625  0.0819  0.9818 -0.7868
   22CHL1   C16 1575   0.671   5.535   9.432 -0.2808 -0.7299  0.0160
   22CHL1  H16A 1576   0.682   5.620   9.360 -0.3531 -0.7019  0.0376
   22CHL1  H16B 1577   0.750   5.466   9.397 -0.0131  0.3488 -1.6166
   22CHL1   C17 1578   0.545   5.459   9.417  0.1079  0.2428 -0.7262
   22CHL1   H17 1579   0.566   5.351   9.434 -0.5948  0.5577  2.7218
   22CHL1   C13 1580   0.458   5.507   9.536 -0.1277 -0.5017  0.1190
   22CHL1   C18 1581   0.393   5.646   9.507 -0.1635  0.3088  0.3360
   22CHL1  H18A 1582   0.462   5.718   9.460 -1.1268  1.4879  0.6722
   22CHL1  H18B 1583   0.315   5.629   9.430 -0.3391 -0.5550  0.6866
   22CHL1  H18C 1584   0.356   5.691   9.602 -1.8477 -1.7179  0.7311
   22CHL1   C12 1585   0.338   5.418   9.586 -0.3096  0.2252  0.6595
   22CHL1  H12A 1586   0.253   5.428   9.516  0.5434 -1.3852 -0.6681
   22CHL1  H12B 1587   0.382   5.317   9.599  1.6292  0.7881 -1.0708
   22CHL1   C11 1588   0.286   5.460   9.728 -0.0656  0.1643 -0.2877
   22CHL1  H11A 1589   0.251   5.565   9.723  0.5797  0.3817 -0.4577
   22CHL1  H11B 1590   0.215   5.384   9.765 -1.3589  2.1058  1.4518
   22CHL1    C9 1591   0.402   5.464   9.832 -0.4744  0.3908  0.1125
   22CHL1    H9 1592   0.453   5.366   9.845  0.1054  0.6198 -0.4027
   22CHL1   C10 1593   0.351   5.484   9.975  0.3757 -0.5255  1.0068
   22CHL1   C19 1594   0.237   5.593   9.972  0.4937 -0.1550  0.1640
   22CHL1  H19A 1595   0.270   5.687   9.924 -0.1178  0.5758  1.1386
   22CHL1  H19B 1596   0.144   5.557   9.923 -1.1216  1.4679  1.8655
   22CHL1  H19C 1597   0.197   5.609  10.075 -1.0738 -0.5135 -0.3652
   22CHL1    C1 1598   0.284   5.349  10.028 -0.8741  0.3846  0.4264
   22CHL1   H1A 1599   0.190   5.332   9.971 -1.0748 -1.0854  1.1617
   22CHL1   H1B 1600   0.353   5.270   9.992 -1.9080  0.3953 -1.7353
   22CHL1    C2 1601   0.267   5.337  10.178 -0.0170 -0.2467  0.1353
   22CHL1   H2A 1602   0.232   5.236  10.209  0.2249 -0.1472  0.7585
   22CHL1   H2B 1603   0.182   5.403  10.206  0.4671  0.0780  0.8646
   22CHL1   C20 1604   0.485   5.479   9.271  0.2501  0.2444 -0.5332
   22CHL1   H20 1605   0.469   5.587   9.251  1.6363  0.3983 -0.9222
   22CHL1   C21 1606   0.355   5.400   9.257  0.3455  0.5214  0.0331
   22CHL1  H21A 1607   0.323   5.391   9.150  1.0796 -2.7367 -0.0158
   22CHL1  H21B 1608   0.274   5.456   9.308 -0.5199  0.7845 -1.5385
   22CHL1  H21C 1609   0.368   5.299   9.302 -1.2397  0.2796  0.0284
   22CHL1   C22 1610   0.573   5.422   9.160  0.4387 -0.4853 -0.0180
   22CHL1  H22A 1611   0.672   5.474   9.160 -0.2503  0.8958 -1.4380
   22CHL1  H22B 1612   0.589   5.314   9.184  0.1960 -0.9648 -1.8997
   22CHL1   C23 1613   0.544   5.456   9.012 -0.6573 -0.1089  0.2463
   22CHL1  H23A 1614   0.455   5.394   8.988 -0.1010 -1.8073  2.2511
   22CHL1  H23B 1615   0.523   5.565   9.007 -2.5224 -0.4873 -1.2586
   22CHL1   C24 1616   0.670   5.425   8.915  0.7507  0.3908 -0.0424
   22CHL1  H24A 1617   0.748   5.490   8.960 -0.3948  0.1042  2.5477
   22CHL1  H24B 1618   0.692   5.317   8.925  0.0873  0.1626 -0.9026
   22CHL1   C25 1619   0.652   5.462   8.768 -0.6409  0.0243  0.5577
   22CHL1   H25 1620   0.565   5.397   8.741  0.5169 -0.7591 -1.4858
   22CHL1   C26 1621   0.619   5.606   8.743 -0.2264 -0.8023 -0.3594
   22CHL1  H26A 1622   0.524   5.633   8.792 -0.6923  0.9562 -2.0808
   22CHL1  H26B 1623   0.698   5.666   8.794 -1.9648 -2.3713  4.7820
   22CHL1  H26C 1624   0.612   5.624   8.633  0.5557 -2.4435 -0.7202
   22CHL1   C27 1625   0.781   5.414   8.693  0.6948 -0.5311 -0.3324
   22CHL1  H27A 1626   0.866   5.478   8.724 -0.5761  1.2887 -0.4288
   22CHL1  H27B 1627   0.800   5.306   8.711  1.9646 -0.4875 -1.2693
   22CHL1  H27C 1628   0.780   5.436   8.584 -1.5954 -1.1731 -0.4905
   23CHL1    C3 1629   5.422   1.159  10.406  0.1507 -0.0441  0.2478
   23CHL1    H3 1630   5.432   1.053  10.377 -2.6395 -0.1705 -0.5989
   23CHL1    O3 1631   5.426   1.181  10.549  0.7265  0.2361 -0.0941
   23CHL1   H3' 1632   5.418   1.276  10.561 -0.6321  0.0026  1.1245
   23CHL1    C4 1633   5.532   1.246  10.333 -0.2977  0.1086 -0.0484
   23CHL1   H4A 1634   5.512   1.352  10.358  1.6913  1.6186 -3.9520
   23CHL1   H4B 1635   5.626   1.210  10.379 -0.7739 -1.4093 -0.1997
   23CHL1    C5 1636   5.530   1.228  10.186  0.9028  0.5684  0.2001
   23CHL1    C6 1637   5.634   1.174  10.120  0.7363  0.2475 -0.5246
   23CHL1    H6 1638   5.723   1.154  10.182 -0.4268 -1.3227  0.7401
   23CHL1    C7 1639   5.640   1.159   9.967  0.0048  0.6733  0.0655
   23CHL1   H7A 1640   5.742   1.185   9.931 -0.0933  1.7965  0.5416
   23CHL1   H7B 1641   5.620   1.051   9.953  1.2581  0.4617 -0.1876
   23CHL1    C8 1642   5.529   1.239   9.894 -0.7663 -0.0298  0.1009
   23CHL1    H8 1643   5.556   1.346   9.887  0.1030 -0.3196 -1.4046
   23CHL1   C14 1644   5.511   1.178   9.761 -0.0490  0.3621 -0.3621
   23CHL1   H14 1645   5.476   1.073   9.768 -0.5463  0.3787 -2.1059
   23CHL1   C15 1646   5.637   1.180   9.673  0.0583 -0.4068  0.2916
   23CHL1  H15A 1647   5.685   1.279   9.685  2.1150 -1.3132  0.0359
   23CHL1  H15B 1648   5.709   1.103   9.709  0.8961  0.6459  0.9202
   23CHL1   C16 1649   5.575   1.149   9.536  0.0792 -0.2596 -0.3483
   23CHL1  H16A 1650   5.608   1.219   9.456 -0.8914 -0.0368 -0.5672
   23CHL1  H16B 1651   5.607   1.051   9.495 -4.9559 -2.0205 -0.7343
   23CHL1   C17 1652   5.415   1.154   9.548  0.0152  0.1670 -0.2444
   23CHL1   H17 1653   5.381   1.050   9.568 -0.8190  0.1296 -1.6667
   23CHL1   C13 1654   5.394   1.238   9.670  0.2789 -0.0326  0.6788
   23CHL1   C18 1655   5.416   1.388   9.638 -0.3817  0.1185 -0.5952
   23CHL1  H18A 1656   5.330   1.419   9.575  1.2397 -0.1306 -3.0814
   23CHL1  H18B 1657   5.412   1.454   9.728 -1.5182 -1.6084  0.6938
   23CHL1  H18C 1658   5.502   1.413   9.572 -1.3391  1.8206 -1.2571
   23CHL1   C12 1659   5.261   1.217   9.743  0.2056 -0.2390  0.7102
   23CHL1  H12A 1660   5.176   1.270   9.695  0.4894 -1.0005 -0.6930
   23CHL1  H12B 1661   5.233   1.109   9.744  0.3002 -0.2630  0.9820
   23CHL1   C11 1662   5.274   1.269   9.885  0.9425  0.0037 -0.4360
   23CHL1  H11A 1663   5.283   1.379   9.877  0.7083  0.2048  1.5224
   23CHL1  H11B 1664   5.181   1.246   9.943  1.7141 -0.3646  0.6914
   23CHL1    C9 1665   5.395   1.218   9.970  0.7119 -0.2259 -0.2043
   23CHL1    H9 1666   5.372   1.110   9.979  1.4396 -0.3835 -0.1925
   23CHL1   C10 1667   5.397   1.270  10.119 -0.5866  0.4763  0.3092
   23CHL1   C19 1668   5.381   1.423  10.121 -0.0649 -0.1575 -0.7447
   23CHL1  H19A 1669   5.287   1.465  10.078 -0.4093 -0.8524 -0.6804
   23CHL1  H19B 1670   5.407   1.467  10.220  1.2046 -2.6371  0.0999
   23CHL1  H19C 1671   5.460   1.472  10.060 -0.5222 -0.8301 -1.9224
   23CHL1    C1 1672   5.278   1.201  10.201 -0.4099  0.7270  0.2563
   23CHL1   H1A 1673   5.182   1.236  10.158 -0.1910 -0.8892 -1.6792
   23CHL1   H1B 1674   5.302   1.097  10.172 -0.6618  0.4239  1.1076
   23CHL1    C2 1675   5.285   1.213  10.356 -0.5597 -0.1723  0.4449
   23CHL1   H2A 1676   5.207   1.146  10.398 -0.3348 -0.4143  0.4743
   23CHL1   H2B 1677   5.268   1.320  10.381 -2.0943 -0.2236 -0.2521
   23CHL1   C20 1678   5.343   1.197   9.415  0.6821  0.5125  0.2287
   23CHL1   H20 1679   5.368   1.304   9.397  1.3599  0.4271  0.6284
   23CHL1   C21 1680   5.189   1.177   9.425  0.5717  0.0047 -0.2592
   23CHL1  H21A 1681   5.152   1.261   9.487 -1.6822  0.6962 -2.3957
   23CHL1  H21B 1682   5.177   1.079   9.476  1.4625 -1.4627 -2.6719
   23CHL1  H21C 1683   5.130   1.174   9.331 -0.3952  0.0696  0.3352
   23CHL1   C22 1684   5.393   1.108   9.301 -0.3846 -0.3352  0.2489
   23CHL1  H22A 1685   5.493   1.152   9.280 -0.8818 -0.2982 -2.3473
   23CHL1  H22B 1686   5.412   1.000   9.324  1.5073  0.0293  0.6092
   23CHL1   C23 1687   5.313   1.124   9.165 -0.8598  0.3492 -0.3909
   23CHL1  H23A 1688   5.219   1.065   9.166 -1.3307  1.0196 -2.0593
   23CHL1  H23B 1689   5.277   1.228   9.149 -2.5255 -0.5680 -3.2564
   23CHL1   C24 1690   5.401   1.090   9.044  0.6132 -0.7158  0.0267
   23CHL1  H24A 1691   5.484   1.163   9.036  0.6404 -0.7319  0.1530
   23CHL1  H24B 1692   5.464   1.005   9.079  0.5299 -0.5685  0.5557
   23CHL1   C25 1693   5.309   1.076   8.918 -0.0588  0.0446 -0.5822
   23CHL1   H25 1694   5.222   1.144   8.930 -0.2346 -0.5128  1.7493
   23CHL1   C26 1695   5.394   1.108   8.790 -0.2032  0.3755  0.0070
   23CHL1  H26A 1696   5.397   1.219   8.790  0.0884  0.3716  0.5420
   23CHL1  H26B 1697   5.494   1.062   8.788 -1.0685 -1.6339  0.5945
   23CHL1  H26C 1698   5.349   1.071   8.695  1.8004 -0.7198 -0.5747
   23CHL1   C27 1699   5.265   0.930   8.909  0.7583 -0.2290  0.5024
   23CHL1  H27A 1700   5.232   0.912   8.804  1.8028  0.2302  0.0706
   23CHL1  H27B 1701   5.351   0.860   8.920  1.0705  0.2556  1.2237
   23CHL1  H27C 1702   5.186   0.908   8.984  0.5149  0.5998  0.4927
   24CHL1    C3 1703   0.544   1.195  10.348 -0.0031 -0.6670 -0.6154
   24CHL1    H3 1704   0.651   1.206  10.319  0.2733 -1.7244 -0.0503
   24CHL1    O3 1705   0.534   1.142  10.480 -0.0819 -0.2157 -0.0354
   24CHL1   H3' 1706   0.617   1.146  10.528 -1.5856 -1.1281  2.9001
   24CHL1    C4 1707   0.493   1.344  10.354 -0.2261 -0.4407 -0.3627
   24CHL1   H4A 1708   0.390   1.330  10.394 -0.1727 -2.3504 -0.7880
   24CHL1   H4B 1709   0.548   1.408  10.426 -2.0205 -0.2337  0.8933
   24CHL1    C5 1710   0.486   1.414  10.227  0.4424 -0.4927 -0.4232
   24CHL1    C6 1711   0.532   1.542  10.215  0.7549  0.2874 -0.2171
   24CHL1    H6 1712   0.569   1.600  10.301 -1.2852  1.3665 -0.0101
   24CHL1    C7 1713   0.528   1.624  10.086  0.5299  0.3570  0.2530
   24CHL1   H7A 1714   0.476   1.722  10.089  1.0720  0.7226 -1.3089
   24CHL1   H7B 1715   0.631   1.641  10.048  0.9146 -2.3445 -0.1278
   24CHL1    C8 1716   0.455   1.547   9.974 -0.0215  0.3788  0.2968
   24CHL1    H8 1717   0.345   1.557   9.987 -0.0396  2.6678 -1.0076
   24CHL1   C14 1718   0.496   1.600   9.834  0.5912 -0.7582 -0.5043
   24CHL1   H14 1719   0.601   1.569   9.811  0.1962 -1.3934 -1.4929
   24CHL1   C15 1720   0.503   1.750   9.819  0.2480  0.5204 -0.5569
   24CHL1  H15A 1721   0.413   1.798   9.864  0.3306 -0.9400  1.3029
   24CHL1  H15B 1722   0.599   1.780   9.867  0.8062 -0.3246 -1.1151
   24CHL1   C16 1723   0.514   1.770   9.670  0.0470 -0.4813  0.6344
   24CHL1  H16A 1724   0.436   1.842   9.639  1.9395  1.5373  0.3057
   24CHL1  H16B 1725   0.612   1.810   9.635 -0.6028  0.3989 -0.2096
   24CHL1   C17 1726   0.476   1.633   9.605 -0.4345  0.7250  0.1813
   24CHL1   H17 1727   0.571   1.583   9.577 -0.3783  1.2277 -0.5546
   24CHL1   C13 1728   0.413   1.543   9.718  0.1261  0.0747  0.2530
   24CHL1   C18 1729   0.269   1.586   9.729 -0.2182 -0.2919 -0.4978
   24CHL1  H18A 1730   0.211   1.539   9.811 -0.7212 -0.9717 -1.2307
   24CHL1  H18B 1731   0.265   1.697   9.728  0.7819 -0.1634  2.0754
   24CHL1  H18C 1732   0.215   1.555   9.637 -1.2978  3.0940 -1.1668
   24CHL1   C12 1733   0.438   1.391   9.721 -0.4683 -0.5273 -0.6536
   24CHL1  H12A 1734   0.386   1.342   9.635 -1.5462 -0.1571 -0.2371
   24CHL1  H12B 1735   0.546   1.373   9.703 -0.2339  0.8106 -0.6736
   24CHL1   C11 1736   0.405   1.324   9.849  0.0159  0.6033 -0.8243
   24CHL1  H11A 1737   0.295   1.331   9.863  0.2816 -0.7179  3.1120
   24CHL1  H11B 1738   0.423   1.215   9.839 -0.1033  0.5834 -0.8294
   24CHL1    C9 1739   0.478   1.389   9.971 -0.5291  0.1901  0.0989
   24CHL1    H9 1740   0.587   1.377   9.956 -0.3237 -0.2778  1.8092
   24CHL1   C10 1741   0.431   1.326  10.104  0.1979  0.0959  0.2298
   24CHL1   C19 1742   0.277   1.333  10.125 -0.5766  1.0601  0.3218
   24CHL1  H19A 1743   0.223   1.274  10.047  1.2609  0.0406 -0.2346
   24CHL1  H19B 1744   0.249   1.286  10.221 -1.1882 -0.0130 -0.3597
   24CHL1  H19C 1745   0.246   1.439  10.126  2.4691  2.2848 -4.2777
   24CHL1    C1 1746   0.472   1.169  10.106 -0.9234 -0.0692  0.1540
   24CHL1   H1A 1747   0.410   1.106  10.040 -1.9317 -0.0111  1.0181
   24CHL1   H1B 1748   0.572   1.172  10.058 -2.4074  0.6272 -3.1745
   24CHL1    C2 1749   0.465   1.108  10.249 -0.3711  0.1493 -0.0405
   24CHL1   H2A 1750   0.507   1.005  10.254  0.9192  0.6616  0.2031
   24CHL1   H2B 1751   0.358   1.112  10.278 -0.2020 -0.3796  0.7086
   24CHL1   C20 1752   0.398   1.644   9.467  0.4237  0.6629 -0.5701
   24CHL1   H20 1753   0.312   1.715   9.473  0.7492  1.0103  0.0379
   24CHL1   C21 1754   0.360   1.506   9.411  0.6118 -0.8030 -0.5854
   24CHL1  H21A 1755   0.275   1.455   9.462 -0.0161  0.9621  0.2339
   24CHL1  H21B 1756   0.448   1.442   9.393  2.6095  1.9933 -1.5075
   24CHL1  H21C 1757   0.317   1.529   9.311  2.4671 -1.9221 -1.7000
   24CHL1   C22 1758   0.491   1.718   9.368 -0.0911 -0.8764 -0.1241
   24CHL1  H22A 1759   0.539   1.808   9.412 -1.2581  0.3664 -1.2641
   24CHL1  H22B 1760   0.560   1.641   9.328 -1.0642 -0.7465 -2.1932
   24CHL1   C23 1761   0.426   1.767   9.241 -0.1982 -0.5961  0.0794
   24CHL1  H23A 1762   0.372   1.676   9.206 -1.7580 -0.0591  0.9978
   24CHL1  H23B 1763   0.352   1.841   9.278  1.6639  0.4829  1.8645
   24CHL1   C24 1764   0.515   1.820   9.138 -0.4372 -0.0519  0.3933
   24CHL1  H24A 1765   0.554   1.920   9.163 -1.0608 -0.1216  1.6823
   24CHL1  H24B 1766   0.609   1.760   9.137  0.1598  0.8565  1.3179
   24CHL1   C25 1767   0.450   1.824   8.995 -0.0021  0.2063 -0.7822
   24CHL1   H25 1768   0.356   1.882   8.992  0.9730  1.8656 -0.3635
   24CHL1   C26 1769   0.544   1.885   8.890 -0.1685  0.0278 -0.0925
   24CHL1  H26A 1770   0.636   1.823   8.885 -0.3519 -0.1721 -3.5692
   24CHL1  H26B 1771   0.499   1.904   8.790 -2.1852 -0.8794  0.5838
   24CHL1  H26C 1772   0.599   1.973   8.930  2.3795 -0.5265 -2.0820
   24CHL1   C27 1773   0.414   1.686   8.942 -0.2753 -0.1799 -0.8771
   24CHL1  H27A 1774   0.379   1.690   8.836 -2.1135 -0.1205 -0.2983
   24CHL1  H27B 1775   0.498   1.613   8.949 -0.7647 -0.5805  1.4862
   24CHL1  H27C 1776   0.328   1.652   9.003  0.8558 -1.5170  0.0475
   25CHL1    C3 1777   6.133   0.947  10.349  0.2712 -0.4646 -0.1185
   25CHL1    H3 1778   6.089   0.848  10.324  0.6306 -0.2166 -1.8829
   25CHL1    O3 1779   6.151   0.950  10.487  0.5390  0.5284 -0.1301
   25CHL1   H3' 1780   6.209   0.876  10.506 -3.8249 -3.0651  1.0199
   25CHL1    C4 1781   6.271   0.990  10.288  0.2753  1.1728  0.2096
   25CHL1   H4A 1782   6.294   1.079  10.351  0.9361  0.2474  1.3034
   25CHL1   H4B 1783   6.347   0.915  10.318  1.3754  2.0273 -0.3651
   25CHL1    C5 1784   6.258   1.012  10.137 -0.4768  0.5896  0.0698
   25CHL1    C6 1785   6.332   0.936  10.046  0.5119 -0.1624 -0.1909
   25CHL1    H6 1786   6.391   0.849  10.078 -1.8078 -2.1343 -1.0816
   25CHL1    C7 1787   6.328   0.963   9.895 -0.3196  0.5957 -0.5099
   25CHL1   H7A 1788   6.435   0.968   9.866  0.0024  0.0546  0.5337
   25CHL1   H7B 1789   6.280   0.881   9.838  0.1546 -1.4122  1.8454
   25CHL1    C8 1790   6.258   1.095   9.855 -0.4385 -0.0343  0.5109
   25CHL1    H8 1791   6.333   1.177   9.858 -1.6106  1.1080 -0.2787
   25CHL1   C14 1792   6.215   1.088   9.706  0.8391  0.0591 -0.2027
   25CHL1   H14 1793   6.143   1.003   9.707 -1.3887  1.8336 -0.7744
   25CHL1   C15 1794   6.322   1.053   9.601  0.4838  0.0025 -0.2317
   25CHL1  H15A 1795   6.406   1.122   9.623  0.5009  0.1641 -0.7855
   25CHL1  H15B 1796   6.356   0.948   9.585 -1.7262 -0.5239 -2.0238
   25CHL1   C16 1797   6.262   1.094   9.467  0.1351  0.3234 -0.2613
   25CHL1  H16A 1798   6.323   1.171   9.416 -1.6762  1.4026 -0.8586
   25CHL1  H16B 1799   6.246   1.007   9.400 -0.4737  2.9900 -3.8335
   25CHL1   C17 1800   6.123   1.157   9.502 -0.6344  0.2238 -0.5532
   25CHL1   H17 1801   6.044   1.080   9.509 -0.4960  0.0199 -1.1341
   25CHL1   C13 1802   6.139   1.209   9.649 -0.5002 -0.0563  0.6705
   25CHL1   C18 1803   6.228   1.332   9.650  1.0866  0.8500  0.1119
   25CHL1  H18A 1804   6.157   1.403   9.603 -2.3853 -1.2482  1.8645
   25CHL1  H18B 1805   6.250   1.379   9.748  2.3473 -1.0724  0.8095
   25CHL1  H18C 1806   6.316   1.328   9.581 -0.6771  0.7420 -2.2453
   25CHL1   C12 1807   6.017   1.219   9.729  0.1015  0.3037 -0.1243
   25CHL1  H12A 1808   5.953   1.302   9.694 -0.2283 -0.6063 -1.7768
   25CHL1  H12B 1809   5.959   1.124   9.720 -2.1125  1.6813 -1.3131
   25CHL1   C11 1810   6.050   1.243   9.875 -0.5983 -0.3837 -0.0025
   25CHL1  H11A 1811   6.097   1.341   9.900 -1.3656 -0.5012  2.1726
   25CHL1  H11B 1812   5.958   1.245   9.939 -0.7336  1.9204 -0.1857
   25CHL1    C9 1813   6.133   1.127   9.938 -0.4069 -0.2895  0.7183
   25CHL1    H9 1814   6.075   1.034   9.919 -0.2508 -0.4091  0.8245
   25CHL1   C10 1815   6.155   1.124  10.092 -0.3265 -0.1667 -0.1491
   25CHL1   C19 1816   6.217   1.256  10.141 -0.2812 -0.4936  0.1671
   25CHL1  H19A 1817   6.322   1.263  10.106 -0.2149 -2.6958 -0.1864
   25CHL1  H19B 1818   6.149   1.337  10.105  0.0499  0.1954  1.0500
   25CHL1  H19C 1819   6.224   1.260  10.252 -1.3099 -0.1724  0.2413
   25CHL1    C1 1820   6.016   1.098  10.165  0.1923 -0.0415  0.6141
   25CHL1   H1A 1821   5.946   1.183  10.158  0.3708 -0.0203 -2.8961
   25CHL1   H1B 1822   5.972   1.013  10.109  1.0275  0.3498 -0.6879
   25CHL1    C2 1823   6.027   1.059  10.316 -0.8634  0.7943  0.4165
   25CHL1   H2A 1824   5.928   1.038  10.361 -1.3536  0.2786 -0.8617
   25CHL1   H2B 1825   6.052   1.155  10.366 -0.2621  1.2926 -0.7841
   25CHL1   C20 1826   6.081   1.254   9.395  0.1289 -0.3961  0.6366
   25CHL1   H20 1827   6.156   1.336   9.392  1.6148 -1.7359 -1.7435
   25CHL1   C21 1828   5.953   1.336   9.428 -0.1357 -0.5162 -0.6104
   25CHL1  H21A 1829   5.971   1.408   9.511  0.5569 -2.7217  1.2483
   25CHL1  H21B 1830   5.861   1.282   9.459  1.3798 -1.9580  1.6581
   25CHL1  H21C 1831   5.928   1.387   9.332 -1.5490 -0.4129 -0.2057
   25CHL1   C22 1832   6.075   1.191   9.252 -0.4313 -0.2351 -0.6490
   25CHL1  H22A 1833   6.095   1.083   9.267  0.7211 -0.0565 -0.8341
   25CHL1  H22B 1834   5.969   1.193   9.219 -0.4517 -0.5794 -0.6114
   25CHL1   C23 1835   6.181   1.260   9.164 -0.2037 -0.3870 -0.2392
   25CHL1  H23A 1836   6.151   1.367   9.156 -1.4274 -0.6141  0.8598
   25CHL1  H23B 1837   6.277   1.251   9.218 -0.3123 -0.8790 -0.1247
   25CHL1   C24 1838   6.203   1.194   9.026  0.7865 -0.1903  0.3943
   25CHL1  H24A 1839   6.226   1.088   9.048  0.3647 -0.5673 -0.9081
   25CHL1  H24B 1840   6.108   1.210   8.970  0.4255  0.8585  1.2606
   25CHL1   C25 1841   6.319   1.264   8.958 -0.6072  0.1528  0.3587
   25CHL1   H25 1842   6.308   1.375   8.956 -2.2118 -0.0009 -0.0953
   25CHL1   C26 1843   6.461   1.243   9.021  0.5339  0.1064  0.3385
   25CHL1  H26A 1844   6.535   1.264   8.942 -0.1605 -0.3205 -0.4435
   25CHL1  H26B 1845   6.486   1.315   9.102 -0.3280  0.8744 -0.0518
   25CHL1  H26C 1846   6.477   1.135   9.043  0.1757 -0.3639 -1.5688
   25CHL1   C27 1847   6.331   1.212   8.810  0.1796 -0.6589 -0.3884
   25CHL1  H27A 1848   6.413   1.271   8.763  0.0599 -1.6604 -1.9408
   25CHL1  H27B 1849   6.353   1.104   8.803  1.6755 -0.4038  0.0562
   25CHL1  H27C 1850   6.230   1.233   8.766  0.5649 -1.0312 -1.4882
   26CHL1    C3 1851   2.011   5.818  10.011 -0.7124 -0.0098  0.8754
   26CHL1    H3 1852   2.113   5.781  10.034  0.1734  0.9047 -1.2441
   26CHL1    O3 1853   1.957   5.864  10.135 -0.2597 -0.7555  0.3400
   26CHL1   H3' 1854   1.873   5.905  10.113  0.1337  0.2758  0.7169
   26CHL1    C4 1855   2.030   5.926   9.903 -0.4227 -0.1440 -0.5464
   26CHL1   H4A 1856   1.943   5.995   9.894  0.0268  0.3405 -1.2591
   26CHL1   H4B 1857   2.112   5.980   9.955 -1.5042 -0.6865  1.8402
   26CHL1    C5 1858   2.078   5.862   9.775 -0.1597 -0.0187 -0.2699
   26CHL1    C6 1859   2.188   5.907   9.715 -0.1674 -0.1813 -0.2256
   26CHL1    H6 1860   2.246   5.988   9.762 -0.3207 -0.8488  1.1545
   26CHL1    C7 1861   2.239   5.855   9.588 -0.1305 -0.6705  0.1390
   26CHL1   H7A 1862   2.275   5.935   9.520 -1.7904 -0.3820 -0.4267
   26CHL1   H7B 1863   2.322   5.786   9.615  0.2793 -0.0941  0.3883
   26CHL1    C8 1864   2.138   5.774   9.510 -0.4429  0.7387  0.0622
   26CHL1    H8 1865   2.072   5.853   9.467 -1.4880  0.1698  0.5767
   26CHL1   C14 1866   2.207   5.699   9.399 -0.4795  0.3974  0.1791
   26CHL1   H14 1867   2.252   5.613   9.454 -1.2355  0.3937  0.8165
   26CHL1   C15 1868   2.323   5.763   9.320 -0.8478 -0.1391  0.2368
   26CHL1  H15A 1869   2.288   5.866   9.299  0.2878 -0.0271 -1.3409
   26CHL1  H15B 1870   2.420   5.763   9.374 -1.4340  2.3901  1.4349
   26CHL1   C16 1871   2.331   5.669   9.194  0.2233 -0.1249  0.3060
   26CHL1  H16A 1872   2.302   5.732   9.107 -1.4574  0.2328  1.0852
   26CHL1  H16B 1873   2.427   5.613   9.187  0.6411  0.2040  2.4470
   26CHL1   C17 1874   2.201   5.574   9.199  0.0122 -0.8186  0.3820
   26CHL1   H17 1875   2.232   5.478   9.244  0.0815 -1.0297 -0.1083
   26CHL1   C13 1876   2.106   5.639   9.301 -0.7891 -0.0856  0.4503
   26CHL1   C18 1877   2.026   5.744   9.235 -0.0943 -0.3299  0.2996
   26CHL1  H18A 1878   2.095   5.825   9.204  0.9715 -0.4733  2.1766
   26CHL1  H18B 1879   1.971   5.703   9.147 -0.7786 -0.0313  0.5795
   26CHL1  H18C 1880   1.946   5.794   9.295  2.5240  1.4192  2.5676
   26CHL1   C12 1881   2.017   5.541   9.379  0.2525 -0.7618 -0.4084
   26CHL1  H12A 1882   1.935   5.513   9.308  0.8715  0.4979 -1.6784
   26CHL1  H12B 1883   2.080   5.454   9.406 -1.0352 -1.4284  0.5753
   26CHL1   C11 1884   1.954   5.607   9.512  0.2748  0.0148 -0.7029
   26CHL1  H11A 1885   1.873   5.667   9.465  0.6217  1.0952  0.0575
   26CHL1  H11B 1886   1.912   5.529   9.578  0.3192  1.9663  1.7755
   26CHL1    C9 1887   2.052   5.684   9.595  0.7858 -0.7908 -0.7061
   26CHL1    H9 1888   2.130   5.613   9.631  1.1826  0.9072  2.0956
   26CHL1   C10 1889   1.992   5.755   9.719 -0.5334 -0.2057 -0.9311
   26CHL1   C19 1890   1.846   5.807   9.687 -0.0765 -0.7204 -0.2797
   26CHL1  H19A 1891   1.782   5.725   9.649  1.2766 -1.5416 -0.8494
   26CHL1  H19B 1892   1.794   5.846   9.777  0.4026 -1.7607  0.4646
   26CHL1  H19C 1893   1.850   5.890   9.613 -0.4134  1.7559  2.3160
   26CHL1    C1 1894   1.986   5.649   9.828  0.1096 -0.5430 -0.6014
   26CHL1   H1A 1895   1.929   5.563   9.784  0.0917 -1.6815  1.5249
   26CHL1   H1B 1896   2.092   5.620   9.845 -0.3968 -3.1532 -1.4128
   26CHL1    C2 1897   1.930   5.697   9.961  0.6905  0.4899 -0.0988
   26CHL1   H2A 1898   1.938   5.618  10.038 -1.5324 -0.9756 -1.2535
   26CHL1   H2B 1899   1.823   5.724   9.954  0.7734  1.4959  1.9689
   26CHL1   C20 1900   2.155   5.528   9.060 -0.1287 -0.3876 -0.2136
   26CHL1   H20 1901   2.096   5.609   9.012 -0.4799 -1.2133 -1.2254
   26CHL1   C21 1902   2.043   5.420   9.079 -0.4546  0.3914 -0.3382
   26CHL1  H21A 1903   2.035   5.365   8.983  0.9235 -1.1884  0.4087
   26CHL1  H21B 1904   1.947   5.473   9.101 -0.1733  0.9109 -0.3465
   26CHL1  H21C 1905   2.075   5.350   9.159  1.7223  1.8842  0.1717
   26CHL1   C22 1906   2.274   5.471   8.965 -1.1326  0.4205 -0.0088
   26CHL1  H22A 1907   2.363   5.536   8.978 -0.7940  0.1293 -0.8140
   26CHL1  H22B 1908   2.298   5.369   9.003  0.1192  1.2228  1.4647
   26CHL1   C23 1909   2.244   5.472   8.815  0.0562 -0.3686  0.0780
   26CHL1  H23A 1910   2.139   5.439   8.799  0.0362 -0.7299  0.8819
   26CHL1  H23B 1911   2.242   5.575   8.773  0.6604 -1.9846 -4.5556
   26CHL1   C24 1912   2.337   5.379   8.732 -0.4391 -0.2432  0.3151
   26CHL1  H24A 1913   2.440   5.422   8.727 -0.2083 -0.7811  0.3522
   26CHL1  H24B 1914   2.348   5.284   8.788 -0.9580 -1.0891 -0.9525
   26CHL1   C25 1915   2.287   5.358   8.585  0.8783 -0.1077 -0.5733
   26CHL1   H25 1916   2.182   5.326   8.600 -0.0946  2.8532 -0.4825
   26CHL1   C26 1917   2.282   5.484   8.503  0.0192 -0.0385  0.4943
   26CHL1  H26A 1918   2.241   5.464   8.402 -0.0665 -1.6858  0.8335
   26CHL1  H26B 1919   2.228   5.568   8.552 -2.1024  0.2427 -2.1485
   26CHL1  H26C 1920   2.384   5.526   8.487 -1.2022  2.5799 -1.1082
   26CHL1   C27 1921   2.375   5.247   8.519 -0.4651 -0.2455  0.5162
   26CHL1  H27A 1922   2.483   5.273   8.519 -0.8448  1.4829  0.1386
   26CHL1  H27B 1923   2.364   5.150   8.571  2.4472 -2.1735 -2.1479
   26CHL1  H27C 1924   2.363   5.229   8.410 -0.4852  0.6660  0.3580
   27CHL1    C3 1925   0.190   3.040  10.384  0.1377 -0.4565  0.6503
   27CHL1    H3 1926   0.095   2.985  10.367 -1.4747  2.3493  0.0000
   27CHL1    O3 1927   0.217   3.032  10.525 -0.4542 -0.2073 -0.3610
   27CHL1   H3' 1928   0.293   2.976  10.538  0.0987  0.6910  0.4169
   27CHL1    C4 1929   0.309   2.983  10.305 -0.4206  0.3251  0.1293
   27CHL1   H4A 1930   0.406   3.033  10.329 -0.0859  0.3282 -1.1308
   27CHL1   H4B 1931   0.320   2.878  10.338  0.7688  0.8275  1.4313
   27CHL1    C5 1932   0.279   2.990  10.163  0.8421 -0.3441  0.5025
   27CHL1    C6 1933   0.284   2.884  10.079 -0.0807 -0.2806 -0.2438
   27CHL1    H6 1934   0.313   2.785  10.117 -1.3000 -0.8779 -0.8215
   27CHL1    C7 1935   0.259   2.892   9.935  0.0092 -0.2703  0.1335
   27CHL1   H7A 1936   0.340   2.826   9.897  0.1999 -1.8628  3.0587
   27CHL1   H7B 1937   0.162   2.851   9.899 -0.0879 -2.5503  2.6715
   27CHL1    C8 1938   0.277   3.032   9.876  0.2818 -0.4315  0.1396
   27CHL1    H8 1939   0.383   3.065   9.876 -0.4742  2.2610  0.3580
   27CHL1   C14 1940   0.208   3.034   9.740 -0.1279  0.7428 -0.1643
   27CHL1   H14 1941   0.102   3.008   9.759 -0.3373 -1.6516 -3.7184
   27CHL1   C15 1942   0.264   2.928   9.637  0.5974 -0.4378  0.1794
   27CHL1  H15A 1943   0.373   2.908   9.647  0.4062 -2.3341 -0.9823
   27CHL1  H15B 1944   0.223   2.827   9.653  0.3914 -0.4718 -0.5290
   27CHL1   C16 1945   0.223   2.982   9.500 -0.4006  0.6749 -0.5608
   27CHL1  H16A 1946   0.321   2.997   9.451  0.2164 -2.3466 -0.3997
   27CHL1  H16B 1947   0.162   2.907   9.444 -0.4753  0.6762 -0.4822
   27CHL1   C17 1948   0.147   3.118   9.534  0.8992  0.5400 -0.9339
   27CHL1   H17 1949   0.044   3.090   9.564  0.6752  2.5841  0.4336
   27CHL1   C13 1950   0.203   3.169   9.671 -0.4972  0.6134 -0.4015
   27CHL1   C18 1951   0.345   3.219   9.642  0.5925 -0.4033 -0.5325
   27CHL1  H18A 1952   0.409   3.224   9.733 -0.1851  2.0071 -0.0372
   27CHL1  H18B 1953   0.397   3.150   9.573  0.9704 -2.0495  1.2909
   27CHL1  H18C 1954   0.346   3.322   9.600 -2.4415 -0.4123 -0.8712
   27CHL1   C12 1955   0.125   3.264   9.758 -0.2704 -0.0943  0.3786
   27CHL1  H12A 1956   0.121   3.359   9.700 -0.9652 -1.9850 -2.9762
   27CHL1  H12B 1957   0.023   3.219   9.764  0.3872 -1.4421  3.0002
   27CHL1   C11 1958   0.178   3.273   9.903 -0.3259 -0.0336  0.7043
   27CHL1  H11A 1959   0.279   3.320   9.897  1.1280 -2.9614 -0.0506
   27CHL1  H11B 1960   0.108   3.340   9.955  0.2574  0.6077  0.6802
   27CHL1    C9 1961   0.199   3.130   9.964 -0.2656 -0.4435 -0.1533
   27CHL1    H9 1962   0.098   3.083   9.960  0.0961 -1.1180 -2.6283
   27CHL1   C10 1963   0.251   3.137  10.111 -0.1756 -0.3422 -0.3353
   27CHL1   C19 1964   0.388   3.213  10.119  0.1339  0.3277  0.2883
   27CHL1  H19A 1965   0.428   3.223  10.223  1.5177 -0.9197 -0.0837
   27CHL1  H19B 1966   0.462   3.163  10.053 -1.8654 -1.5505 -0.6593
   27CHL1  H19C 1967   0.370   3.317  10.087 -0.9145 -0.3683 -1.5180
   27CHL1    C1 1968   0.147   3.205  10.200  0.1916  0.6037  0.2158
   27CHL1   H1A 1969   0.146   3.315  10.184  1.0628  0.6227  0.2820
   27CHL1   H1B 1970   0.047   3.163  10.172  0.6088 -0.6721  0.5616
   27CHL1    C2 1971   0.163   3.186  10.351  0.1806  0.0258 -0.3295
   27CHL1   H2A 1972   0.079   3.231  10.407  1.6338  0.3584  1.6609
   27CHL1   H2B 1973   0.241   3.257  10.384  0.3885 -0.8858  1.2561
   27CHL1   C20 1974   0.144   3.209   9.414  0.3863  0.2125  0.2103
   27CHL1   H20 1975   0.250   3.220   9.382 -0.1613 -1.0753 -2.2249
   27CHL1   C21 1976   0.092   3.346   9.447  0.5061  0.4846 -0.0188
   27CHL1  H21A 1977   0.076   3.420   9.365 -0.4302  0.1502 -0.1435
   27CHL1  H21B 1978   0.154   3.396   9.525 -1.5322 -0.4262  2.3326
   27CHL1  H21C 1979  -0.008   3.332   9.493  0.2711  0.0318 -0.6598
   27CHL1   C22 1980   0.061   3.143   9.309 -0.6679  0.2476 -0.1904
   27CHL1  H22A 1981   0.094   3.041   9.282  2.8136  1.2668 -0.3193
   27CHL1  H22B 1982  -0.044   3.133   9.341 -1.1670  1.8982 -1.1865
   27CHL1   C23 1983   0.057   3.216   9.173 -0.2570 -0.7662 -0.3855
   27CHL1  H23A 1984   0.034   3.325   9.180  1.3978 -0.4909  1.8668
   27CHL1  H23B 1985   0.162   3.210   9.140 -0.4030  0.2257 -1.0620
   27CHL1   C24 1986  -0.027   3.148   9.063  0.2483  0.3131 -0.4111
   27CHL1  H24A 1987  -0.003   3.041   9.047 -1.4480 -0.3578  1.1939
   27CHL1  H24B 1988  -0.128   3.156   9.109  0.8941  1.1162  0.9251
   27CHL1   C25 1989  -0.019   3.216   8.921 -0.2450  0.3308 -0.2323
   27CHL1   H25 1990   0.086   3.239   8.895 -0.0275  1.0628  1.2085
   27CHL1   C26 1991  -0.084   3.124   8.819  0.2630  0.6318 -0.1746
   27CHL1  H26A 1992  -0.074   3.158   8.714 -2.4553  0.2249 -0.6389
   27CHL1  H26B 1993  -0.027   3.029   8.826  1.0297  1.0512 -0.6532
   27CHL1  H26C 1994  -0.191   3.109   8.842  0.1436  1.3941 -0.1981
   27CHL1   C27 1995  -0.096   3.349   8.918  0.6862 -0.0321  0.2161
   27CHL1  H27A 1996  -0.050   3.412   8.997 -1.1637  1.3727  0.2330
   27CHL1  H27B 1997  -0.078   3.391   8.816  0.4454  0.7813  0.5012
   27CHL1  H27C 1998  -0.202   3.333   8.947  0.6247 -1.5610 -0.7233
   28CHL1    C3 1999   0.038   0.801  10.212 -0.0927  0.8066  0.6068
   28CHL1    H3 2000   0.090   0.705  10.194 -0.9543  0.6609 -1.3896
   28CHL1    O3 2001   0.017   0.807  10.352 -0.4120 -0.0848  0.0794
   28CHL1   H3' 2002  -0.077   0.794  10.360 -0.5449 -0.8170 -2.2314
   28CHL1    C4 2003   0.140   0.905  10.169 -0.0290 -0.3209  0.3300
   28CHL1   H4A 2004   0.121   1.009  10.202  0.7069  0.0167 -0.2635
   28CHL1   H4B 2005   0.237   0.902  10.224 -0.9961  2.3569  2.4013
   28CHL1    C5 2006   0.147   0.908  10.016 -0.7412 -0.8085  0.3135
   28CHL1    C6 2007   0.269   0.889   9.960  0.3858  0.1222  0.0546
   28CHL1    H6 2008   0.356   0.872  10.025  0.3914 -2.8398 -0.5840
   28CHL1    C7 2009   0.302   0.892   9.817  0.4218 -0.4640  0.2267
   28CHL1   H7A 2010   0.397   0.944   9.794 -0.1294 -0.1602 -1.5198
   28CHL1   H7B 2011   0.314   0.790   9.776  0.2253 -0.5802  0.4566
   28CHL1    C8 2012   0.176   0.956   9.741 -0.8635 -0.4363 -0.1017
   28CHL1    H8 2013   0.185   1.064   9.766  0.3503 -0.4024 -0.6264
   28CHL1   C14 2014   0.202   0.939   9.591 -0.0908 -0.0365  0.1642
   28CHL1   H14 2015   0.206   0.830   9.568 -0.9117 -0.0151 -0.1083
   28CHL1   C15 2016   0.330   0.999   9.526 -0.6132 -0.4946  0.6384
   28CHL1  H15A 2017   0.341   1.101   9.568  2.1827 -0.2322 -0.4813
   28CHL1  H15B 2018   0.416   0.931   9.544  0.2742  0.5117  0.3244
   28CHL1   C16 2019   0.301   1.001   9.373 -0.0961 -0.4200 -0.4089
   28CHL1  H16A 2020   0.329   1.103   9.339 -0.5128  0.1223  0.7881
   28CHL1  H16B 2021   0.349   0.924   9.310 -0.3388 -1.0057  0.1077
   28CHL1   C17 2022   0.148   0.967   9.366  0.4919  0.0066 -0.0926
   28CHL1   H17 2023   0.149   0.856   9.365  3.1360 -0.1345  2.7437
   28CHL1   C13 2024   0.089   0.995   9.504 -0.1442 -0.2340 -0.5886
   28CHL1   C18 2025   0.077   1.147   9.527  0.2126 -0.5191 -0.1302
   28CHL1  H18A 2026   0.050   1.169   9.633  1.7227  0.3071  0.1232
   28CHL1  H18B 2027   0.171   1.202   9.506  0.6513 -1.8900 -2.0167
   28CHL1  H18C 2028  -0.005   1.185   9.462  1.6012  1.2691 -0.9270
   28CHL1   C12 2029  -0.046   0.923   9.541 -0.0178 -0.1487  1.4336
   28CHL1  H12A 2030  -0.130   0.960   9.480 -2.9662 -0.4588  4.9423
   28CHL1  H12B 2031  -0.024   0.815   9.529 -2.0063 -0.3799 -0.8339
   28CHL1   C11 2032  -0.076   0.943   9.693 -0.0648 -0.2666  0.5792
   28CHL1  H11A 2033  -0.124   1.042   9.703  1.9234  0.7260  0.7786
   28CHL1  H11B 2034  -0.156   0.871   9.722  1.8975 -3.3211 -0.9768
   28CHL1    C9 2035   0.043   0.902   9.784  0.4387  0.5588 -0.4577
   28CHL1    H9 2036   0.053   0.792   9.768  1.3237  0.6789 -0.7368
   28CHL1   C10 2037   0.022   0.921   9.934  0.6874 -0.2630 -0.2552
   28CHL1   C19 2038  -0.027   1.067   9.960 -0.2418 -0.1198 -0.1771
   28CHL1  H19A 2039  -0.039   1.094  10.067  0.5686  2.1602 -0.5963
   28CHL1  H19B 2040   0.048   1.143   9.928 -1.5505  1.0012 -0.6837
   28CHL1  H19C 2041  -0.123   1.092   9.911 -0.0904 -1.2760 -1.1010
   28CHL1    C1 2042  -0.082   0.812   9.989  0.5690 -0.2671 -0.0600
   28CHL1   H1A 2043  -0.179   0.840   9.942  0.7141  0.1989 -0.0855
   28CHL1   H1B 2044  -0.040   0.714   9.960  1.0123  0.1420 -0.8369
   28CHL1    C2 2045  -0.104   0.804  10.141 -0.1294 -0.8200  0.3568
   28CHL1   H2A 2046  -0.160   0.713  10.171  1.0129 -0.7339  2.9862
   28CHL1   H2B 2047  -0.161   0.898  10.157  0.7732  0.1630 -1.7503
   28CHL1   C20 2048   0.089   1.031   9.243 -0.0458 -0.7677 -0.4605
   28CHL1   H20 2049   0.086   1.141   9.254 -0.5099 -0.8187 -0.0274
   28CHL1   C21 2050  -0.059   0.989   9.220 -0.5114 -0.0576  0.5425
   28CHL1  H21A 2051  -0.082   0.976   9.112  1.2416  0.7620  0.0393
   28CHL1  H21B 2052  -0.124   1.066   9.266  2.2851  3.1247 -0.4954
   28CHL1  H21C 2053  -0.071   0.890   9.269 -0.8127 -0.9609 -1.2812
   28CHL1   C22 2054   0.167   1.024   9.107  0.1513  0.4803  0.3034
   28CHL1  H22A 2055   0.261   1.082   9.116  0.6540 -0.1584 -0.6385
   28CHL1  H22B 2056   0.201   0.920   9.085 -2.3385 -0.0961 -1.2099
   28CHL1   C23 2057   0.090   1.082   8.985 -0.1757 -0.0119 -0.4859
   28CHL1  H23A 2058   0.027   0.997   8.950 -1.4193  0.1818  1.1802
   28CHL1  H23B 2059   0.027   1.168   9.017 -0.5905 -0.3875 -0.2798
   28CHL1   C24 2060   0.184   1.113   8.865 -0.0425 -0.0268  0.3456
   28CHL1  H24A 2061   0.284   1.154   8.891 -0.3008  1.7678 -1.1896
   28CHL1  H24B 2062   0.209   1.012   8.827 -1.4001 -0.1575 -0.2336
   28CHL1   C25 2063   0.127   1.184   8.747 -0.2079  0.1566  0.0429
   28CHL1   H25 2064   0.127   1.290   8.781  0.6949  0.4215 -0.7444
   28CHL1   C26 2065   0.225   1.175   8.629 -0.3736  0.2117  0.2347
   28CHL1  H26A 2066   0.322   1.223   8.651 -0.8540  1.0397  0.6147
   28CHL1  H26B 2067   0.245   1.069   8.602  1.0192  0.7536 -0.9830
   28CHL1  H26C 2068   0.180   1.224   8.540 -2.5099 -0.4732  0.8763
   28CHL1   C27 2069  -0.017   1.145   8.696  0.9199  0.6323 -0.2752
   28CHL1  H27A 2070  -0.026   1.040   8.663  1.1437  0.5165  0.0259
   28CHL1  H27B 2071  -0.103   1.159   8.765  0.3666 -0.6991 -0.6630
   28CHL1  H27C 2072  -0.038   1.215   8.612 -1.7011 -1.2965 -1.3569
   29CHL1    C3 2073   2.786   5.807   6.655  0.3057 -0.3303  0.5247
   29CHL1    H3 2074   2.721   5.897   6.650 -0.6405 -1.0218  0.0821
   29CHL1    O3 2075   2.814   5.780   6.518  0.0206  0.1134 -0.1991
   29CHL1   H3' 2076   2.903   5.744   6.519  0.1399  0.3871  1.3054
   29CHL1    C4 2077   2.911   5.846   6.728 -0.6632  0.2552  0.1454
   29CHL1   H4A 2078   2.992   5.774   6.705 -0.2383  1.7059 -3.5842
   29CHL1   H4B 2079   2.948   5.942   6.687  0.0236  1.6501  3.6947
   29CHL1    C5 2080   2.899   5.858   6.880  0.0386  0.3002  0.0226
   29CHL1    C6 2081   2.944   5.966   6.938 -0.2706  0.0674  0.0760
   29CHL1    H6 2082   2.995   6.042   6.878 -0.8765 -0.7451 -1.5066
   29CHL1    C7 2083   2.947   5.979   7.087 -0.4454 -0.0855  0.0073
   29CHL1   H7A 2084   3.047   6.005   7.128  0.8862 -2.0595 -1.7839
   29CHL1   H7B 2085   2.885   6.067   7.113  1.8717  1.1825  1.6128
   29CHL1    C8 2086   2.904   5.855   7.172  0.0006 -0.3021 -0.4830
   29CHL1    H8 2087   2.997   5.794   7.173  0.8642  0.9769 -0.3896
   29CHL1   C14 2088   2.850   5.890   7.312  0.1731 -0.2699 -0.5574
   29CHL1   H14 2089   2.754   5.944   7.300  0.2511  0.3663  1.3595
   29CHL1   C15 2090   2.944   5.980   7.389 -0.1146 -0.2408 -0.4928
   29CHL1  H15A 2091   3.049   5.998   7.357 -1.1294  3.0284 -2.4640
   29CHL1  H15B 2092   2.891   6.077   7.377  2.4813  1.2416 -0.8296
   29CHL1   C16 2093   2.933   5.925   7.535 -0.3165  0.3920 -0.0933
   29CHL1  H16A 2094   3.028   5.889   7.579 -1.3122  0.7541  2.5657
   29CHL1  H16B 2095   2.906   6.005   7.608 -0.1324 -0.2189  0.6506
   29CHL1   C17 2096   2.821   5.813   7.530  0.4985 -0.4492 -0.1112
   29CHL1   H17 2097   2.718   5.852   7.528  0.0282 -1.5682  0.9168
   29CHL1   C13 2098   2.836   5.754   7.387  0.2044  0.0233  0.0772
   29CHL1   C18 2099   2.965   5.670   7.386 -0.3248 -0.3599 -0.1109
   29CHL1  H18A 2100   3.053   5.729   7.419 -0.5885  0.3643 -0.6929
   29CHL1  H18B 2101   2.955   5.587   7.459 -0.1193 -0.1195  0.1922
   29CHL1  H18C 2102   2.987   5.622   7.288 -0.3695  0.5944 -0.5990
   29CHL1   C12 2103   2.715   5.678   7.321  0.3552  0.1407  0.0188
   29CHL1  H12A 2104   2.708   5.580   7.373 -3.1722 -0.2137 -0.8570
   29CHL1  H12B 2105   2.623   5.738   7.339 -0.7763 -0.9907 -1.6911
   29CHL1   C11 2106   2.731   5.657   7.170 -0.0545 -0.1142 -0.1914
   29CHL1  H11A 2107   2.799   5.570   7.162 -1.4429 -1.0915 -2.7124
   29CHL1  H11B 2108   2.634   5.632   7.121  0.2200  1.1825 -1.4479
   29CHL1    C9 2109   2.797   5.775   7.100  0.6650  0.9789 -0.2974
   29CHL1    H9 2110   2.713   5.847   7.093 -0.1893 -0.0556 -0.9969
   29CHL1   C10 2111   2.829   5.738   6.950  0.1865 -0.0797 -0.3882
   29CHL1   C19 2112   2.928   5.615   6.957 -0.3023 -0.5528 -0.5122
   29CHL1  H19A 2113   2.865   5.527   6.981 -3.3611  1.9629  1.4600
   29CHL1  H19B 2114   2.982   5.600   6.861 -1.0051 -0.7731 -0.8812
   29CHL1  H19C 2115   3.005   5.629   7.035 -0.9451  0.1063  0.0220
   29CHL1    C1 2116   2.698   5.705   6.871 -0.0826 -0.3112 -0.4340
   29CHL1   H1A 2117   2.657   5.615   6.921  0.5354 -0.4934 -0.2444
   29CHL1   H1B 2118   2.624   5.788   6.879  1.4115  0.9291  1.3832
   29CHL1    C2 2119   2.712   5.691   6.720  0.2726  0.1998  0.7564
   29CHL1   H2A 2120   2.617   5.679   6.665  0.6415  1.4422 -0.1878
   29CHL1   H2B 2121   2.757   5.589   6.719 -2.0634 -0.8915  0.7084
   29CHL1   C20 2122   2.830   5.717   7.653  0.2961  0.5333 -0.6333
   29CHL1   H20 2123   2.897   5.631   7.630 -0.7997 -0.5597  0.1213
   29CHL1   C21 2124   2.687   5.655   7.677 -0.0530 -0.1896  0.2881
   29CHL1  H21A 2125   2.616   5.739   7.697  0.1946  0.1733 -0.3162
   29CHL1  H21B 2126   2.690   5.596   7.770  1.0330  1.1566  1.1488
   29CHL1  H21C 2127   2.645   5.599   7.590  1.1795  1.8013 -1.7194
   29CHL1   C22 2128   2.887   5.780   7.788 -0.3271  0.1899  0.6128
   29CHL1  H22A 2129   2.980   5.839   7.770 -0.3563 -0.2620 -1.1910
   29CHL1  H22B 2130   2.808   5.846   7.830  0.1801  0.0373  1.8497
   29CHL1   C23 2131   2.917   5.676   7.893  0.0501  0.0982  0.0592
   29CHL1  H23A 2132   2.824   5.615   7.900  0.4382 -0.7981 -1.9114
   29CHL1  H23B 2133   2.999   5.609   7.858  1.1057  1.3480  0.0802
   29CHL1   C24 2134   2.963   5.747   8.022  0.2748  0.9131  0.3002
   29CHL1  H24A 2135   3.035   5.829   8.003  0.1446  1.8588  3.2644
   29CHL1  H24B 2136   2.873   5.788   8.073 -0.2907 -2.2197  2.0883
   29CHL1   C25 2137   3.042   5.659   8.132  0.0588 -0.2951 -0.0488
   29CHL1   H25 2138   3.138   5.640   8.080  1.0816  2.7974  0.5236
   29CHL1   C26 2139   3.075   5.742   8.255 -0.2554 -0.3765 -0.1068
   29CHL1  H26A 2140   3.123   5.840   8.239  0.5137 -1.1278 -2.7738
   29CHL1  H26B 2141   2.972   5.767   8.290 -0.7312 -0.2516 -1.5394
   29CHL1  H26C 2142   3.127   5.667   8.319 -0.9735 -0.4506  0.4087
   29CHL1   C27 2143   2.973   5.535   8.176 -0.1482  0.1265 -0.3739
   29CHL1  H27A 2144   2.876   5.573   8.215 -0.7661 -0.7887 -0.9813
   29CHL1  H27B 2145   2.960   5.464   8.091 -2.6838 -1.6741  1.3944
   29CHL1  H27C 2146   3.030   5.490   8.260 -2.6621  2.1816  2.6197
   30CHL1    C3 2147   1.729   2.965   7.302 -0.4189  0.0151 -0.3566
   30CHL1    H3 2148   1.619   2.979   7.306 -0.5983 -1.4900  0.3615
   30CHL1    O3 2149   1.760   2.956   7.170  0.0716 -0.0313  0.2773
   30CHL1   H3' 2150   1.844   2.913   7.157 -0.5831 -1.7122  1.1841
   30CHL1    C4 2151   1.795   3.092   7.368  0.1148  0.8567  0.4006
   30CHL1   H4A 2152   1.900   3.088   7.332  0.1499  1.6372  0.4064
   30CHL1   H4B 2153   1.758   3.183   7.315  0.3704 -0.3784 -2.0111
   30CHL1    C5 2154   1.776   3.097   7.518 -0.3129 -0.2362 -0.0040
   30CHL1    C6 2155   1.718   3.205   7.579 -0.9244 -0.0535 -0.3734
   30CHL1    H6 2156   1.678   3.292   7.524 -1.6641 -0.6040 -0.7131
   30CHL1    C7 2157   1.699   3.226   7.721 -0.3104 -0.1472 -0.3579
   30CHL1   H7A 2158   1.749   3.319   7.753 -0.8735 -0.2082  0.7789
   30CHL1   H7B 2159   1.594   3.249   7.749  0.3820  0.6289  1.8338
   30CHL1    C8 2160   1.759   3.110   7.813 -0.1714 -0.4925 -0.0100
   30CHL1    H8 2161   1.869   3.117   7.822 -0.3673  1.8165  1.7346
   30CHL1   C14 2162   1.701   3.121   7.951  0.0458  0.3599  0.5100
   30CHL1   H14 2163   1.592   3.110   7.932  0.0968  2.2036 -1.1554
   30CHL1   C15 2164   1.719   3.250   8.022  0.1513  0.5917  0.1452
   30CHL1  H15A 2165   1.822   3.289   8.012  1.3467 -2.4472 -0.6144
   30CHL1  H15B 2166   1.641   3.320   7.985 -0.8074 -1.1068 -1.2015
   30CHL1   C16 2167   1.670   3.219   8.157  0.0228  0.1378  0.6644
   30CHL1  H16A 2168   1.752   3.259   8.220  0.7620 -0.1137 -0.1147
   30CHL1  H16B 2169   1.568   3.257   8.177 -0.2555 -1.0563  1.6267
   30CHL1   C17 2170   1.669   3.063   8.169  0.0097  0.7975  0.4067
   30CHL1   H17 2171   1.568   3.037   8.134  0.2538  0.9674 -0.4426
   30CHL1   C13 2172   1.756   3.010   8.046  0.5561 -0.2169 -0.0216
   30CHL1   C18 2173   1.901   3.029   8.084 -0.0075  0.4796  0.0629
   30CHL1  H18A 2174   1.976   3.039   8.003 -0.2337  2.7582  0.0641
   30CHL1  H18B 2175   1.923   3.120   8.144  3.1718 -0.5333  0.6494
   30CHL1  H18C 2176   1.930   2.942   8.147  0.2052  0.7539  0.3477
   30CHL1   C12 2177   1.727   2.869   7.989  0.6057  0.0854 -0.9165
   30CHL1  H12A 2178   1.774   2.787   8.046 -1.1402 -3.2146 -3.8100
   30CHL1  H12B 2179   1.616   2.858   7.992  0.5007  1.1616  1.3396
   30CHL1   C11 2180   1.774   2.859   7.839 -0.0015 -0.2589 -1.1216
   30CHL1  H11A 2181   1.884   2.858   7.855 -0.1786 -1.5952  0.1884
   30CHL1  H11B 2182   1.746   2.760   7.799  3.1799 -1.6468 -0.2390
   30CHL1    C9 2183   1.726   2.977   7.743 -0.2065 -0.9296  0.7746
   30CHL1    H9 2184   1.615   2.970   7.741 -0.2938  0.1779 -1.6686
   30CHL1   C10 2185   1.792   2.973   7.602 -0.1916 -0.5724  0.5716
   30CHL1   C19 2186   1.941   2.954   7.610 -0.6416  0.7877 -0.9121
   30CHL1  H19A 2187   1.968   2.854   7.651 -0.7147  1.2466  0.2897
   30CHL1  H19B 2188   1.991   2.954   7.510 -0.0917  2.9381 -0.6761
   30CHL1  H19C 2189   1.994   3.019   7.682  0.8331 -0.9836 -0.3047
   30CHL1    C1 2190   1.715   2.857   7.525 -0.5669 -0.0084 -0.5816
   30CHL1   H1A 2191   1.715   2.764   7.586  0.4046 -1.5781 -2.8284
   30CHL1   H1B 2192   1.607   2.882   7.517 -1.1278 -1.8076  0.8179
   30CHL1    C2 2193   1.761   2.840   7.377 -0.3235  0.3446  0.3629
   30CHL1   H2A 2194   1.698   2.763   7.327  1.0324 -0.7334  0.2416
   30CHL1   H2B 2195   1.866   2.804   7.383  0.1182  1.6105  0.5122
   30CHL1   C20 2196   1.699   3.009   8.306 -0.0878  0.0533  0.4986
   30CHL1   H20 2197   1.801   3.035   8.342 -0.0728 -0.0407  0.5243
   30CHL1   C21 2198   1.685   2.856   8.313  0.1246  0.0111 -0.2223
   30CHL1  H21A 2199   1.681   2.820   8.418 -3.7474  2.8663  0.8509
   30CHL1  H21B 2200   1.759   2.810   8.245 -1.3765 -1.8464 -0.7017
   30CHL1  H21C 2201   1.585   2.831   8.271 -0.3832 -1.5949  1.7520
   30CHL1   C22 2202   1.618   3.073   8.420  0.3134 -1.0788 -0.2952
   30CHL1  H22A 2203   1.630   3.010   8.511 -0.5561 -2.0843 -0.8526
   30CHL1  H22B 2204   1.656   3.172   8.454 -1.1217 -1.0749  1.4767
   30CHL1   C23 2205   1.465   3.082   8.393 -0.1361  0.5258 -0.4330
   30CHL1  H23A 2206   1.446   3.121   8.290  0.3491 -0.8116 -1.0640
   30CHL1  H23B 2207   1.435   2.975   8.384 -1.7178  0.7504  1.5048
   30CHL1   C24 2208   1.379   3.163   8.497 -0.7486  0.2768  0.2712
   30CHL1  H24A 2209   1.411   3.269   8.491 -1.2462  0.5026  1.3332
   30CHL1  H24B 2210   1.271   3.158   8.470 -0.6612  0.6735 -0.1633
   30CHL1   C25 2211   1.394   3.114   8.642  1.1608 -0.0112 -0.3418
   30CHL1   H25 2212   1.499   3.122   8.677  1.0102 -3.8135  1.5038
   30CHL1   C26 2213   1.309   3.213   8.731  0.6246  0.0118 -0.1614
   30CHL1  H26A 2214   1.334   3.214   8.839  0.6708 -3.0611 -0.0520
   30CHL1  H26B 2215   1.329   3.316   8.697  0.5398 -0.5796 -2.1410
   30CHL1  H26C 2216   1.199   3.200   8.720  0.6894 -0.6289 -0.1356
   30CHL1   C27 2217   1.341   2.967   8.667  0.2291 -0.0190  0.1741
   30CHL1  H27A 2218   1.231   2.978   8.661  0.1043 -0.5898  1.2078
   30CHL1  H27B 2219   1.381   2.886   8.602 -1.8320  1.4510 -3.1656
   30CHL1  H27C 2220   1.351   2.952   8.777 -0.8700  2.0088  0.5992
   31CHL1    C3 2221   6.143   5.706   6.716  0.3454  0.5769  0.5002
   31CHL1    H3 2222   6.039   5.729   6.745 -0.7854  1.0902 -3.3420
   31CHL1    O3 2223   6.140   5.706   6.571  0.2722  0.3058  0.2360
   31CHL1   H3' 2224   6.229   5.695   6.536 -0.1293  2.7791 -1.8619
   31CHL1    C4 2225   6.245   5.818   6.758  0.1841  0.1258 -0.1562
   31CHL1   H4A 2226   6.341   5.803   6.704  0.3739  1.3282 -0.1949
   31CHL1   H4B 2227   6.197   5.908   6.714 -2.8728 -0.3921  1.8088
   31CHL1    C5 2228   6.268   5.831   6.903 -0.3456  0.6650 -0.1395
   31CHL1    C6 2229   6.259   5.946   6.972  0.4650  0.3584 -0.3063
   31CHL1    H6 2230   6.239   6.036   6.912 -0.0312 -1.1088 -2.4240
   31CHL1    C7 2231   6.275   5.960   7.125  0.1416 -0.2307 -0.1369
   31CHL1   H7A 2232   6.317   6.058   7.154 -1.5301  0.2804  0.7269
   31CHL1   H7B 2233   6.169   5.957   7.158 -0.6044  0.9032 -2.2351
   31CHL1    C8 2234   6.339   5.838   7.187  0.8728 -0.2081  0.4942
   31CHL1    H8 2235   6.447   5.836   7.160  0.9769 -2.4896  0.8774
   31CHL1   C14 2236   6.321   5.845   7.334  0.1234 -0.7708 -0.3597
   31CHL1   H14 2237   6.212   5.841   7.353  0.3198  0.8470  1.3938
   31CHL1   C15 2238   6.359   5.973   7.406 -0.0663  0.0969  0.3047
   31CHL1  H15A 2239   6.460   6.004   7.370 -0.5673 -0.5820 -1.8758
   31CHL1  H15B 2240   6.290   6.051   7.366  0.9527  0.6758 -0.3693
   31CHL1   C16 2241   6.350   5.931   7.549 -0.1023 -0.0176 -0.1166
   31CHL1  H16A 2242   6.443   5.965   7.601 -0.8782  0.1992  1.1770
   31CHL1  H16B 2243   6.264   5.962   7.612 -0.0146 -0.8524  0.4461
   31CHL1   C17 2244   6.342   5.771   7.564  0.4180 -0.1154  0.2329
   31CHL1   H17 2245   6.233   5.755   7.557  0.6280 -2.4179  1.0996
   31CHL1   C13 2246   6.378   5.728   7.418 -0.9221  0.4425 -0.1967
   31CHL1   C18 2247   6.535   5.721   7.389  0.0633  0.0775 -0.3111
   31CHL1  H18A 2248   6.575   5.824   7.402 -4.4315  1.9582  0.7281
   31CHL1  H18B 2249   6.571   5.649   7.466 -1.3059 -1.0200 -0.6615
   31CHL1  H18C 2250   6.553   5.680   7.288 -0.8270  0.7909 -0.7748
   31CHL1   C12 2251   6.296   5.602   7.364 -0.3456  0.1855 -0.4837
   31CHL1  H12A 2252   6.321   5.498   7.395 -0.9661 -0.2063 -1.2800
   31CHL1  H12B 2253   6.193   5.643   7.371  1.1440  4.1835  2.0549
   31CHL1   C11 2254   6.320   5.585   7.212 -0.4162 -0.1486  0.4553
   31CHL1  H11A 2255   6.427   5.557   7.201 -0.4090 -0.4181  1.1661
   31CHL1  H11B 2256   6.257   5.500   7.175  0.2440  0.2986 -1.8747
   31CHL1    C9 2257   6.280   5.707   7.124  0.0264  0.3491 -0.3998
   31CHL1    H9 2258   6.171   5.719   7.138 -0.0792 -1.4927  0.6013
   31CHL1   C10 2259   6.301   5.696   6.976 -0.7721  0.8375 -0.4090
   31CHL1   C19 2260   6.448   5.669   6.945 -1.1080  0.3859 -0.3454
   31CHL1  H19A 2261   6.474   5.669   6.837  3.0059 -2.0468  0.4364
   31CHL1  H19B 2262   6.525   5.733   6.994 -0.7571  0.3529 -0.8426
   31CHL1  H19C 2263   6.474   5.566   6.980 -0.4257  0.4964 -0.5097
   31CHL1    C1 2264   6.218   5.581   6.921  0.1249 -0.8401  0.4782
   31CHL1   H1A 2265   6.260   5.481   6.944 -0.3597 -0.8352  1.4249
   31CHL1   H1B 2266   6.113   5.576   6.957 -0.5333 -0.7575 -1.3216
   31CHL1    C2 2267   6.197   5.574   6.770 -0.1621  0.3660  0.6137
   31CHL1   H2A 2268   6.137   5.490   6.730  1.1484 -0.7341  0.8801
   31CHL1   H2B 2269   6.300   5.559   6.731 -0.4575  1.2622 -0.5950
   31CHL1   C20 2270   6.393   5.701   7.683 -0.5086 -0.1396 -0.4879
   31CHL1   H20 2271   6.502   5.721   7.691  0.0039 -2.7714 -0.0872
   31CHL1   C21 2272   6.372   5.547   7.666  0.1199  0.1583  0.1467
   31CHL1  H21A 2273   6.432   5.509   7.581 -0.2105  1.3104 -0.6291
   31CHL1  H21B 2274   6.265   5.526   7.643 -0.3234  3.4051 -1.3367
   31CHL1  H21C 2275   6.413   5.484   7.748  2.4432  1.2539 -0.0930
   31CHL1   C22 2276   6.336   5.750   7.821  0.0256 -0.4501 -0.3680
   31CHL1  H22A 2277   6.357   5.859   7.820  0.1244 -0.4618 -1.3256
   31CHL1  H22B 2278   6.226   5.735   7.827  0.0464  0.0782  2.3249
   31CHL1   C23 2279   6.389   5.686   7.947 -0.2326  0.2002 -0.5923
   31CHL1  H23A 2280   6.388   5.575   7.940 -0.7651  0.0885  0.9333
   31CHL1  H23B 2281   6.491   5.718   7.977  0.4010 -1.7298 -0.4906
   31CHL1   C24 2282   6.311   5.708   8.081 -0.3007  0.6865 -0.1092
   31CHL1  H24A 2283   6.291   5.817   8.086  2.6892  1.3751 -0.8714
   31CHL1  H24B 2284   6.216   5.650   8.079 -1.4099  2.4542 -1.3702
   31CHL1   C25 2285   6.393   5.665   8.207 -0.4269 -0.2464  0.4972
   31CHL1   H25 2286   6.475   5.591   8.194  0.5726  0.4332  2.4043
   31CHL1   C26 2287   6.456   5.789   8.270 -0.2711 -0.0607  0.8766
   31CHL1  H26A 2288   6.382   5.870   8.285 -1.5872 -0.8570 -0.9481
   31CHL1  H26B 2289   6.501   5.760   8.367 -1.4408 -0.7094  1.2466
   31CHL1  H26C 2290   6.549   5.816   8.215 -0.2272 -1.6719  0.0999
   31CHL1   C27 2291   6.298   5.603   8.316 -0.7088 -0.3049  0.2667
   31CHL1  H27A 2292   6.287   5.496   8.289  0.8584 -0.2753 -0.5842
   31CHL1  H27B 2293   6.197   5.649   8.308 -0.3525  0.2774 -1.2824
   31CHL1  H27C 2294   6.336   5.615   8.419 -1.7948 -1.0235  0.7738
   32CHL1    C3 2295   2.053   3.808   7.117 -0.4042 -0.0512  0.2861
   32CHL1    H3 2296   2.090   3.704   7.133  0.2605 -0.2634 -2.2639
   32CHL1    O3 2297   2.046   3.834   6.985 -0.0117  0.1626 -0.4054
   32CHL1   H3' 2298   2.015   3.925   6.984 -2.4818 -0.5906  0.2885
   32CHL1    C4 2299   1.922   3.814   7.186 -0.1632 -0.0736 -0.5394
   32CHL1   H4A 2300   1.873   3.911   7.163  1.4909  0.5843 -1.5146
   32CHL1   H4B 2301   1.850   3.741   7.143 -1.1489  0.1341  0.7072
   32CHL1    C5 2302   1.932   3.790   7.338 -0.1722 -0.4225  0.1227
   32CHL1    C6 2303   1.856   3.693   7.395  0.1109  0.0619  0.7015
   32CHL1    H6 2304   1.790   3.631   7.332  0.4925  0.7256 -0.3762
   32CHL1    C7 2305   1.867   3.651   7.541  0.2932 -0.0802 -0.2522
   32CHL1   H7A 2306   1.765   3.615   7.569  0.5704 -1.7360 -1.2889
   32CHL1   H7B 2307   1.939   3.566   7.540  3.0974  2.1389  0.3601
   32CHL1    C8 2308   1.932   3.760   7.629  0.2799 -0.1369  0.3385
   32CHL1    H8 2309   1.861   3.842   7.654  1.0145 -0.7530  5.3778
   32CHL1   C14 2310   1.967   3.716   7.778 -0.7754 -0.2001  0.8849
   32CHL1   H14 2311   2.034   3.628   7.771  0.4763  0.8341 -1.9748
   32CHL1   C15 2312   1.856   3.656   7.867  0.1273 -0.0564 -0.1472
   32CHL1  H15A 2313   1.772   3.729   7.865  0.0001  0.0017  2.9039
   32CHL1  H15B 2314   1.829   3.551   7.844  0.3019 -0.3124  0.7648
   32CHL1   C16 2315   1.911   3.654   8.009 -0.5801 -0.3587 -0.1273
   32CHL1  H16A 2316   1.842   3.692   8.087  1.1554 -0.2370  1.4305
   32CHL1  H16B 2317   1.941   3.548   8.027 -3.4427 -1.1732  0.3039
   32CHL1   C17 2318   2.041   3.734   8.004 -0.8275 -0.0558 -0.1553
   32CHL1   H17 2319   2.115   3.653   7.988 -2.1520 -1.3461  0.0101
   32CHL1   C13 2320   2.038   3.814   7.867 -0.3163 -0.3251 -0.9277
   32CHL1   C18 2321   1.954   3.933   7.886 -0.2190 -0.4639  0.1587
   32CHL1  H18A 2322   1.876   3.922   7.964  0.8915 -0.9395  1.2536
   32CHL1  H18B 2323   2.024   4.014   7.915  2.7033 -3.5461  2.7215
   32CHL1  H18C 2324   1.894   3.956   7.796 -1.0950 -2.6676  0.0991
   32CHL1   C12 2325   2.168   3.854   7.792 -0.6792 -0.0612  0.2599
   32CHL1  H12A 2326   2.231   3.924   7.852 -0.6625  2.6222 -2.6324
   32CHL1  H12B 2327   2.236   3.766   7.783 -1.5215 -0.5691 -1.6519
   32CHL1   C11 2328   2.138   3.919   7.654 -1.0926 -0.5704  0.1413
   32CHL1  H11A 2329   2.084   4.015   7.668 -0.9758 -0.3677 -0.7537
   32CHL1  H11B 2330   2.238   3.939   7.611 -0.3070 -2.9492  0.6774
   32CHL1    C9 2331   2.058   3.824   7.561  0.4651 -0.0976 -0.0170
   32CHL1    H9 2332   2.123   3.734   7.553  1.4078  0.6965 -1.8215
   32CHL1   C10 2333   2.038   3.874   7.413 -0.5139 -0.1366 -0.8643
   32CHL1   C19 2334   1.975   4.014   7.419 -0.1253 -0.2526  0.1362
   32CHL1  H19A 2335   1.891   4.017   7.491  0.9942  1.6872  1.4580
   32CHL1  H19B 2336   2.038   4.100   7.452 -2.9559  1.1736  2.2505
   32CHL1  H19C 2337   1.948   4.050   7.317  3.5937  1.2805 -0.4765
   32CHL1    C1 2338   2.173   3.867   7.335 -0.1174  0.2271 -0.4902
   32CHL1   H1A 2339   2.248   3.939   7.374  0.2992 -0.7618  0.6018
   32CHL1   H1B 2340   2.221   3.768   7.352 -0.4198  0.0152 -0.8527
   32CHL1    C2 2341   2.165   3.894   7.181  0.4190 -0.0529  0.2700
   32CHL1   H2A 2342   2.259   3.876   7.125 -0.6079 -0.1514 -1.5007
   32CHL1   H2B 2343   2.138   4.000   7.161 -2.3806 -0.7899 -0.2682
   32CHL1   C20 2344   2.070   3.805   8.141 -0.1480  0.1977  0.4988
   32CHL1   H20 2345   1.999   3.886   8.168  0.5533  1.2565 -0.7257
   32CHL1   C21 2346   2.208   3.870   8.124 -0.4484  0.5210  0.0943
   32CHL1  H21A 2347   2.203   3.953   8.050 -2.4755 -0.3678 -0.8536
   32CHL1  H21B 2348   2.279   3.805   8.068 -0.5924  0.7257 -0.3349
   32CHL1  H21C 2349   2.257   3.913   8.214  2.4876 -1.0669 -0.6033
   32CHL1   C22 2350   2.060   3.707   8.255  0.4284  0.3959  0.3500
   32CHL1  H22A 2351   1.959   3.662   8.263  1.1548 -1.5547 -0.7451
   32CHL1  H22B 2352   2.115   3.619   8.215 -2.1287 -0.5645 -1.3450
   32CHL1   C23 2353   2.116   3.749   8.391 -0.4101  0.2862  0.3544
   32CHL1  H23A 2354   2.224   3.755   8.365 -0.0269  1.6492  2.0515
   32CHL1  H23B 2355   2.079   3.848   8.424 -1.5351  0.1602 -0.4889
   32CHL1   C24 2356   2.113   3.635   8.501 -0.3812 -0.2510 -0.0037
   32CHL1  H24A 2357   2.004   3.624   8.521 -1.0381  3.1536 -0.9522
   32CHL1  H24B 2358   2.146   3.538   8.459 -0.0400  0.0853 -0.5396
   32CHL1   C25 2359   2.204   3.663   8.623 -0.4496 -1.1106  0.8172
   32CHL1   H25 2360   2.302   3.675   8.571 -1.8940 -0.5276 -2.0196
   32CHL1   C26 2361   2.178   3.796   8.689  0.5240 -0.6978 -0.0278
   32CHL1  H26A 2362   2.183   3.887   8.626 -0.6561  1.3593  2.6169
   32CHL1  H26B 2363   2.075   3.794   8.731 -0.1582  0.1172 -1.6171
   32CHL1  H26C 2364   2.250   3.820   8.770 -1.1351  0.9448  1.0554
   32CHL1   C27 2365   2.209   3.546   8.721 -0.0374  0.5084 -0.1868
   32CHL1  H27A 2366   2.107   3.533   8.763  0.0740  1.4893  0.4201
   32CHL1  H27B 2367   2.238   3.454   8.666  0.8689  0.9324 -0.4444
   32CHL1  H27C 2368   2.274   3.566   8.809  0.5922 -0.6704 -0.3569
   33CHL1    C3 2369   3.073   4.181   6.935 -0.2001 -0.0903 -0.2070
   33CHL1    H3 2370   2.986   4.237   6.976  0.4019 -0.0483  1.0475
   33CHL1    O3 2371   3.069   4.205   6.795 -0.1671 -0.1223 -0.2857
   33CHL1   H3' 2372   2.982   4.174   6.767  1.2285 -3.7924 -1.0521
   33CHL1    C4 2373   3.205   4.232   6.993 -0.2236 -0.3594  0.5778
   33CHL1   H4A 2374   3.294   4.182   6.949  0.2839  0.4665  0.6407
   33CHL1   H4B 2375   3.211   4.341   6.974 -0.6620 -0.2729  0.9424
   33CHL1    C5 2376   3.205   4.208   7.140  0.0426 -0.5092 -0.2244
   33CHL1    C6 2377   3.215   4.315   7.225 -0.3654 -0.4577 -0.0918
   33CHL1    H6 2378   3.224   4.419   7.190  0.4041 -0.6731 -0.5600
   33CHL1    C7 2379   3.226   4.301   7.371 -0.1806 -0.2974 -0.1692
   33CHL1   H7A 2380   3.313   4.358   7.410  0.6510 -1.5546 -0.1515
   33CHL1   H7B 2381   3.129   4.343   7.406 -0.2595  0.5087 -1.2740
   33CHL1    C8 2382   3.243   4.154   7.422 -0.0971  0.3140 -0.1817
   33CHL1    H8 2383   3.351   4.130   7.420 -0.9188 -4.4924  1.5794
   33CHL1   C14 2384   3.196   4.151   7.565  0.2688 -1.0306 -0.5509
   33CHL1   H14 2385   3.090   4.184   7.567  0.5508 -0.0352  2.1897
   33CHL1   C15 2386   3.261   4.245   7.660 -0.6247  0.1695  0.0060
   33CHL1  H15A 2387   3.372   4.252   7.655 -0.5459 -0.0756  1.1281
   33CHL1  H15B 2388   3.229   4.350   7.643  0.8243  1.0032  2.0017
   33CHL1   C16 2389   3.226   4.196   7.795  0.0986  0.6179  0.2283
   33CHL1  H16A 2390   3.323   4.184   7.848  1.2947  1.3633 -1.6952
   33CHL1  H16B 2391   3.150   4.262   7.842 -2.9454 -1.8739 -0.7881
   33CHL1   C17 2392   3.164   4.054   7.778 -0.9923  0.5621  0.0954
   33CHL1   H17 2393   3.054   4.066   7.778 -1.0665 -0.1128 -0.2758
   33CHL1   C13 2394   3.207   4.010   7.636  0.4677 -0.2604  0.5542
   33CHL1   C18 2395   3.361   3.965   7.632  0.4709 -0.0883 -0.0173
   33CHL1  H18A 2396   3.400   3.957   7.528 -0.6121 -0.1161 -0.4335
   33CHL1  H18B 2397   3.422   4.036   7.691 -1.7079  0.2358  2.0113
   33CHL1  H18C 2398   3.363   3.865   7.680  3.0832  0.1245  0.4292
   33CHL1   C12 2399   3.113   3.913   7.554 -0.4963 -0.2422  0.2014
   33CHL1  H12A 2400   3.120   3.808   7.592  1.8758  0.4968  2.0743
   33CHL1  H12B 2401   3.010   3.954   7.549 -0.3682 -0.0974 -1.5474
   33CHL1   C11 2402   3.156   3.910   7.404 -0.5184 -0.5207  0.2190
   33CHL1  H11A 2403   3.257   3.871   7.377 -0.3434 -0.1155  0.2671
   33CHL1  H11B 2404   3.082   3.850   7.348 -1.7425  0.8234  0.3315
   33CHL1    C9 2405   3.155   4.056   7.341 -0.1440 -0.0336 -0.0400
   33CHL1    H9 2406   3.049   4.088   7.339 -0.0178  0.4165  0.4249
   33CHL1   C10 2407   3.192   4.061   7.192  0.0772 -0.4550  0.3938
   33CHL1   C19 2408   3.325   3.984   7.165  0.7754  0.2592 -0.1845
   33CHL1  H19A 2409   3.362   4.006   7.063 -0.6909 -0.6868 -0.9508
   33CHL1  H19B 2410   3.400   4.024   7.237 -2.2783  2.0797  2.2312
   33CHL1  H19C 2411   3.305   3.875   7.174 -0.1600  0.4048 -0.4044
   33CHL1    C1 2412   3.081   3.992   7.110  0.2150 -1.0365  0.5489
   33CHL1   H1A 2413   3.083   3.882   7.119 -1.0130 -1.1685 -0.4493
   33CHL1   H1B 2414   2.989   4.017   7.166  1.2196  2.3250  0.9423
   33CHL1    C2 2415   3.057   4.028   6.968 -0.1759  0.4384 -0.1725
   33CHL1   H2A 2416   2.952   3.998   6.953  0.2715 -1.4931  0.3690
   33CHL1   H2B 2417   3.130   3.973   6.905 -0.6565  0.5648 -0.8507
   33CHL1   C20 2418   3.191   3.955   7.895  0.0843  0.9421 -0.3814
   33CHL1   H20 2419   3.296   3.917   7.891 -0.3867 -0.3424 -1.2593
   33CHL1   C21 2420   3.090   3.839   7.875 -0.5183  0.2339  0.2303
   33CHL1  H21A 2421   3.091   3.769   7.962 -0.7953  0.6312  0.5588
   33CHL1  H21B 2422   3.118   3.781   7.785 -1.9816 -1.0111  0.5537
   33CHL1  H21C 2423   2.988   3.881   7.862 -0.9475 -0.7874  0.2362
   33CHL1   C22 2424   3.183   4.014   8.033  0.3141  0.0119 -0.6176
   33CHL1  H22A 2425   3.265   4.088   8.034  2.0486 -1.8138  0.7446
   33CHL1  H22B 2426   3.086   4.068   8.044 -0.0518  0.0715 -3.4233
   33CHL1   C23 2427   3.203   3.914   8.145 -0.2352 -0.4138  0.4268
   33CHL1  H23A 2428   3.123   3.837   8.144 -0.1677 -0.5222  1.7216
   33CHL1  H23B 2429   3.293   3.852   8.129 -1.3023 -1.7310 -0.8092
   33CHL1   C24 2430   3.221   3.959   8.286  0.1898 -0.1878 -0.4971
   33CHL1  H24A 2431   3.309   4.027   8.290 -1.9297  2.7487 -0.0960
   33CHL1  H24B 2432   3.135   4.019   8.325 -0.2491 -1.4930  0.6285
   33CHL1   C25 2433   3.231   3.855   8.402  0.2616  0.1165 -0.2231
   33CHL1   H25 2434   3.306   3.777   8.375  1.3413  0.3130  2.0046
   33CHL1   C26 2435   3.290   3.918   8.526  0.5236  0.6522 -0.7124
   33CHL1  H26A 2436   3.291   3.833   8.598 -0.1024  0.4351 -0.9511
   33CHL1  H26B 2437   3.391   3.962   8.516  0.5196  0.2752 -3.0343
   33CHL1  H26C 2438   3.222   4.000   8.558  0.6116  1.1241 -1.6863
   33CHL1   C27 2439   3.098   3.783   8.434 -0.3754 -0.3545  0.8000
   33CHL1  H27A 2440   3.096   3.723   8.527 -2.0891  0.3961  1.2942
   33CHL1  H27B 2441   3.027   3.862   8.466  0.3516 -0.1304  1.8919
   33CHL1  H27C 2442   3.061   3.728   8.345  1.0312 -0.0789  0.0225
   34CHL1    C3 2443   1.003   1.876   7.080 -0.1155 -0.4705 -0.7071
   34CHL1    H3 2444   0.933   1.942   7.136  0.6268 -0.6892  0.5208
   34CHL1    O3 2445   0.978   1.881   6.939 -0.0385  0.4671 -0.1202
   34CHL1   H3' 2446   0.999   1.970   6.908 -4.8853  1.6268 -0.9706
   34CHL1    C4 2447   1.144   1.918   7.115 -0.2788 -0.3249  0.2796
   34CHL1   H4A 2448   1.225   1.854   7.072 -0.2837 -0.2417  0.1467
   34CHL1   H4B 2449   1.165   2.015   7.064  0.2464  0.5840  2.1396
   34CHL1    C5 2450   1.181   1.911   7.258 -0.4033 -0.6486  0.3119
   34CHL1    C6 2451   1.232   2.021   7.320  0.1649  0.1750 -0.0897
   34CHL1    H6 2452   1.260   2.110   7.261 -0.2986  0.2609 -0.1852
   34CHL1    C7 2453   1.266   2.021   7.463  0.8171  0.0516  0.5959
   34CHL1   H7A 2454   1.369   2.060   7.473  0.5132  1.2801 -0.7153
   34CHL1   H7B 2455   1.196   2.100   7.498 -0.8502  0.1491 -2.5034
   34CHL1    C8 2456   1.258   1.881   7.530  0.1131 -0.1746 -0.9859
   34CHL1    H8 2457   1.347   1.821   7.501 -0.5985 -0.6231 -2.3471
   34CHL1   C14 2458   1.246   1.890   7.677  0.5888 -0.5350 -0.0610
   34CHL1   H14 2459   1.143   1.932   7.679  0.3483 -1.1109 -0.3422
   34CHL1   C15 2460   1.345   1.980   7.746  0.0378 -0.6753 -0.1959
   34CHL1  H15A 2461   1.447   1.946   7.718  0.0991  0.3318 -1.3051
   34CHL1  H15B 2462   1.334   2.090   7.733  2.1728 -0.5119 -1.1267
   34CHL1   C16 2463   1.314   1.961   7.892  0.2271 -0.5398 -0.3674
   34CHL1  H16A 2464   1.408   1.919   7.932  0.7815 -0.2953 -1.3791
   34CHL1  H16B 2465   1.290   2.052   7.950 -1.2684 -0.0500 -1.6704
   34CHL1   C17 2466   1.210   1.841   7.892  0.7070  0.3057 -0.2428
   34CHL1   H17 2467   1.112   1.892   7.884 -0.6226 -2.1982 -0.8530
   34CHL1   C13 2468   1.220   1.765   7.760  0.1104 -0.4520 -0.4305
   34CHL1   C18 2469   1.346   1.677   7.757 -0.3662 -0.3644  0.1307
   34CHL1  H18A 2470   1.364   1.662   7.648  1.0229  1.0252  0.1342
   34CHL1  H18B 2471   1.432   1.717   7.815  0.4088 -2.3529  0.4426
   34CHL1  H18C 2472   1.333   1.579   7.809 -0.6411 -0.6594 -0.4782
   34CHL1   C12 2473   1.093   1.695   7.712  0.0172  0.0785 -0.7848
   34CHL1  H12A 2474   1.081   1.603   7.773  2.2918  0.8772  1.0105
   34CHL1  H12B 2475   1.003   1.759   7.719 -0.8197 -1.0766 -0.7315
   34CHL1   C11 2476   1.096   1.670   7.562 -0.4426 -0.2553  0.2462
   34CHL1  H11A 2477   1.173   1.593   7.539 -1.1344 -0.7335 -0.5500
   34CHL1  H11B 2478   1.001   1.621   7.533  0.2403 -2.1546  1.0956
   34CHL1    C9 2479   1.137   1.801   7.481  0.5652  0.1665 -0.4235
   34CHL1    H9 2480   1.053   1.872   7.503 -0.1294 -0.1999 -1.8164
   34CHL1   C10 2481   1.138   1.780   7.324  0.7866 -0.5898 -0.6288
   34CHL1   C19 2482   1.252   1.682   7.285  0.0413 -0.2478 -0.2759
   34CHL1  H19A 2483   1.348   1.732   7.311  0.2948 -0.9031  0.0839
   34CHL1  H19B 2484   1.244   1.588   7.344  0.5627  0.5642  1.1485
   34CHL1  H19C 2485   1.250   1.652   7.179 -0.6875 -1.3708  0.0396
   34CHL1    C1 2486   1.007   1.720   7.272  0.5024 -0.3008 -0.6257
   34CHL1   H1A 2487   1.004   1.611   7.295  1.3164 -0.0361  0.8248
   34CHL1   H1B 2488   0.913   1.757   7.319  0.8912 -0.4549  0.2989
   34CHL1    C2 2489   0.978   1.734   7.121 -0.0199 -0.9349  0.2381
   34CHL1   H2A 2490   0.871   1.711   7.106 -0.2523  0.8126 -1.0751
   34CHL1   H2B 2491   1.045   1.661   7.070 -0.0644 -0.7853 -0.0398
   34CHL1   C20 2492   1.207   1.764   8.020 -0.4255  0.5658  0.7430
   34CHL1   H20 2493   1.257   1.666   8.006  1.5088  1.7635 -1.3673
   34CHL1   C21 2494   1.056   1.729   8.036  1.1332 -0.1486 -0.0055
   34CHL1  H21A 2495   1.018   1.657   7.960  0.6611  0.9481 -0.8375
   34CHL1  H21B 2496   0.991   1.819   8.028  0.8235 -0.0503  2.5807
   34CHL1  H21C 2497   1.051   1.679   8.136  1.0511  0.5113  0.3246
   34CHL1   C22 2498   1.281   1.831   8.139  0.7122  0.1766  0.3613
   34CHL1  H22A 2499   1.388   1.817   8.113  0.2567  0.2258 -1.7725
   34CHL1  H22B 2500   1.259   1.940   8.142 -1.9019 -0.1883 -1.4629
   34CHL1   C23 2501   1.255   1.768   8.276  0.4141  0.0589  0.6129
   34CHL1  H23A 2502   1.147   1.775   8.302 -0.4767 -0.2147 -2.5293
   34CHL1  H23B 2503   1.280   1.660   8.281 -0.3254 -0.0770  1.7604
   34CHL1   C24 2504   1.333   1.836   8.384 -0.1484 -0.0795 -0.2566
   34CHL1  H24A 2505   1.438   1.808   8.362 -0.0161 -1.6168  2.0499
   34CHL1  H24B 2506   1.308   1.944   8.378 -0.8411 -0.2752 -1.1366
   34CHL1   C25 2507   1.312   1.790   8.533 -0.0020 -0.0536  0.2160
   34CHL1   H25 2508   1.206   1.801   8.563  0.5038  1.0267  1.6723
   34CHL1   C26 2509   1.355   1.644   8.556  0.0783 -0.3998  0.2584
   34CHL1  H26A 2510   1.462   1.621   8.538  0.1349 -1.1003  1.3956
   34CHL1  H26B 2511   1.329   1.597   8.653  0.8586 -2.7870 -0.6150
   34CHL1  H26C 2512   1.306   1.579   8.480  0.8106 -1.3822  0.6005
   34CHL1   C27 2513   1.400   1.887   8.620 -0.1128 -0.2436 -0.2496
   34CHL1  H27A 2514   1.505   1.878   8.586 -0.2074  0.0603 -0.6287
   34CHL1  H27B 2515   1.357   1.990   8.611 -1.6085 -0.8352 -0.1442
   34CHL1  H27C 2516   1.392   1.864   8.728 -2.1933  2.7637  0.3836
   35CHL1    C3 2517   6.100   4.276   7.329  0.0350  0.3287  0.2706
   35CHL1    H3 2518   6.009   4.337   7.345  0.7037  1.3780  0.2256
   35CHL1    O3 2519   6.130   4.268   7.192  0.4509  0.5814  0.4475
   35CHL1   H3' 2520   6.219   4.303   7.182  0.5919 -0.2910 -2.4177
   35CHL1    C4 2521   6.212   4.360   7.394  0.1279 -0.2517 -0.5413
   35CHL1   H4A 2522   6.307   4.312   7.363  1.3259  1.8937 -0.3380
   35CHL1   H4B 2523   6.207   4.460   7.346 -1.5940  0.2220  0.5356
   35CHL1    C5 2524   6.195   4.368   7.546 -0.0467 -0.3194  0.3177
   35CHL1    C6 2525   6.198   4.483   7.619  0.3422  0.2471 -0.4159
   35CHL1    H6 2526   6.213   4.583   7.575  0.5049  0.1645 -0.5523
   35CHL1    C7 2527   6.200   4.483   7.772 -0.0204 -0.5295 -1.0089
   35CHL1   H7A 2528   6.276   4.557   7.807 -0.6533 -0.1365 -0.4566
   35CHL1   H7B 2529   6.100   4.519   7.801  0.6227 -0.5941  1.4748
   35CHL1    C8 2530   6.222   4.345   7.837  0.9445 -0.1717 -0.0861
   35CHL1    H8 2531   6.330   4.321   7.836  1.3906  1.2876 -3.9285
   35CHL1   C14 2532   6.161   4.340   7.979  0.1309  0.8505 -0.0918
   35CHL1   H14 2533   6.051   4.339   7.969 -0.0229 -0.2702  1.4659
   35CHL1   C15 2534   6.206   4.454   8.069  0.1290 -0.3961  0.1062
   35CHL1  H15A 2535   6.307   4.493   8.045 -0.0946  0.3368  0.3289
   35CHL1  H15B 2536   6.131   4.536   8.061 -0.6759 -1.1041  0.1747
   35CHL1   C16 2537   6.190   4.405   8.208 -0.0052 -0.2528  0.6724
   35CHL1  H16A 2538   6.288   4.410   8.259  0.8330  3.5803 -0.9794
   35CHL1  H16B 2539   6.115   4.462   8.268 -0.7795  0.6696 -1.1110
   35CHL1   C17 2540   6.133   4.260   8.195  0.0796 -0.0826 -0.1842
   35CHL1   H17 2541   6.025   4.245   8.175  0.3025  0.3219 -1.8125
   35CHL1   C13 2542   6.190   4.213   8.054 -0.9464 -0.1022 -0.1577
   35CHL1   C18 2543   6.347   4.185   8.074 -0.1783  0.5775  0.7453
   35CHL1  H18A 2544   6.400   4.174   7.977  2.0444 -4.3188  2.2278
   35CHL1  H18B 2545   6.404   4.262   8.131  2.3416  0.8743 -1.8857
   35CHL1  H18C 2546   6.361   4.085   8.120 -3.1119 -1.5519 -2.4324
   35CHL1   C12 2547   6.117   4.094   7.986 -0.7763  0.1777 -0.0560
   35CHL1  H12A 2548   6.145   3.992   8.020 -1.8646 -0.9190 -2.2568
   35CHL1  H12B 2549   6.010   4.114   8.005 -0.8637 -0.5493  0.2428
   35CHL1   C11 2550   6.149   4.098   7.835  0.1764  0.3829  0.0883
   35CHL1  H11A 2551   6.252   4.058   7.832 -0.1613 -0.7640  1.9170
   35CHL1  H11B 2552   6.091   4.019   7.783 -1.6593  0.3064  2.0897
   35CHL1    C9 2553   6.144   4.234   7.763 -0.4613 -0.6643  0.2898
   35CHL1    H9 2554   6.039   4.272   7.767 -0.1277  0.9619 -3.0761
   35CHL1   C10 2555   6.189   4.225   7.613 -0.1843 -0.4651  0.5966
   35CHL1   C19 2556   6.326   4.156   7.593 -0.2223 -1.0154  0.1901
   35CHL1  H19A 2557   6.397   4.214   7.655 -0.0068 -1.6139  0.5062
   35CHL1  H19B 2558   6.323   4.047   7.611 -3.1475 -1.1005 -0.1884
   35CHL1  H19C 2559   6.366   4.171   7.490 -2.4664 -3.1627 -1.1182
   35CHL1    C1 2560   6.072   4.149   7.537  0.5558  0.4699  0.0539
   35CHL1   H1A 2561   6.046   4.050   7.580 -0.0349 -0.5133 -2.4267
   35CHL1   H1B 2562   5.976   4.206   7.545 -1.4554 -2.6431 -0.4541
   35CHL1    C2 2563   6.096   4.138   7.387  0.0789  0.6594  0.2636
   35CHL1   H2A 2564   6.026   4.076   7.327  0.6017  0.7023 -0.4006
   35CHL1   H2B 2565   6.190   4.082   7.370 -1.5542 -1.5799 -2.0646
   35CHL1   C20 2566   6.176   4.172   8.321 -0.4755 -0.2031  0.2666
   35CHL1   H20 2567   6.281   4.143   8.300 -1.0315 -1.8146 -0.4644
   35CHL1   C21 2568   6.092   4.040   8.328 -0.3591 -0.3129 -0.4127
   35CHL1  H21A 2569   6.094   3.983   8.232  0.9001  0.9813 -1.1983
   35CHL1  H21B 2570   5.990   4.074   8.355  1.4192  0.8819  6.7957
   35CHL1  H21C 2571   6.133   3.973   8.406  1.1435  0.7723 -0.2321
   35CHL1   C22 2572   6.173   4.243   8.461  0.5870 -0.3493  0.0805
   35CHL1  H22A 2573   6.224   4.342   8.457 -1.4131  0.6997 -0.6250
   35CHL1  H22B 2574   6.070   4.264   8.496  0.4220 -2.7600  1.2598
   35CHL1   C23 2575   6.237   4.156   8.575 -0.9367  0.1869  0.5236
   35CHL1  H23A 2576   6.193   4.054   8.576  0.6189 -0.5555 -1.0402
   35CHL1  H23B 2577   6.344   4.155   8.545 -1.0398  1.0562  0.0920
   35CHL1   C24 2578   6.230   4.225   8.718  0.0436 -0.0292 -0.7219
   35CHL1  H24A 2579   6.287   4.321   8.716  1.5309 -0.8303  0.9357
   35CHL1  H24B 2580   6.122   4.244   8.730  0.1072 -0.8652  1.6790
   35CHL1   C25 2581   6.268   4.134   8.832 -0.7284  0.0658 -0.6698
   35CHL1   H25 2582   6.250   4.028   8.805 -0.4172 -0.2073  0.1437
   35CHL1   C26 2583   6.423   4.127   8.860 -0.1693  0.8890  0.2020
   35CHL1  H26A 2584   6.476   4.079   8.776 -1.3386 -1.4362  0.6982
   35CHL1  H26B 2585   6.455   4.233   8.870  1.1582  0.4930  0.3201
   35CHL1  H26C 2586   6.440   4.078   8.958  0.8787  1.5638  0.3708
   35CHL1   C27 2587   6.201   4.176   8.967  0.2585 -0.0330  0.5654
   35CHL1  H27A 2588   6.091   4.169   8.951  0.3941 -0.6110 -0.1356
   35CHL1  H27B 2589   6.219   4.283   8.990  0.1248  0.1525 -0.1584
   35CHL1  H27C 2590   6.244   4.122   9.054  2.3343 -1.7487 -1.4089
   36CHL1    C3 2591   5.296   5.997   7.213  0.1947 -0.0119 -0.5699
   36CHL1    H3 2592   5.243   5.900   7.226 -0.8666  0.6228  0.0432
   36CHL1    O3 2593   5.290   6.029   7.078  0.5235 -0.1929 -0.2155
   36CHL1   H3' 2594   5.371   6.072   7.050 -0.0356  0.6639 -0.5933
   36CHL1    C4 2595   5.208   6.101   7.278  0.1348 -0.7532 -0.2051
   36CHL1   H4A 2596   5.252   6.200   7.257  1.5957 -0.4573  3.6332
   36CHL1   H4B 2597   5.105   6.098   7.236 -1.6506  2.3453  3.4605
   36CHL1    C5 2598   5.202   6.076   7.427  0.0037 -0.3949  0.0480
   36CHL1    C6 2599   5.089   6.062   7.497  0.4465  0.0097 -0.9181
   36CHL1    H6 2600   4.987   6.056   7.457 -0.2084 -2.4080  0.8233
   36CHL1    C7 2601   5.090   6.060   7.646  0.4314  0.0154 -0.2024
   36CHL1   H7A 2602   4.998   6.118   7.672 -0.2898  0.1996 -2.8624
   36CHL1   H7B 2603   5.065   5.954   7.669 -1.1165 -0.0665 -2.0103
   36CHL1    C8 2604   5.222   6.101   7.710 -0.4088 -0.2128 -0.7999
   36CHL1    H8 2605   5.237   6.212   7.712  3.6299 -0.6179  1.2867
   36CHL1   C14 2606   5.217   6.057   7.862  0.6125  0.1402 -0.2100
   36CHL1   H14 2607   5.200   5.947   7.864  2.9455 -0.3144 -1.4709
   36CHL1   C15 2608   5.111   6.115   7.959  0.1613  0.0739  0.1233
   36CHL1  H15A 2609   5.100   6.223   7.934 -0.1467 -0.2996 -1.4178
   36CHL1  H15B 2610   5.007   6.080   7.943 -0.5912  2.0954  0.2064
   36CHL1   C16 2611   5.169   6.086   8.102  0.1761  0.8623  0.6170
   36CHL1  H16A 2612   5.172   6.173   8.170  1.2567  0.4126  1.1700
   36CHL1  H16B 2613   5.109   6.005   8.149  0.7965 -0.5057 -0.8207
   36CHL1   C17 2614   5.319   6.024   8.074  0.0734 -1.0179  0.3030
   36CHL1   H17 2615   5.318   5.913   8.071 -0.4250 -1.0280  0.7197
   36CHL1   C13 2616   5.352   6.079   7.935  0.1917 -0.0842 -0.0167
   36CHL1   C18 2617   5.379   6.223   7.944 -0.2477 -0.0532 -0.1003
   36CHL1  H18A 2618   5.307   6.283   8.004  0.1808  0.9542 -0.5634
   36CHL1  H18B 2619   5.477   6.249   7.988  0.2250  0.8607 -1.6021
   36CHL1  H18C 2620   5.373   6.279   7.848 -1.0344 -1.8520 -1.1570
   36CHL1   C12 2621   5.470   6.008   7.863  0.1114  0.7603 -0.1444
   36CHL1  H12A 2622   5.562   6.041   7.914 -0.1664  0.6821  0.4089
   36CHL1  H12B 2623   5.468   5.898   7.871  0.0630  0.5632 -2.1756
   36CHL1   C11 2624   5.475   6.047   7.713 -0.9514  0.1378 -0.5167
   36CHL1  H11A 2625   5.511   6.152   7.710 -1.6367  0.3642 -1.0271
   36CHL1  H11B 2626   5.542   5.978   7.659 -0.0356  0.6945 -0.1218
   36CHL1    C9 2627   5.337   6.036   7.639 -0.0669  0.7341  0.0297
   36CHL1    H9 2628   5.310   5.928   7.646  1.0062  0.4330 -0.3069
   36CHL1   C10 2629   5.345   6.070   7.495 -0.3439 -0.0849  0.5786
   36CHL1   C19 2630   5.396   6.219   7.476  0.2676 -0.1675 -0.1711
   36CHL1  H19A 2631   5.501   6.221   7.512  0.1774  0.3634  0.0664
   36CHL1  H19B 2632   5.393   6.255   7.371 -2.8894 -0.4364 -0.2823
   36CHL1  H19C 2633   5.332   6.289   7.533 -0.3128 -0.5733 -0.3146
   36CHL1    C1 2634   5.440   5.975   7.431 -0.3726 -0.6290  0.0872
   36CHL1   H1A 2635   5.541   5.991   7.472 -1.5483  0.3615  2.8276
   36CHL1   H1B 2636   5.400   5.875   7.460 -1.2805 -0.1697  0.4643
   36CHL1    C2 2637   5.434   6.003   7.276 -0.8555  0.7316 -0.6214
   36CHL1   H2A 2638   5.502   5.930   7.227  1.3653  1.2921  1.4005
   36CHL1   H2B 2639   5.481   6.104   7.266  1.5278  0.0790  2.5190
   36CHL1   C20 2640   5.414   6.053   8.190 -0.5560 -0.1441  0.7079
   36CHL1   H20 2641   5.447   6.159   8.180  0.7252 -0.5784  0.0506
   36CHL1   C21 2642   5.542   5.965   8.191  0.3112  0.4133  0.1436
   36CHL1  H21A 2643   5.535   5.892   8.275  0.4023 -1.7350 -1.6270
   36CHL1  H21B 2644   5.635   6.025   8.197  1.0003 -0.7484  4.2434
   36CHL1  H21C 2645   5.553   5.896   8.105  1.4125  1.7968 -0.8667
   36CHL1   C22 2646   5.354   6.030   8.336 -0.0862 -0.8213  1.0009
   36CHL1  H22A 2647   5.246   6.052   8.349 -0.3779 -1.5033 -0.1420
   36CHL1  H22B 2648   5.349   5.919   8.348 -2.8563 -1.0931 -1.5470
   36CHL1   C23 2649   5.439   6.096   8.445  0.4072  0.7766  0.0594
   36CHL1  H23A 2650   5.545   6.067   8.433  0.4506  1.5357 -1.5542
   36CHL1  H23B 2651   5.434   6.207   8.444  0.9001  0.8105  0.7415
   36CHL1   C24 2652   5.398   6.050   8.584 -0.1255  0.1247 -0.5208
   36CHL1  H24A 2653   5.389   5.940   8.593  0.1198  0.1911  0.6426
   36CHL1  H24B 2654   5.475   6.081   8.657 -0.7905  0.5492  0.0169
   36CHL1   C25 2655   5.253   6.092   8.621  0.1844 -0.2254 -0.3638
   36CHL1   H25 2656   5.180   6.058   8.544  1.9362 -0.3430 -2.0478
   36CHL1   C26 2657   5.219   6.034   8.762  1.0498 -0.4512 -0.3472
   36CHL1  H26A 2658   5.300   6.067   8.830  1.2340 -0.4648 -0.5574
   36CHL1  H26B 2659   5.124   6.079   8.801  1.0813 -0.1609 -0.5941
   36CHL1  H26C 2660   5.221   5.923   8.762 -1.3727 -0.5683  0.9957
   36CHL1   C27 2661   5.248   6.244   8.643  0.4841  0.4089 -0.8951
   36CHL1  H27A 2662   5.145   6.280   8.664 -0.4986 -2.5056 -0.1873
   36CHL1  H27B 2663   5.312   6.267   8.730 -0.1471  0.3754 -0.4130
   36CHL1  H27C 2664   5.279   6.301   8.553 -0.7189 -1.1034 -2.3401
   37CHL1    C3 2665   2.680   3.622   6.933 -0.3521  0.2434 -1.3506
   37CHL1    H3 2666   2.742   3.530   6.932  0.4362  0.7644 -0.9760
   37CHL1    O3 2667   2.658   3.646   6.795  0.5305 -0.5587 -0.7408
   37CHL1   H3' 2668   2.613   3.731   6.800 -1.1935 -1.4915  0.8234
   37CHL1    C4 2669   2.551   3.612   7.018  0.5844  0.3822 -0.4770
   37CHL1   H4A 2670   2.488   3.701   6.995  0.9306  0.5849 -0.6568
   37CHL1   H4B 2671   2.491   3.525   6.986  0.7130 -1.0142  2.6617
   37CHL1    C5 2672   2.581   3.601   7.165  0.8370  0.4272 -0.6607
   37CHL1    C6 2673   2.519   3.505   7.233  0.2234  0.4867 -0.0882
   37CHL1    H6 2674   2.463   3.426   7.181 -0.1142  1.9514 -2.0573
   37CHL1    C7 2675   2.531   3.497   7.388  0.0715  0.0345 -0.1226
   37CHL1   H7A 2676   2.442   3.461   7.443 -0.7650  1.0646 -0.7354
   37CHL1   H7B 2677   2.601   3.413   7.407  0.3925  0.5844  1.2328
   37CHL1    C8 2678   2.572   3.628   7.452  1.0998  1.2542  0.7054
   37CHL1    H8 2679   2.481   3.692   7.464 -2.8606 -3.7475  0.6239
   37CHL1   C14 2680   2.614   3.600   7.597  0.4643  0.4568  0.2980
   37CHL1   H14 2681   2.698   3.529   7.582  0.1067  0.1040 -0.0862
   37CHL1   C15 2682   2.506   3.522   7.680  0.0427 -0.2559 -0.1495
   37CHL1  H15A 2683   2.403   3.563   7.671  0.1628  0.2471  0.6706
   37CHL1  H15B 2684   2.505   3.413   7.659  1.2849 -0.4231  0.5620
   37CHL1   C16 2685   2.555   3.555   7.823  0.7655  0.3471 -0.6660
   37CHL1  H16A 2686   2.475   3.597   7.888  0.5211 -0.3542 -0.5051
   37CHL1  H16B 2687   2.582   3.462   7.878  0.5770  0.3851 -0.5049
   37CHL1   C17 2688   2.680   3.646   7.808 -0.5058  0.0627 -0.0538
   37CHL1   H17 2689   2.767   3.579   7.790 -0.1653 -0.3156  2.6794
   37CHL1   C13 2690   2.661   3.720   7.674  0.3655 -0.0380  0.1018
   37CHL1   C18 2691   2.545   3.825   7.695  0.5847 -0.0924  0.3064
   37CHL1  H18A 2692   2.511   3.861   7.595  0.7764 -1.1277 -0.1466
   37CHL1  H18B 2693   2.450   3.791   7.741 -1.4983  0.5163 -3.1619
   37CHL1  H18C 2694   2.579   3.908   7.760  0.8402 -0.7180  0.9915
   37CHL1   C12 2695   2.779   3.781   7.603 -0.2237  0.3693  0.4981
   37CHL1  H12A 2696   2.817   3.867   7.662 -0.7600  0.2602  1.0160
   37CHL1  H12B 2697   2.864   3.710   7.600 -0.1489  0.5077 -1.2432
   37CHL1   C11 2698   2.740   3.823   7.459 -0.2475  0.1300 -0.5130
   37CHL1  H11A 2699   2.671   3.910   7.460  0.2894  0.5902 -1.6267
   37CHL1  H11B 2700   2.825   3.868   7.402 -0.1254 -0.2386 -0.6288
   37CHL1    C9 2701   2.690   3.696   7.379  0.2349  0.3124 -0.1483
   37CHL1    H9 2702   2.775   3.625   7.371  0.6841  0.6056  1.6088
   37CHL1   C10 2703   2.653   3.722   7.225 -0.3446  0.2472  0.2806
   37CHL1   C19 2704   2.556   3.844   7.215 -0.6911 -0.8055 -0.2814
   37CHL1  H19A 2705   2.463   3.837   7.275 -0.8150  0.4239 -0.3063
   37CHL1  H19B 2706   2.606   3.936   7.254 -1.0780 -0.9469  0.5827
   37CHL1  H19C 2707   2.523   3.857   7.110 -0.5462 -4.1585 -0.8563
   37CHL1    C1 2708   2.784   3.744   7.143  0.3521 -0.6552  0.1337
   37CHL1   H1A 2709   2.836   3.840   7.162 -0.4740  0.3216 -2.2144
   37CHL1   H1B 2710   2.856   3.663   7.167  0.5044 -0.5705 -0.0273
   37CHL1    C2 2711   2.772   3.739   6.989  0.7146  0.5443 -0.2823
   37CHL1   H2A 2712   2.874   3.729   6.946  0.7303 -2.9229  0.2950
   37CHL1   H2B 2713   2.727   3.833   6.950  0.5818  0.4983 -0.2418
   37CHL1   C20 2714   2.737   3.722   7.931 -0.2481 -0.3511  0.1550
   37CHL1   H20 2715   2.802   3.808   7.905  0.1957 -0.8401 -0.3685
   37CHL1   C21 2716   2.819   3.622   8.012  0.7972  0.1457  0.3003
   37CHL1  H21A 2717   2.880   3.664   8.094  1.8625 -1.2740  0.2853
   37CHL1  H21B 2718   2.892   3.577   7.941 -0.1706  1.7853 -1.8343
   37CHL1  H21C 2719   2.762   3.544   8.067  1.1355 -1.1899 -1.1823
   37CHL1   C22 2720   2.626   3.781   8.023 -0.2060  0.0373  0.0693
   37CHL1  H22A 2721   2.566   3.847   7.957 -0.1091  0.3379  0.2774
   37CHL1  H22B 2722   2.564   3.695   8.057 -1.5665  0.6422 -0.8115
   37CHL1   C23 2723   2.681   3.861   8.146 -0.9270 -0.2006  0.0882
   37CHL1  H23A 2724   2.739   3.786   8.205 -0.7675 -0.0696  0.0997
   37CHL1  H23B 2725   2.758   3.936   8.118  0.3077 -1.1243  0.8822
   37CHL1   C24 2726   2.564   3.921   8.220 -0.3672  0.2243  0.1837
   37CHL1  H24A 2727   2.517   3.995   8.152  2.0364  0.0293 -1.8020
   37CHL1  H24B 2728   2.490   3.845   8.254  1.3940 -0.2103  3.4061
   37CHL1   C25 2729   2.600   3.997   8.348 -0.5179 -0.6947  0.0407
   37CHL1   H25 2730   2.700   4.040   8.323 -0.9060  0.6845  0.7469
   37CHL1   C26 2731   2.502   4.116   8.366 -0.5367  1.1770  0.4713
   37CHL1  H26A 2732   2.529   4.172   8.458 -2.2023  0.8561  1.1907
   37CHL1  H26B 2733   2.498   4.180   8.275  0.9887 -0.1305 -0.5761
   37CHL1  H26C 2734   2.400   4.074   8.375 -0.4387  0.7822 -0.1772
   37CHL1   C27 2735   2.613   3.911   8.479 -0.5662  0.2514  0.8671
   37CHL1  H27A 2736   2.654   3.813   8.448  1.2514  1.8840 -2.3729
   37CHL1  H27B 2737   2.678   3.957   8.557 -0.9525  1.8984  0.2486
   37CHL1  H27C 2738   2.514   3.889   8.525 -0.7384  2.3328  1.5870
   38CHL1    C3 2739   0.729   3.421   6.872 -0.0249  1.0973  0.6733
   38CHL1    H3 2740   0.806   3.494   6.903 -1.1431  1.7145  2.1025
   38CHL1    O3 2741   0.727   3.419   6.730  0.1166  0.7897  0.3740
   38CHL1   H3' 2742   0.704   3.505   6.695 -0.4594 -0.3359 -2.3043
   38CHL1    C4 2743   0.775   3.285   6.923  0.1695 -0.1468 -0.7626
   38CHL1   H4A 2744   0.698   3.210   6.895  0.8722 -1.9194  1.7066
   38CHL1   H4B 2745   0.869   3.251   6.874  0.1457 -0.4427 -0.6065
   38CHL1    C5 2746   0.785   3.312   7.077 -0.0796  0.2873  0.3172
   38CHL1    C6 2747   0.903   3.298   7.141  0.7539 -0.2478  0.5290
   38CHL1    H6 2748   0.990   3.287   7.076  0.4926  1.3484 -0.1314
   38CHL1    C7 2749   0.931   3.299   7.291 -0.9797  0.0755 -0.3066
   38CHL1   H7A 2750   0.985   3.211   7.333 -0.6809  0.5172  0.2449
   38CHL1   H7B 2751   0.988   3.387   7.327 -0.5920 -1.0146  1.9335
   38CHL1    C8 2752   0.794   3.283   7.368  0.5347 -0.2021  0.7515
   38CHL1    H8 2753   0.762   3.176   7.368 -0.3765  0.0254  2.5818
   38CHL1   C14 2754   0.807   3.329   7.519 -0.3515 -0.2743 -0.2124
   38CHL1   H14 2755   0.837   3.435   7.505 -1.8143  0.4216  1.5235
   38CHL1   C15 2756   0.916   3.258   7.595 -0.2998 -0.0680 -0.3256
   38CHL1  H15A 2757   0.913   3.149   7.572 -1.0676 -0.3854  1.1451
   38CHL1  H15B 2758   1.019   3.299   7.585 -0.0615 -0.7408 -0.6998
   38CHL1   C16 2759   0.869   3.279   7.737 -0.1930 -0.2923 -0.5128
   38CHL1  H16A 2760   0.853   3.178   7.780  2.6005 -0.0368  1.4392
   38CHL1  H16B 2761   0.950   3.322   7.801 -0.6291  0.6269 -0.5750
   38CHL1   C17 2762   0.740   3.359   7.740 -0.0142 -0.1402  0.1582
   38CHL1   H17 2763   0.775   3.464   7.737 -0.2864 -0.0518  0.0930
   38CHL1   C13 2764   0.684   3.328   7.600 -0.2524  0.1194 -0.5912
   38CHL1   C18 2765   0.628   3.186   7.600  0.3277  0.2233  0.0197
   38CHL1  H18A 2766   0.567   3.168   7.691  1.3985 -2.0801  0.3555
   38CHL1  H18B 2767   0.578   3.153   7.507  2.8234 -3.2841 -0.3153
   38CHL1  H18C 2768   0.710   3.112   7.616 -0.1503  0.0460  1.8646
   38CHL1   C12 2769   0.592   3.436   7.537  0.4600 -0.3776 -0.3144
   38CHL1  H12A 2770   0.501   3.456   7.599  0.7491  1.5465 -0.4293
   38CHL1  H12B 2771   0.646   3.533   7.532 -0.1041 -0.0470 -0.1161
   38CHL1   C11 2772   0.550   3.405   7.389 -0.0980  0.3349  0.2161
   38CHL1  H11A 2773   0.477   3.322   7.390 -0.7896  0.9410  1.0309
   38CHL1  H11B 2774   0.506   3.494   7.338  2.1800  1.3206 -0.1928
   38CHL1    C9 2775   0.679   3.368   7.302 -0.1071  0.3557  0.1507
   38CHL1    H9 2776   0.727   3.467   7.286  0.8454 -0.0566  0.3907
   38CHL1   C10 2777   0.652   3.330   7.150 -0.5630  0.3243 -0.1984
   38CHL1   C19 2778   0.566   3.204   7.145 -0.3808  0.2801 -0.2184
   38CHL1  H19A 2779   0.604   3.130   7.218 -1.7166 -1.0491 -0.8239
   38CHL1  H19B 2780   0.460   3.230   7.168 -0.8085 -1.8419  0.4042
   38CHL1  H19C 2781   0.560   3.157   7.045  1.5384 -0.7962  0.1270
   38CHL1    C1 2782   0.588   3.451   7.083  0.2050 -0.0576  0.8366
   38CHL1   H1A 2783   0.481   3.456   7.112  0.2729 -3.8902  2.2534
   38CHL1   H1B 2784   0.625   3.551   7.114 -2.3914  0.8784  1.1526
   38CHL1    C2 2785   0.593   3.458   6.929 -0.0977 -0.3719 -0.2362
   38CHL1   H2A 2786   0.562   3.559   6.894 -0.4555 -0.1349  0.7304
   38CHL1   H2B 2787   0.522   3.377   6.900 -1.5105  2.2139 -5.1236
   38CHL1   C20 2788   0.657   3.346   7.866 -0.5423 -0.5806  0.5302
   38CHL1   H20 2789   0.610   3.245   7.865  0.5161 -1.0972  1.2392
   38CHL1   C21 2790   0.547   3.450   7.866  0.2874 -0.1938  0.0374
   38CHL1  H21A 2791   0.587   3.543   7.818 -0.2647  0.0072 -0.0346
   38CHL1  H21B 2792   0.502   3.473   7.964  0.8077  2.5013 -0.2900
   38CHL1  H21C 2793   0.464   3.411   7.804  0.5272 -0.8297  0.1095
   38CHL1   C22 2794   0.739   3.360   7.996 -0.8635  0.1677  0.0194
   38CHL1  H22A 2795   0.812   3.277   7.985 -0.5596  0.2449  1.3258
   38CHL1  H22B 2796   0.781   3.461   8.015  1.3737 -0.6452 -0.2169
   38CHL1   C23 2797   0.672   3.315   8.124 -0.0705  0.0938 -0.2308
   38CHL1  H23A 2798   0.582   3.377   8.141  0.0597 -0.6019  4.6482
   38CHL1  H23B 2799   0.634   3.212   8.109 -1.1770  0.3954  0.4303
   38CHL1   C24 2800   0.768   3.324   8.243 -0.7357 -0.3140 -0.0927
   38CHL1  H24A 2801   0.861   3.267   8.220  1.2530  2.9754 -0.9664
   38CHL1  H24B 2802   0.788   3.431   8.264  0.6366 -0.1226 -2.0515
   38CHL1   C25 2803   0.718   3.265   8.380 -0.0291 -0.3348 -0.4924
   38CHL1   H25 2804   0.675   3.168   8.346  0.5540 -1.0708  0.7804
   38CHL1   C26 2805   0.817   3.237   8.489 -0.3635 -0.1387 -1.1780
   38CHL1  H26A 2806   0.920   3.207   8.458 -0.0522  0.0919 -0.3814
   38CHL1  H26B 2807   0.839   3.335   8.537  0.9766 -0.6796 -0.6396
   38CHL1  H26C 2808   0.777   3.165   8.563 -1.1408  0.1469 -1.3178
   38CHL1   C27 2809   0.606   3.356   8.432 -0.8879  0.0279 -0.6649
   38CHL1  H27A 2810   0.643   3.461   8.441 -2.1571  0.3743  1.0716
   38CHL1  H27B 2811   0.526   3.351   8.355 -2.0970 -0.6792  0.5997
   38CHL1  H27C 2812   0.574   3.311   8.528  0.6449  1.5845  0.6591
   39CHL1    C3 2813   5.667   1.358   6.757 -0.1608  0.6661  0.3205
   39CHL1    H3 2814   5.741   1.276   6.754 -0.4340  0.4232  0.1638
   39CHL1    O3 2815   5.660   1.395   6.618  0.1305 -0.1660  1.0288
   39CHL1   H3' 2816   5.595   1.467   6.624  0.0542  0.0321 -1.2655
   39CHL1    C4 2817   5.533   1.320   6.807  0.0620  0.0489 -0.4507
   39CHL1   H4A 2818   5.466   1.406   6.789  0.9539  0.8296 -0.0862
   39CHL1   H4B 2819   5.497   1.232   6.749  2.6112 -2.1166  1.0558
   39CHL1    C5 2820   5.536   1.275   6.955  0.0189  0.0940  0.7857
   39CHL1    C6 2821   5.505   1.148   6.991 -0.3857  0.8405 -0.6446
   39CHL1    H6 2822   5.463   1.080   6.916  1.0500  0.6513 -1.3156
   39CHL1    C7 2823   5.502   1.105   7.142 -0.8101  0.0023  0.2633
   39CHL1   H7A 2824   5.396   1.074   7.147 -2.2656  4.0472 -1.1603
   39CHL1   H7B 2825   5.575   1.023   7.160 -0.1380  0.1958 -1.4160
   39CHL1    C8 2826   5.530   1.219   7.245  0.3601 -0.0848  0.2134
   39CHL1    H8 2827   5.437   1.279   7.251  2.1243  3.0507 -1.3785
   39CHL1   C14 2828   5.592   1.168   7.376 -0.4438 -0.1670 -0.2639
   39CHL1   H14 2829   5.694   1.137   7.344 -0.3186  0.1317 -0.1577
   39CHL1   C15 2830   5.520   1.046   7.438  0.1790  0.4554 -0.1675
   39CHL1  H15A 2831   5.413   1.049   7.410  0.4682  2.1303 -1.2573
   39CHL1  H15B 2832   5.573   0.950   7.418  0.4355  0.6264 -0.3115
   39CHL1   C16 2833   5.541   1.057   7.593 -0.5680 -0.4540  0.7073
   39CHL1  H16A 2834   5.445   1.080   7.644 -0.7095 -0.8640  0.6338
   39CHL1  H16B 2835   5.583   0.967   7.644 -1.4740 -2.2002 -1.4429
   39CHL1   C17 2836   5.641   1.173   7.607 -0.5049  0.1262  0.0954
   39CHL1   H17 2837   5.743   1.136   7.581 -0.7203  1.3071 -2.7999
   39CHL1   C13 2838   5.610   1.269   7.485 -0.0215  0.2899  0.0584
   39CHL1   C18 2839   5.471   1.339   7.499  0.2032 -0.3086  0.0852
   39CHL1  H18A 2840   5.464   1.418   7.577  1.1108  0.0722 -0.1957
   39CHL1  H18B 2841   5.464   1.396   7.404  1.9921 -1.9199 -1.0946
   39CHL1  H18C 2842   5.387   1.268   7.513  0.0191  0.1739  1.6811
   39CHL1   C12 2843   5.721   1.367   7.438  0.3829  0.1242  0.7038
   39CHL1  H12A 2844   5.722   1.456   7.505 -0.4112 -0.2672  1.2702
   39CHL1  H12B 2845   5.820   1.318   7.430 -0.4506 -1.3376 -1.7238
   39CHL1   C11 2846   5.685   1.418   7.297  0.5650 -0.1392  0.1578
   39CHL1  H11A 2847   5.609   1.497   7.313  1.3517  1.0033 -1.4279
   39CHL1  H11B 2848   5.776   1.469   7.260  1.0733 -0.2871  1.1862
   39CHL1    C9 2849   5.631   1.316   7.194 -0.0722 -0.0263 -0.3443
   39CHL1    H9 2850   5.717   1.251   7.167  0.3578 -0.8264  2.6090
   39CHL1   C10 2851   5.604   1.379   7.050  0.4796  0.1916 -0.3499
   39CHL1   C19 2852   5.497   1.492   7.063  0.5849 -0.3399  0.4347
   39CHL1  H19A 2853   5.400   1.452   7.100  0.3311 -2.5955 -2.3402
   39CHL1  H19B 2854   5.536   1.570   7.131  0.0153  0.7638 -0.4666
   39CHL1  H19C 2855   5.468   1.531   6.963 -0.9071  2.4641  1.8487
   39CHL1    C1 2856   5.727   1.443   6.986  0.3005 -0.3067 -1.0189
   39CHL1   H1A 2857   5.751   1.531   7.049 -1.2867 -3.4088  4.5673
   39CHL1   H1B 2858   5.818   1.381   6.998  1.2704  1.3874  1.0116
   39CHL1    C2 2859   5.717   1.479   6.835 -0.1272  0.1951  0.4452
   39CHL1   H2A 2860   5.819   1.506   6.799 -0.7741  1.1147 -0.7775
   39CHL1   H2B 2861   5.657   1.569   6.807  0.5482 -0.1721 -2.4562
   39CHL1   C20 2862   5.643   1.234   7.746  0.0664  0.0125  0.3944
   39CHL1   H20 2863   5.558   1.305   7.754  0.4935  0.4167  1.5252
   39CHL1   C21 2864   5.778   1.307   7.780  0.7235 -0.7924  0.1901
   39CHL1  H21A 2865   5.758   1.386   7.855  2.3342 -1.0725  0.9450
   39CHL1  H21B 2866   5.805   1.357   7.685 -0.9655  1.3787  0.7774
   39CHL1  H21C 2867   5.852   1.228   7.806  2.4240  0.0425 -1.8121
   39CHL1   C22 2868   5.630   1.129   7.854  0.1723  0.6775  0.3690
   39CHL1  H22A 2869   5.547   1.058   7.840 -2.0336  2.9463  1.1578
   39CHL1  H22B 2870   5.731   1.082   7.852  0.9514  2.2741 -0.3039
   39CHL1   C23 2871   5.606   1.185   7.993  0.1778  0.3940 -0.3446
   39CHL1  H23A 2872   5.688   1.258   8.010  0.0888  0.6207 -0.8728
   39CHL1  H23B 2873   5.503   1.228   8.000 -0.9777 -2.0155 -1.4273
   39CHL1   C24 2874   5.596   1.084   8.112 -0.3325 -0.5435 -0.1586
   39CHL1  H24A 2875   5.540   1.133   8.195 -2.2164 -1.8578 -0.5966
   39CHL1  H24B 2876   5.530   0.999   8.086 -1.7647  0.4618  0.0467
   39CHL1   C25 2877   5.732   1.029   8.157  0.0622  0.9344  0.1451
   39CHL1   H25 2878   5.786   1.002   8.064 -0.8741 -0.1953 -0.0844
   39CHL1   C26 2879   5.823   1.119   8.239  0.0882  0.4612  0.6452
   39CHL1  H26A 2880   5.790   1.117   8.344  0.8228  0.0252  0.8742
   39CHL1  H26B 2881   5.931   1.094   8.239 -0.1701 -0.8011  2.3014
   39CHL1  H26C 2882   5.823   1.220   8.192  0.4671  0.5929  0.9201
   39CHL1   C27 2883   5.714   0.896   8.237  0.3967 -0.3196 -0.0600
   39CHL1  H27A 2884   5.660   0.915   8.332  2.2046  2.1795  0.5835
   39CHL1  H27B 2885   5.651   0.828   8.176 -0.4671 -0.2463  0.7309
   39CHL1  H27C 2886   5.816   0.860   8.259 -0.3062 -1.3253  1.7749
   40CHL1    C3 2887   0.697   4.273   7.087 -0.0844 -0.1048 -0.4828
   40CHL1    H3 2888   0.605   4.334   7.094  1.6000  2.4332  1.9791
   40CHL1    O3 2889   0.710   4.223   6.953 -0.6318  0.2102  0.3494
   40CHL1   H3' 2890   0.797   4.185   6.945 -1.0493 -0.5283 -0.9297
   40CHL1    C4 2891   0.820   4.363   7.122 -0.4535  0.0885 -0.3806
   40CHL1   H4A 2892   0.919   4.319   7.100  1.2802  3.2656  0.5003
   40CHL1   H4B 2893   0.798   4.446   7.051 -1.0315 -0.3952 -0.7848
   40CHL1    C5 2894   0.825   4.404   7.268  0.2141  0.4464 -0.5521
   40CHL1    C6 2895   0.833   4.533   7.303  0.7166  0.0397 -0.2113
   40CHL1    H6 2896   0.852   4.610   7.226 -0.4680  1.1875  0.5931
   40CHL1    C7 2897   0.846   4.578   7.444 -0.3237 -0.3363 -0.1347
   40CHL1   H7A 2898   0.927   4.649   7.471 -1.5327  0.5002  1.5085
   40CHL1   H7B 2899   0.745   4.617   7.469 -1.1126 -1.4749 -1.4099
   40CHL1    C8 2900   0.871   4.459   7.544 -0.7527  0.2040 -0.1467
   40CHL1    H8 2901   0.981   4.445   7.533 -1.0000 -0.7729 -1.6211
   40CHL1   C14 2902   0.835   4.498   7.685 -1.5343 -0.0193 -0.6618
   40CHL1   H14 2903   0.726   4.518   7.686 -1.4552  0.5071  1.1188
   40CHL1   C15 2904   0.899   4.622   7.747 -0.1793 -0.1163  0.1218
   40CHL1  H15A 2905   1.008   4.633   7.728  0.4034 -0.4655  2.7781
   40CHL1  H15B 2906   0.843   4.712   7.713 -1.1055 -0.8310 -0.2683
   40CHL1   C16 2907   0.883   4.605   7.903 -0.2655 -0.3132 -0.1534
   40CHL1  H16A 2908   0.985   4.614   7.945 -1.2107 -0.4837  2.3490
   40CHL1  H16B 2909   0.823   4.688   7.947  0.4364 -1.5935  3.5391
   40CHL1   C17 2910   0.815   4.473   7.923 -0.0373  0.2331 -0.6637
   40CHL1   H17 2911   0.707   4.493   7.932 -0.3491 -0.9175 -1.6465
   40CHL1   C13 2912   0.845   4.391   7.795 -0.3263  0.4577 -0.2973
   40CHL1   C18 2913   0.994   4.349   7.808 -0.5281  0.5979 -0.3133
   40CHL1  H18A 2914   1.065   4.427   7.844 -1.0972  0.3463  1.4133
   40CHL1  H18B 2915   1.014   4.265   7.877  2.5918  1.7310  0.3557
   40CHL1  H18C 2916   1.029   4.326   7.705 -3.6833 -2.6537 -0.8456
   40CHL1   C12 2917   0.757   4.264   7.760 -0.0843 -0.3705  0.2438
   40CHL1  H12A 2918   0.770   4.181   7.832  1.4672 -0.8919 -0.6010
   40CHL1  H12B 2919   0.650   4.293   7.767 -0.3771 -1.2706 -0.3959
   40CHL1   C11 2920   0.786   4.215   7.615  0.1253 -0.2481 -0.5950
   40CHL1  H11A 2921   0.887   4.175   7.638  1.0689  2.2416 -0.1058
   40CHL1  H11B 2922   0.707   4.139   7.596 -0.6763  0.1600  0.9357
   40CHL1    C9 2923   0.788   4.332   7.511  0.6292 -0.2925  1.0890
   40CHL1    H9 2924   0.687   4.376   7.525  1.1645  2.2890 -2.0569
   40CHL1   C10 2925   0.802   4.285   7.367 -0.3497 -0.5202 -0.0850
   40CHL1   C19 2926   0.930   4.203   7.359  1.0384  0.3774  0.0561
   40CHL1  H19A 2927   1.024   4.255   7.387  1.1040 -0.0170  0.5689
   40CHL1  H19B 2928   0.926   4.123   7.436 -2.3608 -0.0663 -0.4092
   40CHL1  H19C 2929   0.942   4.153   7.260  0.2846 -0.7320  0.5056
   40CHL1    C1 2930   0.684   4.192   7.330 -0.3034 -0.2410  0.7208
   40CHL1   H1A 2931   0.675   4.095   7.383 -0.8656  0.3384  1.7127
   40CHL1   H1B 2932   0.591   4.251   7.346  0.8581  1.3066  2.0981
   40CHL1    C2 2933   0.683   4.154   7.182  0.3958 -1.0169 -0.9113
   40CHL1   H2A 2934   0.591   4.099   7.152 -0.5390  0.0105 -0.0295
   40CHL1   H2B 2935   0.770   4.086   7.174  1.4927  0.0683  1.1173
   40CHL1   C20 2936   0.849   4.415   8.061 -0.7014  0.7190  0.2640
   40CHL1   H20 2937   0.954   4.380   8.057 -0.0509  2.6542 -2.1880
   40CHL1   C21 2938   0.757   4.293   8.098 -0.0226  0.5217  0.8455
   40CHL1  H21A 2939   0.764   4.275   8.207 -0.8079  0.5102  0.9066
   40CHL1  H21B 2940   0.799   4.205   8.045 -1.2678  0.4793 -0.1369
   40CHL1  H21C 2941   0.648   4.308   8.078 -0.1703  0.3966  1.5113
   40CHL1   C22 2942   0.858   4.516   8.183  0.1489  0.6288  0.3867
   40CHL1  H22A 2943   0.900   4.465   8.273 -1.0222 -0.0022  0.5936
   40CHL1  H22B 2944   0.931   4.596   8.160  0.1507  0.4638 -0.1929
   40CHL1   C23 2945   0.721   4.571   8.229  0.0133  0.1305 -0.1384
   40CHL1  H23A 2946   0.679   4.625   8.142  0.5850 -1.7238 -1.6486
   40CHL1  H23B 2947   0.666   4.481   8.264  1.1189  0.4855  2.8328
   40CHL1   C24 2948   0.735   4.671   8.343  0.5340 -0.3564 -0.6199
   40CHL1  H24A 2949   0.785   4.758   8.295 -1.1398  0.6318 -0.6206
   40CHL1  H24B 2950   0.634   4.714   8.354  1.3843  2.4712 -2.5005
   40CHL1   C25 2951   0.802   4.619   8.474  0.2800  0.4670  0.7113
   40CHL1   H25 2952   0.901   4.575   8.446  0.5094  0.4553  1.5243
   40CHL1   C26 2953   0.819   4.732   8.578  0.4662  0.4968 -0.5691
   40CHL1  H26A 2954   0.902   4.708   8.648  0.0634 -1.0463 -0.5714
   40CHL1  H26B 2955   0.839   4.830   8.531  1.6757  1.2635  1.3980
   40CHL1  H26C 2956   0.730   4.738   8.643  1.5901 -0.9629  1.2351
   40CHL1   C27 2957   0.736   4.494   8.538  0.5837 -1.5674 -0.4935
   40CHL1  H27A 2958   0.640   4.527   8.583  1.0312  1.1933 -1.3672
   40CHL1  H27B 2959   0.726   4.412   8.463 -1.1529 -0.4172 -1.5813
   40CHL1  H27C 2960   0.794   4.463   8.627 -2.5497 -1.6581  1.6561
   41CHL1    C3 2961   1.508   4.102   6.840  1.0299 -0.6096  0.0187
   41CHL1    H3 2962   1.475   4.207   6.847  1.0125 -0.6924  1.4518
   41CHL1    O3 2963   1.540   4.083   6.704  0.4658 -0.3644 -0.1878
   41CHL1   H3' 2964   1.562   3.990   6.707  0.8073 -0.3035 -0.7210
   41CHL1    C4 2965   1.635   4.098   6.921 -1.0142 -0.3891  0.2922
   41CHL1   H4A 2966   1.668   3.992   6.910  0.1217  0.0153 -0.4164
   41CHL1   H4B 2967   1.704   4.175   6.880 -0.0538 -1.2859  0.1944
   41CHL1    C5 2968   1.599   4.120   7.057 -0.2011  0.2561 -0.2323
   41CHL1    C6 2969   1.659   4.217   7.125  0.0403  0.4402  0.2282
   41CHL1    H6 2970   1.731   4.284   7.077 -0.1693  0.4932 -0.0164
   41CHL1    C7 2971   1.640   4.252   7.265 -0.4519 -0.2345 -0.0235
   41CHL1   H7A 2972   1.735   4.278   7.316  0.5336  1.9345 -2.6888
   41CHL1   H7B 2973   1.572   4.339   7.279  2.2139  2.3433 -1.7078
   41CHL1    C8 2974   1.580   4.132   7.341  0.5471 -0.2225 -0.3637
   41CHL1    H8 2975   1.653   4.049   7.356 -1.0562 -1.4351  1.1285
   41CHL1   C14 2976   1.529   4.175   7.480 -0.6577  0.0230 -0.2312
   41CHL1   H14 2977   1.450   4.250   7.459 -1.2683 -0.0892  1.4685
   41CHL1   C15 2978   1.630   4.244   7.569 -0.2896 -0.2503  0.4178
   41CHL1  H15A 2979   1.727   4.191   7.578  1.2591  2.5580  1.1727
   41CHL1  H15B 2980   1.652   4.343   7.525  0.0688 -1.2766 -1.8501
   41CHL1   C16 2981   1.560   4.248   7.704  0.0090 -0.3981  0.4720
   41CHL1  H16A 2982   1.634   4.221   7.782  0.1142  0.1326  0.5601
   41CHL1  H16B 2983   1.541   4.357   7.713 -1.6755 -0.7185  1.1517
   41CHL1   C17 2984   1.436   4.156   7.689  0.2153 -0.5515  0.1102
   41CHL1   H17 2985   1.345   4.215   7.661  1.3503  1.4579  0.4493
   41CHL1   C13 2986   1.461   4.074   7.563  0.6346 -0.1040 -0.0530
   41CHL1   C18 2987   1.555   3.956   7.602  0.4002  0.0544 -0.1119
   41CHL1  H18A 2988   1.510   3.856   7.624  3.8913 -1.7744 -0.5549
   41CHL1  H18B 2989   1.620   3.940   7.513  1.4624  1.3150  0.4096
   41CHL1  H18C 2990   1.604   3.981   7.699  0.2562 -2.1113  0.5748
   41CHL1   C12 2991   1.338   4.013   7.488 -0.1300  0.3569  0.1515
   41CHL1  H12A 2992   1.297   3.924   7.541  1.7721 -1.0708 -0.6557
   41CHL1  H12B 2993   1.263   4.094   7.497  0.7197  1.0317  1.3113
   41CHL1   C11 2994   1.380   3.968   7.348  0.2767 -0.4904  0.2768
   41CHL1  H11A 2995   1.452   3.884   7.355  0.3909 -0.4541 -0.4002
   41CHL1  H11B 2996   1.296   3.938   7.281  2.8146 -0.6166 -3.1013
   41CHL1    C9 2997   1.461   4.075   7.266  0.1600  0.3729 -0.4270
   41CHL1    H9 2998   1.398   4.166   7.253 -1.4505 -0.7567 -0.9080
   41CHL1   C10 2999   1.491   4.027   7.119 -0.3849  0.0611  0.1336
   41CHL1   C19 3000   1.545   3.882   7.121  0.3697  0.1588 -0.0004
   41CHL1  H19A 3001   1.592   3.846   7.027  0.5198 -0.8444  0.4422
   41CHL1  H19B 3002   1.624   3.873   7.199 -0.1928  0.1465  0.5686
   41CHL1  H19C 3003   1.459   3.815   7.141  0.0813  0.9984  1.6615
   41CHL1    C1 3004   1.359   4.033   7.039  0.0536 -0.4288 -0.3984
   41CHL1   H1A 3005   1.285   3.953   7.056 -0.7394  0.2625 -0.5534
   41CHL1   H1B 3006   1.315   4.134   7.058 -1.5644 -1.1250 -0.3378
   41CHL1    C2 3007   1.397   4.008   6.889 -0.9556  0.5139 -0.0127
   41CHL1   H2A 3008   1.314   4.028   6.818 -1.0448  0.3704  0.0492
   41CHL1   H2B 3009   1.424   3.901   6.874 -1.1512  0.5042 -0.2979
   41CHL1   C20 3010   1.396   4.100   7.832 -0.0593 -0.1552  0.0415
   41CHL1   H20 3011   1.476   4.042   7.883 -1.9718 -2.0495  1.0723
   41CHL1   C21 3012   1.280   4.002   7.827 -0.2780 -0.2774  0.0900
   41CHL1  H21A 3013   1.301   3.932   7.743 -0.6765 -0.3933  0.0842
   41CHL1  H21B 3014   1.183   4.051   7.806 -0.0103  0.2256  0.0256
   41CHL1  H21C 3015   1.280   3.934   7.915  1.6900 -1.8317 -1.0180
   41CHL1   C22 3016   1.359   4.220   7.930  0.2312 -0.3122 -0.7074
   41CHL1  H22A 3017   1.455   4.274   7.948  2.1183 -3.8333  0.8899
   41CHL1  H22B 3018   1.278   4.281   7.885  0.8140  0.7043 -0.4040
   41CHL1   C23 3019   1.319   4.177   8.069  0.0724  1.1018 -0.7203
   41CHL1  H23A 3020   1.230   4.111   8.069  2.0346 -1.8368  1.9243
   41CHL1  H23B 3021   1.393   4.111   8.118  0.0819  1.6764  0.0548
   41CHL1   C24 3022   1.324   4.292   8.174 -0.4647  0.7783  0.0067
   41CHL1  H24A 3023   1.430   4.310   8.204  0.4618  1.6675 -3.3602
   41CHL1  H24B 3024   1.293   4.388   8.127  0.8858  0.8070 -0.9140
   41CHL1   C25 3025   1.242   4.267   8.296  0.2234 -0.4979 -0.4717
   41CHL1   H25 3026   1.138   4.237   8.268 -0.6659  3.2499 -1.7050
   41CHL1   C26 3027   1.292   4.155   8.384  0.2324 -0.8165  0.1167
   41CHL1  H26A 3028   1.279   4.054   8.339 -2.3230  0.4442 -2.2411
   41CHL1  H26B 3029   1.395   4.172   8.422 -0.5226 -1.1147  2.4056
   41CHL1  H26C 3030   1.238   4.147   8.480 -1.0326 -0.2202 -0.5154
   41CHL1   C27 3031   1.236   4.403   8.379 -0.5022 -0.2923  0.2611
   41CHL1  H27A 3032   1.158   4.457   8.322 -0.2239 -0.9811 -0.8105
   41CHL1  H27B 3033   1.200   4.384   8.482 -1.7772  0.4901 -0.0200
   41CHL1  H27C 3034   1.332   4.459   8.382 -1.9374  2.3054 -0.1084
   42CHL1    C3 3035   3.213   0.967   6.989  0.2946 -0.2628 -0.7373
   42CHL1    H3 3036   3.319   0.976   6.959  1.3674  0.7856  2.8567
   42CHL1    O3 3037   3.139   0.961   6.871 -0.1485 -0.0988 -0.7948
   42CHL1   H3' 3038   3.209   0.962   6.806  1.3538 -2.7352  0.5768
   42CHL1    C4 3039   3.179   0.838   7.068 -0.4629 -0.2883  0.8454
   42CHL1   H4A 3040   3.068   0.826   7.063 -0.5855  0.5102  1.4895
   42CHL1   H4B 3041   3.210   0.742   7.023  0.5558 -0.6350  2.2170
   42CHL1    C5 3042   3.219   0.842   7.219 -0.8615  0.0689 -0.2775
   42CHL1    C6 3043   3.277   0.736   7.276  0.2176  0.2780 -0.5411
   42CHL1    H6 3044   3.289   0.643   7.218  0.7874  1.6596 -2.7941
   42CHL1    C7 3045   3.311   0.723   7.423 -0.6662 -0.3720 -0.5073
   42CHL1   H7A 3046   3.287   0.621   7.459  0.2065 -1.1679 -2.0892
   42CHL1   H7B 3047   3.418   0.749   7.431 -0.9295  0.4765  0.6866
   42CHL1    C8 3048   3.244   0.833   7.512 -0.6329 -0.5549  0.0453
   42CHL1    H8 3049   3.141   0.796   7.529 -0.6497  0.1725  1.6398
   42CHL1   C14 3050   3.307   0.848   7.649 -0.2375 -0.4403  0.3389
   42CHL1   H14 3051   3.406   0.897   7.636  0.7414 -2.4001  0.0865
   42CHL1   C15 3052   3.320   0.726   7.740  0.0738  0.2360  0.0395
   42CHL1  H15A 3053   3.227   0.665   7.742  0.3470 -0.1862  2.2306
   42CHL1  H15B 3054   3.409   0.672   7.702 -0.3420  1.0437 -2.2235
   42CHL1   C16 3055   3.339   0.780   7.878 -0.1862  0.8984 -0.2038
   42CHL1  H16A 3056   3.270   0.730   7.948  1.3529 -1.4002 -0.1941
   42CHL1  H16B 3057   3.444   0.759   7.910  0.6994 -1.4475 -3.9872
   42CHL1   C17 3058   3.310   0.931   7.876 -0.5905  0.5349  0.4297
   42CHL1   H17 3059   3.413   0.971   7.871  0.5530 -2.2172  0.0668
   42CHL1   C13 3060   3.236   0.944   7.739 -0.9972 -0.7888  0.4859
   42CHL1   C18 3061   3.087   0.901   7.764 -0.0247  0.0438 -0.0503
   42CHL1  H18A 3062   3.077   0.807   7.822 -4.4935  1.3351  1.7602
   42CHL1  H18B 3063   3.038   0.971   7.836  1.6155 -0.2002  1.3674
   42CHL1  H18C 3064   3.022   0.898   7.674 -2.0074 -1.1363  1.3219
   42CHL1   C12 3065   3.241   1.088   7.670 -0.3282 -0.0671 -0.0475
   42CHL1  H12A 3066   3.171   1.152   7.727 -0.9603 -1.0157  0.2826
   42CHL1  H12B 3067   3.345   1.127   7.666 -0.4363  0.1956 -3.8759
   42CHL1   C11 3068   3.189   1.087   7.522 -0.2466 -0.5182 -0.1330
   42CHL1  H11A 3069   3.079   1.080   7.541 -0.3947  1.1935 -0.2096
   42CHL1  H11B 3070   3.195   1.186   7.472  0.9862  0.0499  1.0906
   42CHL1    C9 3071   3.243   0.973   7.440  0.9410 -0.5032 -0.3463
   42CHL1    H9 3072   3.349   0.991   7.410  0.3734  1.6887 -1.2136
   42CHL1   C10 3073   3.172   0.968   7.296 -0.3044  0.3596 -0.0963
   42CHL1   C19 3074   3.018   0.966   7.308 -0.0594  0.1908  0.7951
   42CHL1  H19A 3075   2.989   0.897   7.390  0.7793  0.5056  1.3724
   42CHL1  H19B 3076   2.977   1.062   7.345 -0.8203  0.4226 -0.5958
   42CHL1  H19C 3077   2.972   0.941   7.210  0.4463  1.6876  0.1469
   42CHL1    C1 3078   3.220   1.085   7.212  0.6093  0.0060 -0.4559
   42CHL1   H1A 3079   3.176   1.172   7.266 -1.3890 -1.6655  0.7752
   42CHL1   H1B 3080   3.330   1.099   7.207  0.5061  0.5866 -1.2436
   42CHL1    C2 3081   3.170   1.093   7.066  0.1978  0.6521 -0.0806
   42CHL1   H2A 3082   3.198   1.189   7.017 -2.5102  1.7859  0.3895
   42CHL1   H2B 3083   3.059   1.089   7.067  0.2040 -2.7272 -1.1660
   42CHL1   C20 3084   3.246   0.980   8.006 -0.1795  0.1631 -0.1336
   42CHL1   H20 3085   3.138   0.956   8.013 -0.1960  0.2366 -0.1366
   42CHL1   C21 3086   3.259   1.134   7.998  0.7446  0.2123 -0.7307
   42CHL1  H21A 3087   3.206   1.189   8.079  0.4855  2.0833 -2.0936
   42CHL1  H21B 3088   3.234   1.185   7.903 -0.2324  1.7890  0.3240
   42CHL1  H21C 3089   3.364   1.163   8.020 -0.0799  3.4897 -0.6115
   42CHL1   C22 3090   3.331   0.927   8.131 -0.0323  0.1763 -0.5862
   42CHL1  H22A 3091   3.325   0.816   8.140  0.3064  0.2707  1.1892
   42CHL1  H22B 3092   3.439   0.940   8.108 -0.0173  2.1950  0.4655
   42CHL1   C23 3093   3.288   0.988   8.269  0.2231  0.5305 -0.0908
   42CHL1  H23A 3094   3.291   1.099   8.267 -0.5737  0.5880  0.8089
   42CHL1  H23B 3095   3.184   0.962   8.299  0.5110 -0.7886 -0.1801
   42CHL1   C24 3096   3.387   0.956   8.375 -0.5520  0.1596 -0.6927
   42CHL1  H24A 3097   3.401   0.846   8.376  2.6775  0.4437  1.0195
   42CHL1  H24B 3098   3.483   1.012   8.371 -0.4150  0.2057  1.6331
   42CHL1   C25 3099   3.322   0.987   8.519  0.4098 -0.1725  0.2928
   42CHL1   H25 3100   3.267   1.083   8.505 -1.0887 -1.1105 -0.5232
   42CHL1   C26 3101   3.215   0.879   8.569 -0.5520  0.0017  0.7968
   42CHL1  H26A 3102   3.160   0.910   8.660 -1.3833 -2.8165  1.3726
   42CHL1  H26B 3103   3.142   0.857   8.487  0.0469  1.4762 -0.1682
   42CHL1  H26C 3104   3.268   0.783   8.588  0.9932  0.8394  0.8181
   42CHL1   C27 3105   3.428   1.004   8.622 -0.0078  0.8897 -0.3760
   42CHL1  H27A 3106   3.496   0.917   8.637 -1.6466 -0.0275  2.6034
   42CHL1  H27B 3107   3.376   1.028   8.717 -0.1334 -2.8202  0.6464
   42CHL1  H27C 3108   3.483   1.097   8.598 -2.8378  2.5229 -1.0562
   43CHL1    C3 3109   3.756   4.894   6.940 -0.4178 -0.4390 -0.1413
   43CHL1    H3 3110   3.825   4.811   6.913  1.1850  0.2278  1.6292
   43CHL1    O3 3111   3.730   4.964   6.821  0.5934  0.7168  0.2294
   43CHL1   H3' 3112   3.790   5.038   6.811 -2.1554  2.8970 -1.5822
   43CHL1    C4 3113   3.628   4.850   6.999  0.2070 -0.1108  0.0570
   43CHL1   H4A 3114   3.554   4.932   6.992  0.8519  0.7143  2.0526
   43CHL1   H4B 3115   3.595   4.758   6.945  1.0901 -0.5527  0.2461
   43CHL1    C5 3116   3.626   4.802   7.142  0.0270 -0.9416  0.9280
   43CHL1    C6 3117   3.584   4.678   7.180 -0.1338 -0.2694 -0.2761
   43CHL1    H6 3118   3.548   4.607   7.104 -1.2796 -0.2739  0.2482
   43CHL1    C7 3119   3.596   4.635   7.324 -0.4040  0.4338  0.1981
   43CHL1   H7A 3120   3.505   4.578   7.354 -0.2142  0.0071 -0.0142
   43CHL1   H7B 3121   3.683   4.568   7.340 -0.3934  0.1380 -0.9951
   43CHL1    C8 3122   3.605   4.748   7.425 -0.2193 -0.1851  0.1383
   43CHL1    H8 3123   3.504   4.792   7.435  0.1698  0.8539 -0.3982
   43CHL1   C14 3124   3.648   4.693   7.560 -0.5904  0.1710 -0.3610
   43CHL1   H14 3125   3.751   4.655   7.543 -0.8035 -0.9259  0.6401
   43CHL1   C15 3126   3.576   4.576   7.624  0.3431  0.4563  0.6032
   43CHL1  H15A 3127   3.467   4.598   7.615  0.9261  3.4014 -0.1318
   43CHL1  H15B 3128   3.597   4.475   7.581  1.6236  0.6230  0.8059
   43CHL1   C16 3129   3.621   4.572   7.768  0.5929 -0.2266  0.4566
   43CHL1  H16A 3130   3.527   4.578   7.827  0.9974  2.6437  0.9864
   43CHL1  H16B 3131   3.685   4.483   7.789  1.1703  0.3919  1.4314
   43CHL1   C17 3132   3.704   4.696   7.782 -0.4864 -0.0993  0.1562
   43CHL1   H17 3133   3.808   4.665   7.756 -0.9228 -1.3670 -0.1392
   43CHL1   C13 3134   3.667   4.795   7.673  0.3979  0.0018 -0.1948
   43CHL1   C18 3135   3.525   4.871   7.699  0.4560  0.9168 -0.4330
   43CHL1  H18A 3136   3.547   4.953   7.770  1.5285 -0.3449  0.7207
   43CHL1  H18B 3137   3.500   4.910   7.597  0.9082 -1.2512 -1.4265
   43CHL1  H18C 3138   3.445   4.802   7.734  2.7297 -1.5930  0.1116
   43CHL1   C12 3139   3.765   4.905   7.634  0.0976  0.4616  0.7247
   43CHL1  H12A 3140   3.755   4.985   7.711  0.0327  0.2363  0.9552
   43CHL1  H12B 3141   3.868   4.865   7.629 -0.7644 -1.7387 -2.6200
   43CHL1   C11 3142   3.729   4.960   7.493 -0.3407 -0.3294 -0.3341
   43CHL1  H11A 3143   3.641   5.027   7.500 -0.5744 -0.3026 -2.7171
   43CHL1  H11B 3144   3.815   5.028   7.472 -0.7849  0.3315 -0.0203
   43CHL1    C9 3145   3.709   4.852   7.382  0.1325 -0.0165 -0.4679
   43CHL1    H9 3146   3.807   4.799   7.387  0.7103  1.0161 -0.5756
   43CHL1   C10 3147   3.690   4.903   7.240 -0.1691 -0.3710 -0.2715
   43CHL1   C19 3148   3.602   5.031   7.240 -0.1535  0.4862  0.2992
   43CHL1  H19A 3149   3.590   5.073   7.138  1.9170 -0.2487 -0.2900
   43CHL1  H19B 3150   3.505   5.016   7.292 -0.5585  1.5372 -0.1176
   43CHL1  H19C 3151   3.655   5.112   7.295  0.3823 -1.0978  2.2294
   43CHL1    C1 3152   3.824   4.936   7.174 -0.0349  0.1860 -0.1895
   43CHL1   H1A 3153   3.875   5.014   7.235 -1.2516 -1.1721  2.7525
   43CHL1   H1B 3154   3.895   4.850   7.175  0.0032  0.2124 -0.5949
   43CHL1    C2 3155   3.819   4.995   7.030 -0.7077  0.0465  0.0815
   43CHL1   H2A 3156   3.920   5.009   6.985  0.0467 -2.4040  0.8312
   43CHL1   H2B 3157   3.776   5.097   7.034  0.3450  0.4541  1.9660
   43CHL1   C20 3158   3.709   4.755   7.928 -0.5987 -0.4499 -0.8544
   43CHL1   H20 3159   3.633   4.836   7.934 -0.6988 -0.6425  0.6988
   43CHL1   C21 3160   3.844   4.818   7.953 -0.0075 -0.3095 -0.4496
   43CHL1  H21A 3161   3.874   4.887   7.871 -1.2965  0.3055 -0.4197
   43CHL1  H21B 3162   3.922   4.738   7.954  2.2970  1.7673  2.0156
   43CHL1  H21C 3163   3.846   4.880   8.045  1.2065  0.4911 -0.9725
   43CHL1   C22 3164   3.676   4.658   8.041 -0.1124  0.7118 -0.5830
   43CHL1  H22A 3165   3.580   4.605   8.023  1.7580 -1.9464 -3.8041
   43CHL1  H22B 3166   3.752   4.577   8.037 -1.2563 -0.5178  1.0990
   43CHL1   C23 3167   3.684   4.714   8.185  0.6112  0.5305  0.3094
   43CHL1  H23A 3168   3.789   4.729   8.215  0.5179 -1.6184  2.0138
   43CHL1  H23B 3169   3.626   4.809   8.189  1.2173  0.9928 -1.1664
   43CHL1   C24 3170   3.633   4.596   8.276 -0.1978 -0.1140  0.0021
   43CHL1  H24A 3171   3.523   4.588   8.265  0.0251 -0.8489 -2.2254
   43CHL1  H24B 3172   3.658   4.493   8.243 -1.8933 -0.4224 -0.3871
   43CHL1   C25 3173   3.667   4.612   8.427 -0.7884 -0.0884  0.2407
   43CHL1   H25 3174   3.778   4.614   8.434 -0.8686  0.5201  1.8622
   43CHL1   C26 3175   3.631   4.753   8.465 -0.5223  0.7039 -0.2589
   43CHL1  H26A 3176   3.710   4.819   8.424  1.3071 -0.2124  1.6059
   43CHL1  H26B 3177   3.530   4.775   8.426 -0.7700 -0.1003 -0.0867
   43CHL1  H26C 3178   3.628   4.777   8.573 -3.5191  0.7002 -0.2505
   43CHL1   C27 3179   3.595   4.509   8.505  0.2366 -0.5799  0.4119
   43CHL1  H27A 3180   3.628   4.406   8.479  0.6723 -0.0651 -1.2200
   43CHL1  H27B 3181   3.611   4.527   8.613 -2.6739 -0.2445  0.8708
   43CHL1  H27C 3182   3.486   4.503   8.525  0.2819  0.6096  1.1095
   44CHL1    C3 3183   4.212   4.600   6.984 -0.1538 -0.5538  0.9181
   44CHL1    H3 3184   4.240   4.493   6.973 -2.2425 -0.9941 -0.9484
   44CHL1    O3 3185   4.175   4.649   6.854 -0.2491 -0.1679 -0.5013
   44CHL1   H3' 3186   4.247   4.705   6.823  0.8688 -0.9765  0.5846
   44CHL1    C4 3187   4.084   4.598   7.069  0.0268  0.7651 -0.5823
   44CHL1   H4A 3188   4.041   4.700   7.069  1.9350  1.6809  1.9290
   44CHL1   H4B 3189   4.007   4.529   7.029  0.0081 -0.0120  0.7198
   44CHL1    C5 3190   4.115   4.553   7.213  0.0610 -0.6554 -0.7491
   44CHL1    C6 3191   4.056   4.442   7.262 -0.1280  0.4006  0.1550
   44CHL1    H6 3192   3.989   4.384   7.197  0.1381  0.4577 -0.1691
   44CHL1    C7 3193   4.059   4.398   7.408  0.3972  0.1738 -0.0167
   44CHL1   H7A 3194   3.956   4.371   7.437  0.4167 -2.1510 -1.8300
   44CHL1   H7B 3195   4.116   4.304   7.421 -0.6024 -0.5833 -0.9482
   44CHL1    C8 3196   4.132   4.512   7.492  0.0876 -0.2299 -0.1053
   44CHL1    H8 3197   4.051   4.588   7.503 -0.0063 -0.4754  0.9849
   44CHL1   C14 3198   4.178   4.466   7.629 -0.6772 -0.0359  0.7584
   44CHL1   H14 3199   4.263   4.398   7.608  2.4036  3.9059 -0.9990
   44CHL1   C15 3200   4.067   4.398   7.712 -0.4336  0.3285  0.3025
   44CHL1  H15A 3201   3.972   4.456   7.709  0.0190  1.1083  0.7231
   44CHL1  H15B 3202   4.035   4.298   7.674  1.5638 -0.3618  0.3036
   44CHL1   C16 3203   4.122   4.395   7.851  0.5051 -0.6340 -0.4655
   44CHL1  H16A 3204   4.058   4.432   7.934  0.2999  0.8709 -1.2598
   44CHL1  H16B 3205   4.147   4.294   7.891  2.9058 -0.1782 -0.6520
   44CHL1   C17 3206   4.250   4.486   7.859 -0.0312 -0.5637 -0.7006
   44CHL1   H17 3207   4.347   4.435   7.841  0.8616  0.4606  0.9428
   44CHL1   C13 3208   4.236   4.571   7.722 -0.3473 -0.7762 -0.1968
   44CHL1   C18 3209   4.136   4.680   7.747 -0.3503 -0.1285 -0.7951
   44CHL1  H18A 3210   4.105   4.726   7.650  1.8503 -0.8568 -1.9118
   44CHL1  H18B 3211   4.052   4.642   7.809  2.1556 -0.6682  2.5302
   44CHL1  H18C 3212   4.173   4.761   7.813 -2.1392  0.5053 -0.5101
   44CHL1   C12 3213   4.368   4.618   7.667  0.0027 -0.7088 -0.5962
   44CHL1  H12A 3214   4.420   4.696   7.727 -0.8270 -1.2560  0.8851
   44CHL1  H12B 3215   4.432   4.529   7.653  0.3699 -0.4544 -0.5372
   44CHL1   C11 3216   4.351   4.659   7.519  0.2176  0.3671 -0.3560
   44CHL1  H11A 3217   4.304   4.759   7.527 -1.7234 -0.6032  1.0511
   44CHL1  H11B 3218   4.452   4.670   7.473 -0.2900 -1.3339 -1.9832
   44CHL1    C9 3219   4.258   4.569   7.423 -0.2216 -0.6703  0.1704
   44CHL1    H9 3220   4.329   4.487   7.400 -0.1852 -0.6620  0.2512
   44CHL1   C10 3221   4.214   4.643   7.294  0.1608  0.9329 -0.3745
   44CHL1   C19 3222   4.148   4.781   7.339  0.4273  0.6019  0.3625
   44CHL1  H19A 3223   4.081   4.780   7.427 -0.8036  2.3591 -0.4971
   44CHL1  H19B 3224   4.232   4.851   7.359 -0.0954  1.5816 -0.7376
   44CHL1  H19C 3225   4.111   4.835   7.250 -2.0374 -1.2414  0.1819
   44CHL1    C1 3226   4.342   4.662   7.211 -0.1235 -0.0525  0.4065
   44CHL1   H1A 3227   4.404   4.740   7.262 -0.1989 -0.0436  0.4854
   44CHL1   H1B 3228   4.400   4.568   7.212  0.2576  0.1117  3.3434
   44CHL1    C2 3229   4.321   4.694   7.059  0.0513 -0.0744 -0.0352
   44CHL1   H2A 3230   4.420   4.692   7.007  0.5969  3.1713  0.6993
   44CHL1   H2B 3231   4.282   4.797   7.054  0.4921  0.0468 -1.8080
   44CHL1   C20 3232   4.271   4.553   7.998 -0.2780 -0.0201  0.4265
   44CHL1   H20 3233   4.185   4.617   8.025  0.2584  0.0420  2.1440
   44CHL1   C21 3234   4.400   4.645   7.991  0.2597  0.2321  0.0130
   44CHL1  H21A 3235   4.484   4.600   7.934  0.5550  1.2278 -0.3480
   44CHL1  H21B 3236   4.438   4.666   8.094  1.3611  4.2545 -1.0388
   44CHL1  H21C 3237   4.383   4.739   7.936 -0.5214 -1.1311 -2.2274
   44CHL1   C22 3238   4.285   4.441   8.109  0.4345 -0.1019  0.3899
   44CHL1  H22A 3239   4.213   4.357   8.104 -1.0940  1.1815 -0.1630
   44CHL1  H22B 3240   4.379   4.384   8.096  1.7437  1.7249  1.2966
   44CHL1   C23 3241   4.270   4.494   8.255  0.2151 -0.0109 -0.3211
   44CHL1  H23A 3242   4.358   4.557   8.282  0.9245 -1.3461  0.6164
   44CHL1  H23B 3243   4.176   4.552   8.255  0.2215  0.1065 -2.7883
   44CHL1   C24 3244   4.268   4.387   8.363 -0.1927  0.4740  0.5541
   44CHL1  H24A 3245   4.182   4.316   8.362  1.2297 -1.3647  1.5469
   44CHL1  H24B 3246   4.357   4.326   8.336 -0.4563 -0.3483  1.4872
   44CHL1   C25 3247   4.288   4.434   8.507  0.1976  0.1791 -0.7727
   44CHL1   H25 3248   4.380   4.496   8.512  0.3010 -0.0432  0.2100
   44CHL1   C26 3249   4.179   4.515   8.563  0.4157 -1.4822  0.5082
   44CHL1  H26A 3250   4.178   4.622   8.535 -0.2305 -1.7189 -0.4180
   44CHL1  H26B 3251   4.079   4.476   8.534  1.3968 -1.2880 -3.8161
   44CHL1  H26C 3252   4.183   4.525   8.674  1.3084  1.9214  0.2901
   44CHL1   C27 3253   4.309   4.310   8.610 -0.6457 -0.0574  0.5913
   44CHL1  H27A 3254   4.395   4.256   8.565 -1.5106 -0.6499 -0.3854
   44CHL1  H27B 3255   4.342   4.353   8.707 -0.0045  3.4289 -1.0312
   44CHL1  H27C 3256   4.223   4.240   8.604 -1.1934  0.7390 -1.5961
   45CHL1    C3 3257   4.248   1.765   6.872 -0.3942 -0.0471  0.3577
   45CHL1    H3 3258   4.261   1.655   6.869  2.0459  0.1776 -2.4366
   45CHL1    O3 3259   4.221   1.805   6.734  0.3204  0.8013 -0.3208
   45CHL1   H3' 3260   4.144   1.750   6.713 -0.6940  1.7070  0.8903
   45CHL1    C4 3261   4.129   1.799   6.954  0.1579 -0.1561  0.1845
   45CHL1   H4A 3262   4.099   1.905   6.945 -1.1544 -0.6490 -1.6889
   45CHL1   H4B 3263   4.039   1.742   6.923 -0.4607  1.4482 -1.0601
   45CHL1    C5 3264   4.161   1.772   7.103 -0.2149 -0.7515 -0.3661
   45CHL1    C6 3265   4.082   1.704   7.192 -0.2913  0.1802 -0.1136
   45CHL1    H6 3266   3.985   1.666   7.157 -0.8102  0.1782  1.2671
   45CHL1    C7 3267   4.112   1.692   7.335  0.1384 -0.0405 -1.0360
   45CHL1   H7A 3268   4.013   1.706   7.383  1.1059  0.4239  0.9511
   45CHL1   H7B 3269   4.140   1.587   7.359 -1.9299 -0.2191  0.8662
   45CHL1    C8 3270   4.208   1.796   7.398 -0.2944  0.0138 -0.1520
   45CHL1    H8 3271   4.155   1.894   7.403  0.4726  0.4579 -0.4560
   45CHL1   C14 3272   4.237   1.765   7.542 -0.1547 -0.5110  0.2342
   45CHL1   H14 3273   4.279   1.662   7.538  0.5271 -0.2044 -2.0255
   45CHL1   C15 3274   4.119   1.753   7.646 -0.7391 -0.0828  0.6708
   45CHL1  H15A 3275   4.037   1.823   7.621 -0.8959 -0.4975  0.0042
   45CHL1  H15B 3276   4.071   1.653   7.654 -0.6157 -0.1335  0.7915
   45CHL1   C16 3277   4.180   1.791   7.785  1.2734  0.6149  0.1908
   45CHL1  H16A 3278   4.137   1.882   7.832  1.0100  0.8299 -0.4447
   45CHL1  H16B 3279   4.167   1.708   7.857 -2.1371  1.4646  0.7279
   45CHL1   C17 3280   4.333   1.817   7.750 -0.7813 -0.0857 -0.0187
   45CHL1   H17 3281   4.384   1.719   7.754  0.9975  0.8110  0.0412
   45CHL1   C13 3282   4.341   1.859   7.600  0.2805 -0.5237 -0.5757
   45CHL1   C18 3283   4.288   2.007   7.597  0.2732  0.7678 -0.3054
   45CHL1  H18A 3284   4.283   2.062   7.501 -3.8283  1.3155  0.0196
   45CHL1  H18B 3285   4.186   2.012   7.641 -0.1611 -0.3620 -1.1284
   45CHL1  H18C 3286   4.350   2.075   7.658 -3.0080  2.3097  1.6082
   45CHL1   C12 3287   4.468   1.837   7.514 -0.3642 -0.1941  0.5100
   45CHL1  H12A 3288   4.552   1.896   7.556  0.1123 -1.4985  1.4624
   45CHL1  H12B 3289   4.502   1.731   7.521  1.4330  0.2598 -0.7635
   45CHL1   C11 3290   4.441   1.876   7.368  0.5308  0.7768 -0.3616
   45CHL1  H11A 3291   4.428   1.986   7.364  2.1241  1.0089  0.0499
   45CHL1  H11B 3292   4.527   1.856   7.302 -1.5687 -3.3465 -2.2127
   45CHL1    C9 3293   4.329   1.803   7.306 -0.0494 -0.3838  0.2425
   45CHL1    H9 3294   4.365   1.699   7.316 -0.3778 -0.5350 -0.1242
   45CHL1   C10 3295   4.291   1.838   7.160 -0.2885  0.9541  0.6610
   45CHL1   C19 3296   4.256   1.987   7.159 -0.1500 -0.4069 -0.1289
   45CHL1  H19A 3297   4.229   2.024   7.058  2.2342 -2.2542 -1.5568
   45CHL1  H19B 3298   4.166   2.008   7.221  0.3705 -1.2738  0.9587
   45CHL1  H19C 3299   4.330   2.062   7.195  0.7165 -0.5695 -1.4934
   45CHL1    C1 3300   4.407   1.812   7.065 -0.7783  0.1178  0.2996
   45CHL1   H1A 3301   4.488   1.882   7.093 -0.1854 -0.2865 -0.4016
   45CHL1   H1B 3302   4.421   1.704   7.084 -2.0683 -0.0940  0.1290
   45CHL1    C2 3303   4.373   1.840   6.917 -0.1243 -0.2084 -0.5859
   45CHL1   H2A 3304   4.456   1.827   6.846 -1.7254 -0.1483 -2.5519
   45CHL1   H2B 3305   4.353   1.950   6.911 -2.1392 -0.6071 -1.9091
   45CHL1   C20 3306   4.394   1.908   7.863  0.6838 -0.1895  0.5103
   45CHL1   H20 3307   4.339   2.004   7.855 -0.0599 -0.6421  0.0700
   45CHL1   C21 3308   4.546   1.935   7.822  0.7458 -0.2415 -0.3107
   45CHL1  H21A 3309   4.597   2.000   7.897 -0.8558  0.8204 -0.0772
   45CHL1  H21B 3310   4.543   1.997   7.730 -2.4455 -0.4255 -0.4201
   45CHL1  H21C 3311   4.601   1.841   7.801  1.2932 -0.1824  0.7788
   45CHL1   C22 3312   4.380   1.850   8.003  0.1177 -0.8828 -0.1499
   45CHL1  H22A 3313   4.426   1.925   8.071  1.2404  0.1960 -2.0157
   45CHL1  H22B 3314   4.270   1.842   8.017 -0.4409  1.7303 -2.1656
   45CHL1   C23 3315   4.448   1.715   8.025 -0.0381 -0.1981  0.1388
   45CHL1  H23A 3316   4.378   1.639   7.983 -0.3233 -0.7191  1.4988
   45CHL1  H23B 3317   4.544   1.700   7.972  0.7701  0.9344  1.2388
   45CHL1   C24 3318   4.480   1.678   8.170 -0.2045  0.0121 -0.1559
   45CHL1  H24A 3319   4.571   1.738   8.193 -2.0238  2.3192  1.5663
   45CHL1  H24B 3320   4.392   1.719   8.223 -2.2786 -0.7821 -2.7775
   45CHL1   C25 3321   4.501   1.531   8.202 -0.0751  0.6725  0.2170
   45CHL1   H25 3322   4.414   1.475   8.161  0.3818  0.9980 -1.2266
   45CHL1   C26 3323   4.635   1.483   8.151  0.7086 -0.0484  0.9336
   45CHL1  H26A 3324   4.718   1.514   8.218  1.4883  1.9603 -0.8616
   45CHL1  H26B 3325   4.624   1.373   8.139 -0.3354  0.2663 -1.6001
   45CHL1  H26C 3326   4.652   1.537   8.056  1.2065  0.8540  1.5245
   45CHL1   C27 3327   4.494   1.521   8.361  0.4800 -0.2226  0.7886
   45CHL1  H27A 3328   4.563   1.595   8.409  1.6161 -1.0774  0.5201
   45CHL1  H27B 3329   4.395   1.541   8.407  0.3709  0.5611  0.2466
   45CHL1  H27C 3330   4.520   1.418   8.392  0.5019 -0.0603  1.3186
   46CHL1    C3 3331   5.154   4.430   6.909 -0.6424  0.0315  0.2642
   46CHL1    H3 3332   5.079   4.350   6.923 -0.5425 -0.5880 -2.1922
   46CHL1    O3 3333   5.164   4.437   6.768 -0.3421  0.8592 -0.3167
   46CHL1   H3' 3334   5.231   4.503   6.749 -1.4095  1.6583 -1.4702
   46CHL1    C4 3335   5.098   4.562   6.966 -0.1715 -0.3910  0.1774
   46CHL1   H4A 3336   5.173   4.633   6.926  1.0092 -1.8345 -0.2591
   46CHL1   H4B 3337   5.003   4.581   6.912 -0.8068  2.4218  2.0286
   46CHL1    C5 3338   5.084   4.571   7.121  0.3181 -0.0536 -0.3750
   46CHL1    C6 3339   4.967   4.597   7.182 -0.0535 -0.6463  0.1740
   46CHL1    H6 3340   4.882   4.621   7.117  0.1813  0.0155  0.0958
   46CHL1    C7 3341   4.953   4.605   7.329  0.1995  0.2766 -0.0122
   46CHL1   H7A 3342   4.900   4.699   7.354  2.4512  1.9517 -1.2165
   46CHL1   H7B 3343   4.893   4.520   7.368  0.0958  0.5802  0.5001
   46CHL1    C8 3344   5.093   4.606   7.404 -0.1433 -0.9269 -0.5164
   46CHL1    H8 3345   5.134   4.706   7.383 -0.1180 -0.9483 -0.5652
   46CHL1   C14 3346   5.085   4.600   7.558  0.6800  0.3645 -0.8309
   46CHL1   H14 3347   5.033   4.503   7.575 -0.5769  0.9632 -1.1871
   46CHL1   C15 3348   4.997   4.701   7.640  0.4559 -0.3635 -0.3790
   46CHL1  H15A 3349   5.035   4.801   7.609  0.3315 -0.1240  0.2128
   46CHL1  H15B 3350   4.887   4.698   7.624  0.5802  0.4230 -1.4910
   46CHL1   C16 3351   5.043   4.687   7.787  0.6623  0.2715 -0.2383
   46CHL1  H16A 3352   5.082   4.781   7.833 -1.3544  0.1540  1.8485
   46CHL1  H16B 3353   4.959   4.644   7.845 -0.5676 -0.0635 -2.1561
   46CHL1   C17 3354   5.171   4.594   7.783 -0.2750 -0.1694  0.3062
   46CHL1   H17 3355   5.147   4.489   7.811 -0.9576  0.1399  0.9267
   46CHL1   C13 3356   5.218   4.590   7.631  0.1276 -1.1147  0.0783
   46CHL1   C18 3357   5.309   4.714   7.599  0.2135  0.0858 -0.6757
   46CHL1  H18A 3358   5.256   4.802   7.640 -0.0787 -0.6506  0.5937
   46CHL1  H18B 3359   5.414   4.706   7.636  0.6794 -1.8327 -2.2137
   46CHL1  H18C 3360   5.310   4.738   7.491 -1.8721 -2.2015 -1.3195
   46CHL1   C12 3361   5.292   4.466   7.586  0.5132  0.3622 -0.5542
   46CHL1  H12A 3362   5.392   4.450   7.631  0.0626  0.6519  0.5757
   46CHL1  H12B 3363   5.218   4.387   7.611 -0.5127  1.5300  0.1937
   46CHL1   C11 3364   5.309   4.457   7.433  0.0218  0.3677  0.0291
   46CHL1  H11A 3365   5.401   4.513   7.404 -0.4073  0.4603 -1.2098
   46CHL1  H11B 3366   5.328   4.352   7.404  0.0279  0.1820  0.6833
   46CHL1    C9 3367   5.188   4.498   7.344  0.4119  0.0693  0.0362
   46CHL1    H9 3368   5.118   4.412   7.350 -0.6989  0.9898  0.9648
   46CHL1   C10 3369   5.213   4.528   7.195 -0.5950  0.4684 -0.1057
   46CHL1   C19 3370   5.309   4.650   7.170  0.0320 -0.6488  0.2221
   46CHL1  H19A 3371   5.401   4.630   7.228  0.9474 -0.3480 -1.0727
   46CHL1  H19B 3372   5.332   4.655   7.061 -2.6797 -1.4757 -0.4759
   46CHL1  H19C 3373   5.272   4.748   7.207  1.9873  0.8081 -1.4245
   46CHL1    C1 3374   5.273   4.394   7.131  0.1914  0.1248 -0.0494
   46CHL1   H1A 3375   5.374   4.371   7.170  0.4121  2.3953  0.8451
   46CHL1   H1B 3376   5.201   4.314   7.160  0.5704  0.1285  0.9110
   46CHL1    C2 3377   5.282   4.393   6.972  0.6215 -0.3475  0.0012
   46CHL1   H2A 3378   5.314   4.292   6.940  0.4210 -0.2850 -0.3948
   46CHL1   H2B 3379   5.358   4.470   6.945  1.2008 -0.4799  1.1658
   46CHL1   C20 3380   5.278   4.632   7.890  0.5339 -0.0013 -0.6456
   46CHL1   H20 3381   5.312   4.732   7.857  0.0105 -0.4186 -2.6045
   46CHL1   C21 3382   5.401   4.534   7.896  0.0108  0.3323  0.4309
   46CHL1  H21A 3383   5.383   4.431   7.935  2.6537  0.1357  1.3117
   46CHL1  H21B 3384   5.461   4.575   7.980  1.1102  0.0261 -0.1954
   46CHL1  H21C 3385   5.444   4.548   7.795 -0.8596 -0.3399 -0.0466
   46CHL1   C22 3386   5.227   4.644   8.033  0.6781  0.2226  0.1322
   46CHL1  H22A 3387   5.303   4.654   8.113 -0.2516 -1.5782  1.3109
   46CHL1  H22B 3388   5.164   4.735   8.032 -0.7586 -0.7484 -0.4204
   46CHL1   C23 3389   5.128   4.533   8.079 -0.4113  0.3318  0.0614
   46CHL1  H23A 3390   5.036   4.562   8.025 -0.8415 -0.2243  0.4935
   46CHL1  H23B 3391   5.147   4.428   8.047 -1.2912  0.3272 -0.4704
   46CHL1   C24 3392   5.089   4.556   8.222  0.4540 -0.6661 -0.1008
   46CHL1  H24A 3393   5.089   4.665   8.246 -3.4201 -0.6420  0.3437
   46CHL1  H24B 3394   4.993   4.505   8.240  0.8229 -1.1344  0.5848
   46CHL1   C25 3395   5.192   4.494   8.315  0.0848  0.2971  0.4121
   46CHL1   H25 3396   5.293   4.534   8.290 -0.2881  0.7402 -0.4472
   46CHL1   C26 3397   5.166   4.556   8.459  0.6196 -0.6613 -0.3195
   46CHL1  H26A 3398   5.222   4.491   8.531  2.5293 -0.0213 -1.1652
   46CHL1  H26B 3399   5.192   4.664   8.462  2.1772 -0.9969 -0.9966
   46CHL1  H26C 3400   5.062   4.529   8.488  0.2670 -1.1981 -1.9746
   46CHL1   C27 3401   5.191   4.337   8.313  0.4645 -0.7863  0.6544
   46CHL1  H27A 3402   5.233   4.296   8.218  1.2528  0.3019  0.5217
   46CHL1  H27B 3403   5.244   4.299   8.402  0.8477 -0.5082  0.5441
   46CHL1  H27C 3404   5.089   4.291   8.310  1.1232 -2.2815  0.5218
   47CHL1    C3 3405   1.525   2.669   6.805 -0.2496 -0.0017 -0.4631
   47CHL1    H3 3406   1.600   2.747   6.830 -0.0500 -0.6674  1.1410
   47CHL1    O3 3407   1.523   2.663   6.664  0.5050  0.4524 -0.2480
   47CHL1   H3' 3408   1.472   2.585   6.641  0.8020  0.9294 -2.7504
   47CHL1    C4 3409   1.554   2.526   6.861  0.0108 -0.4274  0.4589
   47CHL1   H4A 3410   1.480   2.455   6.819 -0.7961  0.9147 -0.4807
   47CHL1   H4B 3411   1.655   2.497   6.822 -0.8110 -1.2453 -1.1706
   47CHL1    C5 3412   1.545   2.515   7.018 -0.0009 -0.1200  0.6387
   47CHL1    C6 3413   1.647   2.472   7.088 -0.7566  0.0112  0.2039
   47CHL1    H6 3414   1.739   2.438   7.039 -0.3219  0.9359  0.3485
   47CHL1    C7 3415   1.637   2.465   7.244 -0.2687  1.2241  0.4175
   47CHL1   H7A 3416   1.694   2.377   7.280  0.1183  1.2475 -0.1280
   47CHL1   H7B 3417   1.689   2.556   7.281 -1.5287  1.9633  0.4544
   47CHL1    C8 3418   1.494   2.477   7.302 -0.0872 -0.0259 -0.0453
   47CHL1    H8 3419   1.436   2.383   7.289 -0.0792 -0.4947  2.7408
   47CHL1   C14 3420   1.499   2.500   7.458  0.2258 -1.3572  0.0444
   47CHL1   H14 3421   1.564   2.587   7.482 -1.0041 -1.1795  3.1964
   47CHL1   C15 3422   1.550   2.393   7.554 -0.0302 -0.0940 -0.4159
   47CHL1  H15A 3423   1.502   2.300   7.516  1.1361  0.1649 -2.7300
   47CHL1  H15B 3424   1.658   2.368   7.560 -0.2594 -0.9023  0.4189
   47CHL1   C16 3425   1.491   2.428   7.699  0.5164 -0.2126 -0.2734
   47CHL1  H16A 3426   1.449   2.336   7.745 -1.3814  0.1908 -1.1046
   47CHL1  H16B 3427   1.574   2.466   7.763  2.4806  0.3570 -2.9729
   47CHL1   C17 3428   1.378   2.530   7.669 -0.2583 -0.1184 -0.2355
   47CHL1   H17 3429   1.412   2.633   7.689 -0.0344  0.1488 -1.8776
   47CHL1   C13 3430   1.356   2.526   7.515  0.0811 -0.1626 -0.2844
   47CHL1   C18 3431   1.264   2.416   7.476 -0.0762 -0.0734 -0.1793
   47CHL1  H18A 3432   1.261   2.411   7.365  1.1248  3.5423 -0.5075
   47CHL1  H18B 3433   1.290   2.314   7.512 -1.4550  0.1770  1.6558
   47CHL1  H18C 3434   1.159   2.434   7.508  0.2430 -0.7873  1.3626
   47CHL1   C12 3435   1.306   2.658   7.451  0.1669 -0.6377 -0.2102
   47CHL1  H12A 3436   1.220   2.706   7.502 -0.0044 -0.3810 -0.7252
   47CHL1  H12B 3437   1.393   2.723   7.473  1.1625 -2.1474  0.5116
   47CHL1   C11 3438   1.294   2.648   7.297  0.1877  0.5981 -0.4285
   47CHL1  H11A 3439   1.208   2.585   7.264  1.6716 -1.6056 -0.3318
   47CHL1  H11B 3440   1.286   2.756   7.274 -3.2518  1.1474  2.5316
   47CHL1    C9 3441   1.421   2.595   7.230  0.2919  0.5071  0.1734
   47CHL1    H9 3442   1.496   2.675   7.251 -0.2470  1.0512  0.0584
   47CHL1   C10 3443   1.414   2.577   7.074 -0.6084 -0.3181  0.5172
   47CHL1   C19 3444   1.296   2.483   7.039  0.3536 -0.0718  0.2191
   47CHL1  H19A 3445   1.308   2.391   7.099  0.8351  1.8257  3.2303
   47CHL1  H19B 3446   1.202   2.536   7.067  0.5771 -0.0002  0.8481
   47CHL1  H19C 3447   1.281   2.460   6.931 -0.9225  2.5928 -0.2537
   47CHL1    C1 3448   1.385   2.707   7.011  0.3072 -0.9932  1.0846
   47CHL1   H1A 3449   1.290   2.745   7.055  1.3091  0.3315  2.1965
   47CHL1   H1B 3450   1.467   2.772   7.050  0.2348 -1.9148  2.8760
   47CHL1    C2 3451   1.390   2.718   6.858 -0.0401  1.3945 -0.3609
   47CHL1   H2A 3452   1.360   2.820   6.827 -1.5583  1.0034 -0.2708
   47CHL1   H2B 3453   1.316   2.653   6.806 -1.6884  3.4067 -0.6453
   47CHL1   C20 3454   1.256   2.504   7.756 -0.3449 -0.0491  0.0525
   47CHL1   H20 3455   1.224   2.400   7.733 -1.1783  0.2312 -0.0785
   47CHL1   C21 3456   1.134   2.603   7.729 -0.4575  0.6684  0.6991
   47CHL1  H21A 3457   1.087   2.575   7.632  0.5781 -1.5370  0.7719
   47CHL1  H21B 3458   1.172   2.707   7.717  0.3060  0.2504 -0.7393
   47CHL1  H21C 3459   1.058   2.611   7.810 -1.8511 -0.0901 -0.4897
   47CHL1   C22 3460   1.292   2.494   7.911 -0.9689  0.3255 -0.2189
   47CHL1  H22A 3461   1.196   2.469   7.961  0.6343 -0.8544  2.5155
   47CHL1  H22B 3462   1.364   2.412   7.930 -0.3200  0.6139 -1.3189
   47CHL1   C23 3463   1.360   2.629   7.971 -0.7620 -0.1398  0.1223
   47CHL1  H23A 3464   1.467   2.635   7.943 -0.8359  0.0529 -0.1189
   47CHL1  H23B 3465   1.304   2.715   7.929 -0.2400 -0.2955 -0.9066
   47CHL1   C24 3466   1.351   2.627   8.124 -0.6180  0.0300 -0.2469
   47CHL1  H24A 3467   1.399   2.714   8.174  2.0289 -1.7795  0.5831
   47CHL1  H24B 3468   1.246   2.621   8.160 -1.1719 -0.7018 -1.9021
   47CHL1   C25 3469   1.428   2.502   8.196  0.3381 -0.7074  0.4181
   47CHL1   H25 3470   1.397   2.406   8.149  1.5644 -1.0377  0.2504
   47CHL1   C26 3471   1.581   2.523   8.182  0.3160  0.1594  0.9878
   47CHL1  H26A 3472   1.602   2.486   8.079 -0.9414 -1.8988  1.4104
   47CHL1  H26B 3473   1.598   2.633   8.188 -0.4535  0.3380  0.0337
   47CHL1  H26C 3474   1.644   2.463   8.251  0.6555 -1.8159 -0.9184
   47CHL1   C27 3475   1.382   2.487   8.350 -0.8373  0.3238  0.5331
   47CHL1  H27A 3476   1.467   2.448   8.410 -0.1191  0.7608 -0.1683
   47CHL1  H27B 3477   1.360   2.586   8.395  1.2679  0.3152  1.7284
   47CHL1  H27C 3478   1.296   2.419   8.366 -1.1796  0.6417  0.0702
   48CHL1    C3 3479   1.746   5.455   6.745  0.0163 -0.5003  0.9182
   48CHL1    H3 3480   1.702   5.357   6.770 -2.2749  0.3652  0.4692
   48CHL1    O3 3481   1.760   5.472   6.606 -0.0071 -0.3387 -0.3242
   48CHL1   H3' 3482   1.834   5.419   6.577  2.2078  3.0368 -1.3970
   48CHL1    C4 3483   1.656   5.566   6.797  1.0250 -0.3911  0.4565
   48CHL1   H4A 3484   1.697   5.660   6.754  2.3622 -1.0580  0.2150
   48CHL1   H4B 3485   1.557   5.551   6.748  2.0729 -1.2405 -1.5313
   48CHL1    C5 3486   1.646   5.571   6.944 -0.0837  0.0640  0.2722
   48CHL1    C6 3487   1.528   5.554   7.004  0.6329 -0.5081 -0.1396
   48CHL1    H6 3488   1.438   5.554   6.941  0.6373 -0.3341 -0.1458
   48CHL1    C7 3489   1.511   5.551   7.154 -0.4133 -0.3341 -0.2543
   48CHL1   H7A 3490   1.425   5.615   7.183 -0.7753  0.6822 -3.2544
   48CHL1   H7B 3491   1.481   5.448   7.186  0.5232 -0.6485 -0.3542
   48CHL1    C8 3492   1.635   5.611   7.231  0.0354 -0.9148  0.1035
   48CHL1    H8 3493   1.633   5.722   7.229  0.4840 -0.9175 -1.2401
   48CHL1   C14 3494   1.625   5.564   7.376  0.4099  0.4165 -0.3036
   48CHL1   H14 3495   1.648   5.456   7.368 -0.4865  0.3491 -2.9101
   48CHL1   C15 3496   1.504   5.585   7.462  0.1865 -0.5910 -0.1955
   48CHL1  H15A 3497   1.474   5.692   7.453  1.3327 -0.1812  0.5666
   48CHL1  H15B 3498   1.429   5.511   7.427  1.9715 -2.0433 -1.0762
   48CHL1   C16 3499   1.553   5.554   7.610  0.7115  0.1846  0.1249
   48CHL1  H16A 3500   1.515   5.636   7.676 -1.5795 -1.2265  0.6731
   48CHL1  H16B 3501   1.508   5.458   7.642 -0.9996  1.2549  1.1566
   48CHL1   C17 3502   1.709   5.541   7.604  0.2527  0.0169 -0.0779
   48CHL1   H17 3503   1.726   5.432   7.590 -2.3235 -0.5161  0.4608
   48CHL1   C13 3504   1.742   5.604   7.467 -0.5275 -0.0341  0.2378
   48CHL1   C18 3505   1.741   5.759   7.493 -1.2257 -0.4018  0.3707
   48CHL1  H18A 3506   1.755   5.814   7.398  1.7121 -1.2023  0.2280
   48CHL1  H18B 3507   1.654   5.798   7.550  0.0041  0.0580  2.0122
   48CHL1  H18C 3508   1.832   5.779   7.553 -0.6006 -0.8385 -0.4180
   48CHL1   C12 3509   1.871   5.549   7.393 -0.3778 -0.5304 -0.1225
   48CHL1  H12A 3510   1.961   5.586   7.447 -1.4125 -0.0987  1.3953
   48CHL1  H12B 3511   1.864   5.439   7.404 -1.3538 -0.3626  1.3348
   48CHL1   C11 3512   1.888   5.589   7.246  0.0208  0.4763  0.6663
   48CHL1  H11A 3513   1.908   5.698   7.239  2.1140  0.0065 -2.5151
   48CHL1  H11B 3514   1.977   5.533   7.212 -1.5001 -2.6408  1.4137
   48CHL1    C9 3515   1.768   5.552   7.168 -0.1621 -0.6794 -0.3679
   48CHL1    H9 3516   1.747   5.444   7.185  0.3273 -0.5931  0.8999
   48CHL1   C10 3517   1.785   5.576   7.017 -0.0020 -0.2201 -0.1819
   48CHL1   C19 3518   1.845   5.719   6.994  0.3741  0.3054  0.4336
   48CHL1  H19A 3519   1.939   5.732   7.051 -0.6903  0.5884  2.1751
   48CHL1  H19B 3520   1.865   5.733   6.885  3.5065  2.6066  1.1683
   48CHL1  H19C 3521   1.776   5.798   7.032 -1.7336 -2.1390  2.0515
   48CHL1    C1 3522   1.884   5.474   6.956 -0.3593 -0.5105  0.2486
   48CHL1   H1A 3523   1.985   5.506   6.991 -1.1041  0.2929  1.7224
   48CHL1   H1B 3524   1.859   5.377   7.004  0.2817 -0.8014  0.0155
   48CHL1    C2 3525   1.889   5.458   6.799  0.2396  0.7072 -0.1322
   48CHL1   H2A 3526   1.951   5.369   6.773  0.2190  0.7618 -0.3724
   48CHL1   H2B 3527   1.933   5.555   6.768 -0.4778  0.8794 -0.6429
   48CHL1   C20 3528   1.775   5.580   7.731  0.9929 -0.2519  0.3900
   48CHL1   H20 3529   1.762   5.688   7.754  1.1284 -0.6975  2.7968
   48CHL1   C21 3530   1.930   5.572   7.710  0.1749 -0.0631 -0.3971
   48CHL1  H21A 3531   1.955   5.466   7.687  0.6158  0.1100 -0.7339
   48CHL1  H21B 3532   1.984   5.613   7.798  1.5790  1.2237 -1.7823
   48CHL1  H21C 3533   1.960   5.642   7.628  1.2327  0.0814  0.0942
   48CHL1   C22 3534   1.729   5.500   7.853  0.5986 -0.4877  0.2577
   48CHL1  H22A 3535   1.620   5.517   7.868 -0.0561 -1.8353 -2.3199
   48CHL1  H22B 3536   1.738   5.394   7.820 -0.1658 -0.0059 -1.6794
   48CHL1   C23 3537   1.813   5.525   7.979 -0.3984 -0.7973  0.4224
   48CHL1  H23A 3538   1.790   5.467   8.071  2.7014 -0.1568  1.7410
   48CHL1  H23B 3539   1.918   5.494   7.960 -0.4008  0.6203 -2.2180
   48CHL1   C24 3540   1.792   5.671   8.028  0.2882 -0.0101  0.2610
   48CHL1  H24A 3541   1.791   5.739   7.941  1.7576 -0.2113  0.0506
   48CHL1  H24B 3542   1.691   5.680   8.073  0.1180 -0.6041  0.0020
   48CHL1   C25 3543   1.887   5.730   8.128 -0.0178  0.1843 -0.4188
   48CHL1   H25 3544   1.848   5.830   8.157 -0.5139  0.1845 -1.0714
   48CHL1   C26 3545   1.903   5.644   8.255  0.4335 -0.5709  0.1309
   48CHL1  H26A 3546   1.992   5.678   8.312  1.0515  0.5680 -1.4609
   48CHL1  H26B 3547   1.820   5.659   8.328 -0.4134  1.5095 -1.1830
   48CHL1  H26C 3548   1.917   5.536   8.232  2.2288 -0.2987 -0.2474
   48CHL1   C27 3549   2.023   5.759   8.065 -0.8142  0.2511  0.5678
   48CHL1  H27A 3550   2.089   5.804   8.142  1.7912  0.6771 -1.7537
   48CHL1  H27B 3551   2.078   5.666   8.040  0.0642  0.2559  2.3398
   48CHL1  H27C 3552   2.024   5.837   7.986  2.0327  0.9957  1.2026
   49CHL1    C3 3553   5.817   1.938   6.906  0.3249  0.1594  0.1543
   49CHL1    H3 3554   5.710   1.954   6.931 -0.0037 -0.3788 -0.8358
   49CHL1    O3 3555   5.825   1.865   6.785 -0.1059 -0.0387  0.3745
   49CHL1   H3' 3556   5.797   1.922   6.713  1.6265 -1.2633 -1.3867
   49CHL1    C4 3557   5.900   2.066   6.903 -0.0020 -0.0395 -0.0192
   49CHL1   H4A 3558   6.003   2.041   6.870  0.1458  1.2627 -0.6072
   49CHL1   H4B 3559   5.857   2.128   6.822  0.3961 -0.4285 -0.5316
   49CHL1    C5 3560   5.896   2.132   7.041 -0.9186  0.2571 -0.4350
   49CHL1    C6 3561   5.849   2.257   7.056 -1.2585 -0.1755 -0.3219
   49CHL1    H6 3562   5.834   2.325   6.971  0.5983  2.5440  1.3783
   49CHL1    C7 3563   5.824   2.328   7.192  0.5083  0.2066  0.7317
   49CHL1   H7A 3564   5.873   2.427   7.184  2.2670 -0.5733  1.2735
   49CHL1   H7B 3565   5.713   2.328   7.195  0.4647 -0.8072 -0.2145
   49CHL1    C8 3566   5.888   2.248   7.307 -0.8915 -0.4481 -0.9192
   49CHL1    H8 3567   5.999   2.258   7.311 -0.8308 -1.1245  2.9037
   49CHL1   C14 3568   5.835   2.299   7.442 -0.8107  0.3351  0.2511
   49CHL1   H14 3569   5.730   2.260   7.442 -0.0544 -1.8512  1.2539
   49CHL1   C15 3570   5.837   2.448   7.455 -0.2110  0.0284  0.5304
   49CHL1  H15A 3571   5.934   2.489   7.418  0.2786  0.8067  2.5419
   49CHL1  H15B 3572   5.751   2.500   7.408  0.8615  0.2875 -1.2534
   49CHL1   C16 3573   5.827   2.465   7.610 -0.0631  0.1674  1.2611
   49CHL1  H16A 3574   5.920   2.516   7.640 -0.1755  0.2608  1.4523
   49CHL1  H16B 3575   5.738   2.525   7.641 -1.3550 -0.2954 -1.2521
   49CHL1   C17 3576   5.835   2.324   7.677  0.1343  0.5154  0.2564
   49CHL1   H17 3577   5.731   2.285   7.678 -0.9919  3.2208 -0.2327
   49CHL1   C13 3578   5.901   2.242   7.570 -1.3852 -0.6782  0.8017
   49CHL1   C18 3579   6.058   2.276   7.570 -0.3695  0.5561 -0.5153
   49CHL1  H18A 3580   6.078   2.385   7.571  0.2198  0.4582  0.9113
   49CHL1  H18B 3581   6.100   2.225   7.660  1.2849 -2.1210 -2.6509
   49CHL1  H18C 3582   6.111   2.225   7.487 -0.4039  2.5391 -1.8171
   49CHL1   C12 3583   5.873   2.091   7.569 -0.1895 -0.1215 -0.0774
   49CHL1  H12A 3584   5.922   2.040   7.654 -1.0832  1.2732  1.3276
   49CHL1  H12B 3585   5.763   2.072   7.575 -0.1171 -0.1784  1.4505
   49CHL1   C11 3586   5.918   2.033   7.434 -0.3915 -0.6855  0.2398
   49CHL1  H11A 3587   6.028   2.024   7.431 -0.3339 -0.7532  1.7578
   49CHL1  H11B 3588   5.883   1.927   7.432 -0.3407 -0.6920 -0.3334
   49CHL1    C9 3589   5.873   2.099   7.308  0.3096  0.1635  0.2099
   49CHL1    H9 3590   5.763   2.084   7.310  0.1606  1.2817  1.0885
   49CHL1   C10 3591   5.927   2.040   7.168  0.4221 -0.3309  0.0207
   49CHL1   C19 3592   6.082   2.012   7.170 -0.1720  0.5318  0.2533
   49CHL1  H19A 3593   6.111   1.945   7.086 -0.7206  0.0977  0.3997
   49CHL1  H19B 3594   6.131   2.111   7.167 -0.9403  0.8943 -0.9022
   49CHL1  H19C 3595   6.134   1.963   7.256  1.1915 -0.0009 -0.8461
   49CHL1    C1 3596   5.876   1.900   7.153  0.1619 -0.0890 -0.0538
   49CHL1   H1A 3597   5.907   1.824   7.228  0.9127 -0.7499 -1.0137
   49CHL1   H1B 3598   5.770   1.902   7.186  0.2118  0.1138  0.0948
   49CHL1    C2 3599   5.873   1.843   7.004 -0.3437 -0.4836 -0.2837
   49CHL1   H2A 3600   5.799   1.760   7.015 -1.0822  0.4636  2.8038
   49CHL1   H2B 3601   5.975   1.802   6.985 -0.2645 -2.8269  3.9548
   49CHL1   C20 3602   5.893   2.324   7.815  0.3445 -0.1089 -0.5957
   49CHL1   H20 3603   6.003   2.339   7.813  0.0049  3.1333  0.1794
   49CHL1   C21 3604   5.851   2.192   7.887 -0.3899 -0.2704 -0.3532
   49CHL1  H21A 3605   5.752   2.158   7.849  0.0540 -2.5779  0.3711
   49CHL1  H21B 3606   5.851   2.205   7.997 -1.1980 -1.5474 -0.1822
   49CHL1  H21C 3607   5.912   2.106   7.851 -0.1823  0.1284 -0.9826
   49CHL1   C22 3608   5.834   2.438   7.899  0.0034  0.1649  0.9692
   49CHL1  H22A 3609   5.873   2.537   7.865  0.3035  0.8435  3.1240
   49CHL1  H22B 3610   5.724   2.439   7.885  0.2449  0.2844 -1.3668
   49CHL1   C23 3611   5.865   2.455   8.052  0.5643 -0.4860  0.3661
   49CHL1  H23A 3612   5.818   2.552   8.076 -0.7733 -0.4697 -2.0076
   49CHL1  H23B 3613   5.821   2.377   8.117  0.4520 -1.8001 -1.2135
   49CHL1   C24 3614   6.019   2.436   8.059  0.8576 -0.1012  0.4862
   49CHL1  H24A 3615   6.044   2.329   8.042 -2.4936 -1.1155  1.2111
   49CHL1  H24B 3616   6.067   2.503   7.984 -1.0167  0.4942 -0.2203
   49CHL1   C25 3617   6.080   2.488   8.190  0.5124  0.8394  0.5544
   49CHL1   H25 3618   6.045   2.434   8.280 -1.3436  0.5383 -0.2968
   49CHL1   C26 3619   6.231   2.455   8.182 -0.4274  0.0694  0.2131
   49CHL1  H26A 3620   6.269   2.500   8.087  0.8771 -0.5940  0.3890
   49CHL1  H26B 3621   6.286   2.503   8.266 -0.2204 -0.6678  0.5093
   49CHL1  H26C 3622   6.245   2.345   8.175 -0.2864  0.0693  0.4711
   49CHL1   C27 3623   6.067   2.638   8.219 -0.4374  0.0058 -0.1618
   49CHL1  H27A 3624   6.117   2.684   8.131 -1.7711 -1.1495 -1.5781
   49CHL1  H27B 3625   5.960   2.665   8.230 -0.4236  0.1764 -0.4378
   49CHL1  H27C 3626   6.115   2.652   8.318 -0.5183 -2.4871  0.3015
   50CHL1    C3 3627   1.115   0.357   6.780  0.2622 -0.7484 -0.2278
   50CHL1    H3 3628   1.011   0.364   6.742 -0.1594 -2.3297  0.5709
   50CHL1    O3 3629   1.200   0.371   6.666  0.5657  0.0553  0.3104
   50CHL1   H3' 3630   1.210   0.283   6.629 -2.3729 -0.9679  1.6144
   50CHL1    C4 3631   1.149   0.468   6.872 -0.0652 -0.1450  0.0261
   50CHL1   H4A 3632   1.259   0.480   6.886 -0.2926 -0.1525  2.1967
   50CHL1   H4B 3633   1.127   0.570   6.832  0.2513  0.2693  0.8838
   50CHL1    C5 3634   1.094   0.459   7.010 -0.4671 -0.8619 -0.4624
   50CHL1    C6 3635   1.014   0.553   7.066  0.1657  0.3115  0.1151
   50CHL1    H6 3636   0.977   0.635   7.003 -0.6995  0.5555  0.9106
   50CHL1    C7 3637   0.961   0.555   7.203 -0.5452  0.1559 -0.2092
   50CHL1   H7A 3638   0.970   0.655   7.251  2.9552 -0.5054  0.7665
   50CHL1   H7B 3639   0.853   0.532   7.193 -0.0166 -3.0715  0.4720
   50CHL1    C8 3640   1.035   0.454   7.289 -0.8619 -0.1341  0.5138
   50CHL1    H8 3641   1.135   0.499   7.305  0.1241 -2.3629  0.8331
   50CHL1   C14 3642   0.965   0.442   7.420 -0.3689  0.4203 -0.2932
   50CHL1   H14 3643   0.862   0.411   7.392  0.2678 -1.1399 -1.0557
   50CHL1   C15 3644   0.958   0.571   7.494 -0.3545 -0.2469  0.3855
   50CHL1  H15A 3645   1.049   0.633   7.478 -0.3530 -0.5182 -0.7093
   50CHL1  H15B 3646   0.866   0.625   7.465  0.3588  0.8237  0.0555
   50CHL1   C16 3647   0.934   0.526   7.636 -1.0935 -0.0484 -0.4780
   50CHL1  H16A 3648   1.008   0.586   7.694 -1.6348 -2.3287  2.8969
   50CHL1  H16B 3649   0.843   0.570   7.681 -1.8279 -0.9851 -1.0253
   50CHL1   C17 3650   0.950   0.373   7.645 -0.0070 -0.2358 -0.4890
   50CHL1   H17 3651   0.849   0.328   7.640 -0.3553  0.3055  1.0797
   50CHL1   C13 3652   1.023   0.337   7.517 -0.3167 -0.1791 -0.4086
   50CHL1   C18 3653   1.178   0.375   7.533  0.4706  0.1710  0.2159
   50CHL1  H18A 3654   1.241   0.385   7.443 -1.2548  1.0893 -0.9479
   50CHL1  H18B 3655   1.187   0.474   7.582  0.5088  0.3411 -0.1393
   50CHL1  H18C 3656   1.224   0.298   7.600 -0.0962  0.5102  1.0202
   50CHL1   C12 3657   1.005   0.196   7.447 -0.1364  0.2950 -0.1922
   50CHL1  H12A 3658   1.044   0.118   7.516 -2.5444  0.5685  1.6017
   50CHL1  H12B 3659   0.901   0.172   7.418  0.4092 -1.3498 -0.9104
   50CHL1   C11 3660   1.098   0.198   7.315 -0.6442 -0.2905  0.2298
   50CHL1  H11A 3661   1.201   0.191   7.356 -0.9951 -0.3315  1.1336
   50CHL1  H11B 3662   1.081   0.099   7.268 -1.3399  0.1348 -0.4372
   50CHL1    C9 3663   1.057   0.316   7.218  0.1470 -0.2266 -0.4109
   50CHL1    H9 3664   0.954   0.288   7.188  0.0566 -1.6699  1.1364
   50CHL1   C10 3665   1.128   0.326   7.081  0.7564  0.5838 -0.8453
   50CHL1   C19 3666   1.277   0.327   7.108  0.4060 -0.2124 -0.4424
   50CHL1  H19A 3667   1.348   0.326   7.023  1.7081  0.8232  0.5885
   50CHL1  H19B 3668   1.300   0.404   7.185  0.4998  0.1129 -0.7898
   50CHL1  H19C 3669   1.304   0.236   7.165  0.9835 -0.1313 -0.5749
   50CHL1    C1 3670   1.082   0.205   6.986  0.3887 -0.8265  0.2369
   50CHL1   H1A 3671   1.104   0.111   7.041  1.0772  0.1768  1.7686
   50CHL1   H1B 3672   0.971   0.213   6.979  0.1953 -2.7485  0.6175
   50CHL1    C2 3673   1.141   0.217   6.841 -0.6038 -0.0967  0.4862
   50CHL1   H2A 3674   1.091   0.146   6.772 -0.9845  2.2205 -1.7566
   50CHL1   H2B 3675   1.252   0.203   6.840 -0.4202  1.0854 -1.8876
   50CHL1   C20 3676   1.007   0.328   7.779 -0.3095 -0.5705 -0.3251
   50CHL1   H20 3677   1.106   0.380   7.785  0.4487 -1.7700 -1.8761
   50CHL1   C21 3678   1.031   0.178   7.781  0.6294  0.0696 -0.3978
   50CHL1  H21A 3679   1.099   0.155   7.696  1.5495  1.8205 -0.1701
   50CHL1  H21B 3680   0.935   0.122   7.776 -0.5042  2.0109 -1.1713
   50CHL1  H21C 3681   1.074   0.147   7.878  1.2239  1.4080 -0.2110
   50CHL1   C22 3682   0.913   0.378   7.893  0.5878 -0.5492 -0.7535
   50CHL1  H22A 3683   0.920   0.488   7.904 -0.3902 -0.6035  0.6527
   50CHL1  H22B 3684   0.807   0.358   7.867  0.2300 -1.0871  0.9846
   50CHL1   C23 3685   0.937   0.330   8.036 -0.5155  0.6319  0.0708
   50CHL1  H23A 3686   0.962   0.222   8.045 -0.5220  0.5573 -0.8005
   50CHL1  H23B 3687   1.028   0.386   8.066  1.1038 -2.2351  0.8478
   50CHL1   C24 3688   0.825   0.359   8.134  0.5340 -0.4523  0.8332
   50CHL1  H24A 3689   0.794   0.465   8.119 -2.6398 -1.1075  2.0122
   50CHL1  H24B 3690   0.735   0.296   8.119 -0.0532  1.0241 -2.9666
   50CHL1   C25 3691   0.879   0.353   8.286 -0.4143  0.3675  0.7411
   50CHL1   H25 3692   0.989   0.364   8.282 -0.3424 -0.0779  1.3693
   50CHL1   C26 3693   0.833   0.476   8.374  0.1650 -0.1709  0.1721
   50CHL1  H26A 3694   0.725   0.499   8.364  0.3073  0.4327  0.0355
   50CHL1  H26B 3695   0.851   0.457   8.482  0.7944 -0.6201 -0.0036
   50CHL1  H26C 3696   0.886   0.570   8.349  1.2251 -1.2137 -1.7698
   50CHL1   C27 3697   0.831   0.218   8.336 -0.0062 -0.0692  0.1060
   50CHL1  H27A 3698   0.889   0.137   8.289  2.0316  0.9584  0.7259
   50CHL1  H27B 3699   0.830   0.214   8.447  1.1641  2.1615  0.2520
   50CHL1  H27C 3700   0.730   0.192   8.298  0.3794 -1.3434 -0.0883
   51CHL1    C3 3701   2.369   1.402   6.618  0.7060  0.0462 -0.6006
   51CHL1    H3 3702   2.370   1.512   6.602 -0.4000  0.0697 -0.5999
   51CHL1    O3 3703   2.370   1.349   6.488  0.0696  0.0353  0.2832
   51CHL1   H3' 3704   2.460   1.314   6.491  0.0439 -0.4874 -2.3390
   51CHL1    C4 3705   2.496   1.341   6.695 -0.4546  0.0892  0.6244
   51CHL1   H4A 3706   2.491   1.231   6.683 -1.9463  0.1270  0.7262
   51CHL1   H4B 3707   2.583   1.385   6.642  0.4631 -0.9585  1.2297
   51CHL1    C5 3708   2.484   1.382   6.843  0.2434 -0.1475 -0.4881
   51CHL1    C6 3709   2.594   1.440   6.898 -0.3450 -0.0510 -0.3630
   51CHL1    H6 3710   2.688   1.459   6.843  0.8391 -0.8933  1.2872
   51CHL1    C7 3711   2.613   1.477   7.045  0.1090  0.9248  0.5147
   51CHL1   H7A 3712   2.705   1.424   7.077  0.2879 -0.0403 -1.4179
   51CHL1   H7B 3713   2.612   1.586   7.067  0.8957  0.9295  0.5433
   51CHL1    C8 3714   2.496   1.400   7.122 -0.3542  0.4749 -0.1771
   51CHL1    H8 3715   2.522   1.292   7.125 -0.6771  0.4106  0.8011
   51CHL1   C14 3716   2.493   1.458   7.266  0.6372  0.2895 -0.1853
   51CHL1   H14 3717   2.464   1.562   7.240 -0.7381 -0.2343 -0.8355
   51CHL1   C15 3718   2.621   1.461   7.358 -0.1339 -0.0654  0.7452
   51CHL1  H15A 3719   2.657   1.356   7.353  2.0442  0.6012  1.5657
   51CHL1  H15B 3720   2.701   1.530   7.325 -0.1633  0.3124  1.4377
   51CHL1   C16 3721   2.564   1.480   7.498  0.2029  0.4465 -0.6595
   51CHL1  H16A 3722   2.585   1.403   7.575  1.6345  1.2470 -0.1995
   51CHL1  H16B 3723   2.605   1.568   7.552 -0.6189 -0.0190  0.7542
   51CHL1   C17 3724   2.410   1.498   7.480 -0.4970  0.3002 -0.3512
   51CHL1   H17 3725   2.400   1.606   7.455  0.9466  0.5717  0.1361
   51CHL1   C13 3726   2.378   1.417   7.352  0.7494  0.0605 -0.7314
   51CHL1   C18 3727   2.385   1.264   7.394  0.0609 -0.8943 -0.5083
   51CHL1  H18A 3728   2.462   1.249   7.473  0.4311  0.0650 -0.6719
   51CHL1  H18B 3729   2.290   1.229   7.438 -0.7583  0.6430 -0.9676
   51CHL1  H18C 3730   2.424   1.212   7.304 -1.3286 -0.6656 -1.2703
   51CHL1   C12 3731   2.241   1.446   7.288  0.7694  0.6646  0.2866
   51CHL1  H12A 3732   2.156   1.407   7.348  0.5035  0.7605 -0.0279
   51CHL1  H12B 3733   2.218   1.554   7.274  0.0869  0.3074 -1.6300
   51CHL1   C11 3734   2.236   1.380   7.153  0.9587 -0.2478  0.6460
   51CHL1  H11A 3735   2.219   1.272   7.174  0.8468  0.0067  1.9027
   51CHL1  H11B 3736   2.143   1.412   7.101  1.2254 -0.0480  0.2870
   51CHL1    C9 3737   2.359   1.414   7.059  0.4370  0.3242 -0.3890
   51CHL1    H9 3738   2.354   1.523   7.035  1.2812  0.3199 -0.6037
   51CHL1   C10 3739   2.360   1.343   6.916 -0.3982 -0.2514 -0.4539
   51CHL1   C19 3740   2.349   1.188   6.926  0.0004  0.0226  0.2834
   51CHL1  H19A 3741   2.404   1.140   7.009 -1.6417  0.9326  1.9849
   51CHL1  H19B 3742   2.243   1.155   6.935 -0.5750  1.9170  1.0455
   51CHL1  H19C 3743   2.386   1.153   6.827 -1.2783  1.5944 -0.8248
   51CHL1    C1 3744   2.243   1.408   6.834 -0.7570  0.2031  0.0357
   51CHL1   H1A 3745   2.150   1.371   6.880 -0.1972 -1.2905  0.0017
   51CHL1   H1B 3746   2.243   1.519   6.837  1.0930  0.2208  2.6402
   51CHL1    C2 3747   2.242   1.359   6.693 -0.5322 -0.2300  0.2201
   51CHL1   H2A 3748   2.161   1.410   6.637  1.8156  1.6877 -1.6287
   51CHL1   H2B 3749   2.233   1.249   6.675 -1.4554  0.1726 -2.0823
   51CHL1   C20 3750   2.320   1.469   7.606  0.1018  0.8883 -1.0865
   51CHL1   H20 3751   2.311   1.359   7.618  2.2372  0.9614  3.7123
   51CHL1   C21 3752   2.181   1.543   7.593 -0.0759  0.2545  0.3653
   51CHL1  H21A 3753   2.114   1.499   7.670 -1.6745  4.4839  1.6702
   51CHL1  H21B 3754   2.145   1.535   7.488 -0.9265 -2.9866  0.8138
   51CHL1  H21C 3755   2.202   1.646   7.630  2.8776 -0.8032  1.9680
   51CHL1   C22 3756   2.389   1.521   7.734 -0.1160 -0.0168 -0.6867
   51CHL1  H22A 3757   2.491   1.477   7.736 -0.5577 -1.0467  0.9371
   51CHL1  H22B 3758   2.403   1.631   7.727  0.6071 -0.0857 -0.4532
   51CHL1   C23 3759   2.322   1.491   7.878  0.0637 -0.4059  1.2438
   51CHL1  H23A 3760   2.246   1.572   7.885  1.2221  0.8853 -0.2487
   51CHL1  H23B 3761   2.265   1.397   7.860 -2.0557  0.8328  1.1587
   51CHL1   C24 3762   2.424   1.487   7.995 -0.4098  0.1849 -1.0587
   51CHL1  H24A 3763   2.502   1.410   7.974 -1.7236 -2.0931  1.6910
   51CHL1  H24B 3764   2.473   1.587   7.992  0.6467 -0.2808 -0.0539
   51CHL1   C25 3765   2.365   1.471   8.135  0.1674 -0.1239 -0.1788
   51CHL1   H25 3766   2.274   1.408   8.131 -1.1966  1.4467  2.6182
   51CHL1   C26 3767   2.468   1.390   8.227 -0.1041  0.6150 -0.2624
   51CHL1  H26A 3768   2.562   1.448   8.231  1.3662 -1.5407 -1.6689
   51CHL1  H26B 3769   2.420   1.367   8.325 -2.5212  1.7882 -1.0928
   51CHL1  H26C 3770   2.489   1.291   8.182 -2.4676  0.0684 -0.3233
   51CHL1   C27 3771   2.328   1.607   8.197 -0.1399  0.3356  0.1057
   51CHL1  H27A 3772   2.415   1.671   8.223  0.0022  0.1215  0.1665
   51CHL1  H27B 3773   2.270   1.661   8.119  0.8645  1.7544  0.3014
   51CHL1  H27C 3774   2.270   1.609   8.291 -1.8593 -2.6203 -0.7581
   52CHL1    C3 3775   2.957   0.495   7.007  0.3340 -0.1958  0.3609
   52CHL1    H3 3776   3.063   0.519   7.031  0.4244 -1.4781  1.3981
   52CHL1    O3 3777   2.934   0.498   6.865 -0.3599 -0.1977 -0.0189
   52CHL1   H3' 3778   2.860   0.559   6.859 -0.0431  0.2636  0.6899
   52CHL1    C4 3779   2.931   0.355   7.072  0.0519 -0.2707 -0.2009
   52CHL1   H4A 3780   2.827   0.324   7.045  0.0868 -0.2714 -0.3362
   52CHL1   H4B 3781   2.986   0.277   7.015 -1.6468  0.9923 -3.9562
   52CHL1    C5 3782   2.957   0.357   7.222  0.1052  0.5777  0.1087
   52CHL1    C6 3783   3.060   0.286   7.275  0.7413  0.1030 -0.6693
   52CHL1    H6 3784   3.115   0.225   7.202 -0.3982 -1.7123 -0.0884
   52CHL1    C7 3785   3.089   0.281   7.425  0.0173 -0.0203  0.1073
   52CHL1   H7A 3786   3.085   0.180   7.471 -0.9279  0.3984  0.9867
   52CHL1   H7B 3787   3.186   0.333   7.443 -0.2214  0.5937 -0.3479
   52CHL1    C8 3788   2.976   0.347   7.509  0.1790  1.5326  0.3157
   52CHL1    H8 3789   2.884   0.284   7.516  0.4335  0.9939 -0.9307
   52CHL1   C14 3790   3.028   0.365   7.652  0.7315  0.5632  0.3573
   52CHL1   H14 3791   3.109   0.437   7.630  0.0407  1.1966 -0.1716
   52CHL1   C15 3792   3.099   0.251   7.719  0.2284 -0.6741  0.4418
   52CHL1  H15A 3793   3.032   0.163   7.731  0.6295 -1.5143 -2.5598
   52CHL1  H15B 3794   3.193   0.215   7.671  1.2219  0.2100  1.6596
   52CHL1   C16 3795   3.117   0.323   7.853  0.5686  0.3373  0.2656
   52CHL1  H16A 3796   3.110   0.242   7.928 -1.0651  2.4934  2.5934
   52CHL1  H16B 3797   3.216   0.372   7.850  0.9629 -0.4857 -1.3198
   52CHL1   C17 3798   3.025   0.444   7.873 -0.8717  0.3939  0.2003
   52CHL1   H17 3799   3.086   0.537   7.870  1.0171 -0.7481  0.9345
   52CHL1   C13 3800   2.935   0.433   7.749  1.0426  0.2087  0.2556
   52CHL1   C18 3801   2.828   0.334   7.788  0.5289  0.5571 -0.7528
   52CHL1  H18A 3802   2.751   0.383   7.851  0.5129 -2.7121  2.0555
   52CHL1  H18B 3803   2.768   0.304   7.700  0.1321 -1.4787  0.1620
   52CHL1  H18C 3804   2.863   0.244   7.843 -2.7434 -0.4301 -0.0822
   52CHL1   C12 3805   2.888   0.557   7.683 -0.0135  0.1408 -0.6015
   52CHL1  H12A 3806   2.806   0.597   7.747  2.0842  0.9937  1.7194
   52CHL1  H12B 3807   2.970   0.631   7.668  0.2653 -0.4293 -2.0512
   52CHL1   C11 3808   2.833   0.540   7.541 -0.4343 -0.0663  0.1950
   52CHL1  H11A 3809   2.745   0.471   7.537  1.1606 -2.2327  0.6507
   52CHL1  H11B 3810   2.806   0.644   7.512  0.4842  0.4970  1.2790
   52CHL1    C9 3811   2.938   0.479   7.444  0.2515 -0.3162 -0.6235
   52CHL1    H9 3812   3.025   0.548   7.444 -0.9230  1.2443 -0.4581
   52CHL1   C10 3813   2.882   0.469   7.299  0.3328 -0.9227  0.3564
   52CHL1   C19 3814   2.730   0.442   7.292  0.3731 -0.0225  0.6037
   52CHL1  H19A 3815   2.699   0.411   7.190  0.3821  0.4236  0.4650
   52CHL1  H19B 3816   2.694   0.373   7.372 -1.9420  0.8853  0.3996
   52CHL1  H19C 3817   2.674   0.537   7.305 -0.5332 -0.5571  0.6714
   52CHL1    C1 3818   2.899   0.612   7.224  0.5924  0.3058 -0.7282
   52CHL1   H1A 3819   2.838   0.688   7.276 -0.7134 -1.1176 -0.0971
   52CHL1   H1B 3820   3.004   0.647   7.240  0.9040 -1.3364  1.3309
   52CHL1    C2 3821   2.873   0.607   7.072  0.6462  0.7405 -0.0613
   52CHL1   H2A 3822   2.883   0.707   7.024  1.3770  1.9514  2.4560
   52CHL1   H2B 3823   2.763   0.592   7.063  0.5206  1.5704 -0.0366
   52CHL1   C20 3824   2.978   0.452   8.015  0.5146 -0.0926  0.0277
   52CHL1   H20 3825   2.904   0.372   8.038  0.2438  0.8462  2.7474
   52CHL1   C21 3826   2.886   0.575   8.034  0.6424  0.0978  0.3646
   52CHL1  H21A 3827   2.814   0.585   7.950  1.3212 -1.5038 -0.4572
   52CHL1  H21B 3828   2.951   0.665   8.029  0.8655 -0.0984 -0.4406
   52CHL1  H21C 3829   2.835   0.553   8.130  1.4575  0.4410  0.8852
   52CHL1   C22 3830   3.086   0.458   8.132  0.3035 -0.8606 -0.1591
   52CHL1  H22A 3831   3.149   0.368   8.114  0.7973 -0.9301  1.7010
   52CHL1  H22B 3832   3.147   0.551   8.126 -0.6778 -0.3010 -2.5868
   52CHL1   C23 3833   3.017   0.445   8.268 -0.7029  0.6031 -0.3298
   52CHL1  H23A 3834   2.980   0.542   8.308 -2.6433  0.1997 -1.0219
   52CHL1  H23B 3835   2.923   0.386   8.260 -0.5740  0.2699  0.5383
   52CHL1   C24 3836   3.104   0.394   8.385 -0.5147  0.2381  0.3078
   52CHL1  H24A 3837   3.204   0.441   8.375  0.1311 -0.6144  2.2843
   52CHL1  H24B 3838   3.055   0.429   8.479 -2.2863  2.1970 -1.2375
   52CHL1   C25 3839   3.114   0.239   8.390 -0.0522  0.3174 -0.4910
   52CHL1   H25 3840   3.124   0.198   8.288 -1.3070 -0.1639 -0.4280
   52CHL1   C26 3841   3.231   0.189   8.477  0.4040  0.3060  0.0740
   52CHL1  H26A 3842   3.326   0.214   8.425 -0.3243  0.4095 -1.2453
   52CHL1  H26B 3843   3.216   0.243   8.573  1.4328  0.6568  0.0496
   52CHL1  H26C 3844   3.223   0.079   8.493 -1.2572  0.3966  0.0751
   52CHL1   C27 3845   2.988   0.182   8.449 -0.1496 -0.3228  0.1227
   52CHL1  H27A 3846   2.996   0.074   8.476  0.4147 -0.3807 -0.2666
   52CHL1  H27B 3847   2.966   0.228   8.547  0.6245 -1.2873  0.7741
   52CHL1  H27C 3848   2.909   0.195   8.372  0.4715  1.2642 -0.2784
   53CHL1    C3 3849   5.777   6.459   7.052  0.4435 -0.7639 -0.4015
   53CHL1    H3 3850   5.724   6.548   7.093  0.9379  1.8304 -4.7041
   53CHL1    O3 3851   5.751   6.450   6.909 -0.1528 -0.8576 -0.1778
   53CHL1   H3' 3852   5.820   6.391   6.879  1.4730  0.4843  0.7463
   53CHL1    C4 3853   5.923   6.483   7.071  0.3711 -0.4416 -0.3575
   53CHL1   H4A 3854   5.978   6.416   7.003  0.8475 -0.5435  0.1218
   53CHL1   H4B 3855   5.952   6.583   7.032  0.9196  0.1693  1.4894
   53CHL1    C5 3856   5.969   6.476   7.214  0.4773  0.8389 -0.2841
   53CHL1    C6 3857   6.046   6.566   7.272 -0.9698 -0.0285 -0.4030
   53CHL1    H6 3858   6.081   6.654   7.215  0.8400  1.1387  2.3018
   53CHL1    C7 3859   6.095   6.556   7.417 -0.3439  0.0150 -0.0972
   53CHL1   H7A 3860   6.203   6.576   7.429  0.0264 -2.1955  0.7276
   53CHL1   H7B 3861   6.036   6.624   7.483 -0.6304  0.7184 -1.0574
   53CHL1    C8 3862   6.065   6.420   7.490 -0.2947  0.4762  0.5815
   53CHL1    H8 3863   6.141   6.348   7.452 -1.3056 -0.3378  0.0554
   53CHL1   C14 3864   6.072   6.434   7.641 -0.6649  0.1380  0.4610
   53CHL1   H14 3865   5.989   6.499   7.676 -0.6147 -1.1508  3.3011
   53CHL1   C15 3866   6.201   6.496   7.706  0.6847  0.1312 -0.3883
   53CHL1  H15A 3867   6.288   6.441   7.662 -0.0321 -1.0877 -0.3218
   53CHL1  H15B 3868   6.219   6.605   7.695  1.5680 -0.0294 -0.6483
   53CHL1   C16 3869   6.190   6.466   7.855 -0.5525  0.4274 -0.2289
   53CHL1  H16A 3870   6.278   6.403   7.880 -0.5033  0.0405 -1.3245
   53CHL1  H16B 3871   6.186   6.555   7.921 -0.5857  0.6952 -0.5888
   53CHL1   C17 3872   6.068   6.367   7.871  0.1518 -0.1511  0.1760
   53CHL1   H17 3873   5.994   6.446   7.894  0.1100 -0.2672  0.4416
   53CHL1   C13 3874   6.041   6.309   7.724  0.4365 -0.3601 -0.6243
   53CHL1   C18 3875   6.145   6.195   7.688 -0.1186 -0.8702  0.1183
   53CHL1  H18A 3876   6.151   6.160   7.583 -1.1368 -2.1078  0.4509
   53CHL1  H18B 3877   6.244   6.241   7.711 -0.3950 -1.1217  1.9491
   53CHL1  H18C 3878   6.141   6.108   7.756 -0.0558  0.7988  2.3907
   53CHL1   C12 3879   5.899   6.259   7.688 -0.5670 -0.1606 -0.2063
   53CHL1  H12A 3880   5.887   6.162   7.741  0.7434 -0.0830  0.2878
   53CHL1  H12B 3881   5.829   6.327   7.741  0.5783  1.8653 -1.1661
   53CHL1   C11 3882   5.885   6.246   7.535 -0.8599  0.0619  0.3930
   53CHL1  H11A 3883   5.957   6.163   7.516 -2.6276 -1.6646  0.9559
   53CHL1  H11B 3884   5.778   6.221   7.519 -0.8748  1.3014 -1.8612
   53CHL1    C9 3885   5.929   6.372   7.452  0.0596 -0.0173  0.2652
   53CHL1    H9 3886   5.864   6.456   7.485 -0.8283 -0.6167  0.0775
   53CHL1   C10 3887   5.907   6.353   7.296 -0.0422 -0.6977  0.3439
   53CHL1   C19 3888   5.997   6.230   7.248  0.1870 -0.2370  0.0656
   53CHL1  H19A 3889   6.013   6.235   7.138  0.8160 -1.2734  0.0915
   53CHL1  H19B 3890   6.096   6.221   7.298  0.3253 -0.8490 -0.2963
   53CHL1  H19C 3891   5.934   6.142   7.271  1.1684 -0.8687  0.4294
   53CHL1    C1 3892   5.758   6.329   7.257  0.1392  0.1069 -0.3860
   53CHL1   H1A 3893   5.721   6.241   7.314  0.2273  1.7036  2.2951
   53CHL1   H1B 3894   5.708   6.420   7.297  1.3226  0.1161  1.1388
   53CHL1    C2 3895   5.729   6.328   7.110 -0.7613 -0.3463 -0.3544
   53CHL1   H2A 3896   5.621   6.310   7.094 -1.2605  1.9854 -0.0410
   53CHL1   H2B 3897   5.774   6.240   7.059  0.6721 -0.5980  1.2701
   53CHL1   C20 3898   6.077   6.269   7.990  0.2960 -0.1600  0.2003
   53CHL1   H20 3899   6.167   6.207   7.972  1.3975  1.4408 -0.0277
   53CHL1   C21 3900   5.951   6.184   8.000  0.5794 -0.2564 -0.2032
   53CHL1  H21A 3901   5.952   6.106   7.921  0.0402  1.1958 -1.7186
   53CHL1  H21B 3902   5.851   6.231   8.015  0.1472 -2.1249  4.2697
   53CHL1  H21C 3903   5.953   6.134   8.099  0.2061  1.1355  0.5325
   53CHL1   C22 3904   6.109   6.341   8.123 -0.5396  0.1598 -0.1532
   53CHL1  H22A 3905   6.194   6.412   8.121  1.6676 -2.3335 -2.1299
   53CHL1  H22B 3906   6.021   6.399   8.157 -1.4777 -0.6775 -1.1023
   53CHL1   C23 3907   6.149   6.241   8.234 -0.0093 -0.0989 -0.8282
   53CHL1  H23A 3908   6.070   6.165   8.254  1.4465 -1.6172 -0.5708
   53CHL1  H23B 3909   6.243   6.195   8.195 -0.0870 -1.3752  0.3995
   53CHL1   C24 3910   6.181   6.310   8.367  0.6722 -0.4889 -0.7844
   53CHL1  H24A 3911   6.252   6.396   8.358 -0.9511  1.3411  2.4281
   53CHL1  H24B 3912   6.084   6.352   8.400 -0.1011 -1.6086 -1.5769
   53CHL1   C25 3913   6.212   6.215   8.490  0.3535  0.1802 -0.4318
   53CHL1   H25 3914   6.121   6.152   8.498 -0.5453  1.2141 -2.0222
   53CHL1   C26 3915   6.329   6.127   8.464  0.7008 -0.6557  0.3185
   53CHL1  H26A 3916   6.325   6.080   8.363  1.1713 -0.3923  0.1772
   53CHL1  H26B 3917   6.421   6.187   8.482 -0.5755  1.7156 -0.6813
   53CHL1  H26C 3918   6.323   6.038   8.531 -0.9833 -0.1118  0.9384
   53CHL1   C27 3919   6.230   6.300   8.622  0.2378  0.6005  0.6016
   53CHL1  H27A 3920   6.248   6.227   8.704 -0.1922 -0.5189 -0.2877
   53CHL1  H27B 3921   6.319   6.366   8.613 -0.3763  1.3711  0.0380
   53CHL1  H27C 3922   6.134   6.354   8.639 -0.9510 -1.6226  1.3432
   54CHL1    C3 3923   3.673   1.372   6.744 -0.5624 -0.1679  0.6959
   54CHL1    H3 3924   3.594   1.447   6.729 -1.2038 -0.5262  2.1213
   54CHL1    O3 3925   3.718   1.330   6.609 -0.3080 -0.2453  0.0909
   54CHL1   H3' 3926   3.804   1.371   6.595 -0.7292  0.7095  0.2496
   54CHL1    C4 3927   3.785   1.431   6.827  0.0869  0.2753  1.2190
   54CHL1   H4A 3928   3.874   1.365   6.825  0.1320  0.3364 -0.4083
   54CHL1   H4B 3929   3.815   1.518   6.764  0.4108 -1.4377 -1.1323
   54CHL1    C5 3930   3.740   1.471   6.959 -0.1559 -0.4100 -0.1985
   54CHL1    C6 3931   3.755   1.601   7.005  0.2284 -0.2936  0.0265
   54CHL1    H6 3932   3.809   1.669   6.938 -0.0379 -2.1167 -2.1566
   54CHL1    C7 3933   3.710   1.644   7.145 -0.9569 -0.3348  0.5794
   54CHL1   H7A 3934   3.798   1.696   7.190  1.7071 -3.4151 -0.6314
   54CHL1   H7B 3935   3.616   1.702   7.136 -0.2882  0.9087  1.2690
   54CHL1    C8 3936   3.698   1.521   7.241  0.1442 -0.8329 -0.0987
   54CHL1    H8 3937   3.797   1.470   7.242  0.5289 -0.3625 -3.6477
   54CHL1   C14 3938   3.652   1.555   7.384  0.1765  0.2469 -0.1012
   54CHL1   H14 3939   3.552   1.604   7.372  1.0822  1.9427 -1.2157
   54CHL1   C15 3940   3.735   1.654   7.466 -0.1039  0.4370 -0.0332
   54CHL1  H15A 3941   3.843   1.629   7.455  0.1353  2.1345 -2.1269
   54CHL1  H15B 3942   3.731   1.754   7.420  0.9549  0.8338  0.6963
   54CHL1   C16 3943   3.688   1.634   7.619  0.0039 -0.1014 -0.4559
   54CHL1  H16A 3944   3.775   1.583   7.666  0.1146 -1.9179 -2.4514
   54CHL1  H16B 3945   3.647   1.725   7.667 -1.1471 -0.8599  0.0416
   54CHL1   C17 3946   3.579   1.516   7.605 -0.0181  0.2304 -0.1117
   54CHL1   H17 3947   3.493   1.584   7.585  0.0626  0.3969  0.0938
   54CHL1   C13 3948   3.621   1.441   7.479  0.9394  0.4072  0.7296
   54CHL1   C18 3949   3.741   1.352   7.519 -1.0467  0.2914  0.7535
   54CHL1  H18A 3950   3.726   1.282   7.604  0.9916  2.9291  3.4804
   54CHL1  H18B 3951   3.770   1.298   7.426 -0.1853  1.1557  0.5044
   54CHL1  H18C 3952   3.828   1.414   7.548  0.2681 -1.7103  1.2839
   54CHL1   C12 3953   3.510   1.360   7.403 -0.7251  0.2450 -0.5844
   54CHL1  H12A 3954   3.489   1.272   7.468 -0.9618  0.2436 -0.6627
   54CHL1  H12B 3955   3.418   1.422   7.403 -1.2206 -0.3868  1.8325
   54CHL1   C11 3956   3.556   1.309   7.269 -0.2801  0.8404  0.0091
   54CHL1  H11A 3957   3.635   1.233   7.289 -1.1206 -0.7653 -2.3385
   54CHL1  H11B 3958   3.474   1.262   7.211  0.1391  0.3533 -0.2015
   54CHL1    C9 3959   3.606   1.416   7.171 -0.6210 -0.3044 -0.7531
   54CHL1    H9 3960   3.519   1.479   7.142 -0.2617  1.3136  1.4942
   54CHL1   C10 3961   3.664   1.360   7.042 -0.6207 -0.1579  0.5467
   54CHL1   C19 3962   3.761   1.232   7.077  0.1913 -0.3970 -0.4108
   54CHL1  H19A 3963   3.818   1.210   6.984 -1.1544  0.1439 -1.3905
   54CHL1  H19B 3964   3.824   1.249   7.167 -0.1784 -1.0171 -0.0279
   54CHL1  H19C 3965   3.695   1.145   7.097 -1.7891  1.0365 -0.4392
   54CHL1    C1 3966   3.554   1.309   6.948 -0.2375 -0.3559 -0.0984
   54CHL1   H1A 3967   3.507   1.226   7.006  1.2750 -0.3540  1.2068
   54CHL1   H1B 3968   3.472   1.382   6.933 -0.1441 -0.4721 -1.3267
   54CHL1    C2 3969   3.604   1.253   6.820 -0.9347 -0.0302  0.5289
   54CHL1   H2A 3970   3.523   1.215   6.755  0.5307  0.3025 -1.5926
   54CHL1   H2B 3971   3.671   1.164   6.823 -1.3106 -0.4450 -1.8145
   54CHL1   C20 3972   3.554   1.449   7.737 -0.5517  0.0016 -0.4117
   54CHL1   H20 3973   3.601   1.349   7.746 -0.2053  0.1202 -0.9236
   54CHL1   C21 3974   3.403   1.421   7.752  0.1109  0.4734  0.4023
   54CHL1  H21A 3975   3.396   1.343   7.830  1.4295 -2.0797 -1.8460
   54CHL1  H21B 3976   3.361   1.385   7.656 -0.5629  1.0928  0.4562
   54CHL1  H21C 3977   3.346   1.515   7.768 -1.8170  0.1798 -3.4789
   54CHL1   C22 3978   3.613   1.528   7.864  1.0810 -0.0832 -0.1753
   54CHL1  H22A 3979   3.723   1.514   7.864  0.8105 -2.9835 -1.2758
   54CHL1  H22B 3980   3.589   1.636   7.868 -1.0000 -0.5132  2.2501
   54CHL1   C23 3981   3.584   1.479   8.015 -0.0602 -0.5009 -0.2324
   54CHL1  H23A 3982   3.640   1.548   8.081 -0.9854  0.9354 -0.9017
   54CHL1  H23B 3983   3.475   1.485   8.031 -0.4070  0.5261 -2.5377
   54CHL1   C24 3984   3.645   1.340   8.048 -0.7117 -0.6035  0.0580
   54CHL1  H24A 3985   3.575   1.266   8.004  0.5198 -0.7225 -1.8359
   54CHL1  H24B 3986   3.743   1.332   7.996  1.5692  1.5048  3.5780
   54CHL1   C25 3987   3.657   1.318   8.197 -0.1503  0.3214  0.2780
   54CHL1   H25 3988   3.727   1.392   8.242 -0.1716  0.9233 -0.6627
   54CHL1   C26 3989   3.516   1.333   8.266 -0.3265  0.0446 -0.3438
   54CHL1  H26A 3990   3.446   1.276   8.201  0.3956 -0.0639 -1.0431
   54CHL1  H26B 3991   3.512   1.282   8.365 -1.7340  1.7125  0.5296
   54CHL1  H26C 3992   3.489   1.441   8.276  0.6026  0.4429 -1.9395
   54CHL1   C27 3993   3.709   1.174   8.227  0.5254  0.4697  0.6052
   54CHL1  H27A 3994   3.728   1.155   8.335 -0.4979 -0.2169  0.6815
   54CHL1  H27B 3995   3.637   1.098   8.189 -1.0402  2.2469 -0.1335
   54CHL1  H27C 3996   3.807   1.176   8.174  0.3587  1.1927  0.3087
   55CHL1    C3 3997   3.730   0.681   7.072 -0.2207  0.2383  0.1981
   55CHL1    H3 3998   3.630   0.662   7.117  0.2983  0.1966  1.3793
   55CHL1    O3 3999   3.715   0.668   6.933 -0.2889 -0.3358  0.1592
   55CHL1   H3' 4000   3.743   0.578   6.914  1.0680  0.0145  0.3942
   55CHL1    C4 4001   3.766   0.831   7.104 -0.6503 -0.0454  0.7067
   55CHL1   H4A 4002   3.858   0.860   7.048 -0.2219 -0.7871  1.0029
   55CHL1   H4B 4003   3.679   0.887   7.067 -1.0180 -0.0979  1.4778
   55CHL1    C5 4004   3.790   0.858   7.252 -0.4382  0.0219  0.0004
   55CHL1    C6 4005   3.711   0.948   7.312  0.4066 -0.2381 -0.5664
   55CHL1    H6 4006   3.639   1.005   7.251  0.0558  0.2352  0.2840
   55CHL1    C7 4007   3.716   0.977   7.463  0.2301  0.1673 -0.3387
   55CHL1   H7A 4008   3.700   1.087   7.473 -1.5689 -0.1478  0.7297
   55CHL1   H7B 4009   3.625   0.927   7.503  0.4642 -0.3827 -0.4835
   55CHL1    C8 4010   3.831   0.909   7.544  0.1477 -0.0985  0.1839
   55CHL1    H8 4011   3.915   0.982   7.536 -1.5148  1.6937 -2.6384
   55CHL1   C14 4012   3.788   0.896   7.686 -0.6469  0.2164 -1.1747
   55CHL1   H14 4013   3.709   0.821   7.703  0.7662 -1.2624 -0.8832
   55CHL1   C15 4014   3.739   1.017   7.773 -0.3189  0.3554 -0.3398
   55CHL1  H15A 4015   3.803   1.103   7.744 -0.1320  0.8336  1.4042
   55CHL1  H15B 4016   3.631   1.041   7.759 -0.4661  0.0901  0.3126
   55CHL1   C16 4017   3.768   0.970   7.919  0.2617  0.2705 -0.9541
   55CHL1  H16A 4018   3.826   1.049   7.971 -0.5050 -0.5598  1.2626
   55CHL1  H16B 4019   3.684   0.972   7.992 -1.2075  1.7661 -2.5726
   55CHL1   C17 4020   3.847   0.835   7.911  0.3306  0.2861  0.2245
   55CHL1   H17 4021   3.766   0.760   7.906  0.4248 -0.0588  2.5573
   55CHL1   C13 4022   3.905   0.836   7.772  0.2019 -0.4212 -0.1343
   55CHL1   C18 4023   4.039   0.919   7.767 -0.0448  0.0575  0.4159
   55CHL1  H18A 4024   4.023   1.021   7.809  1.4768  0.4205  0.1706
   55CHL1  H18B 4025   4.114   0.864   7.827  0.4364 -2.1081 -2.0226
   55CHL1  H18C 4026   4.083   0.931   7.666 -1.5154  2.2857 -0.0427
   55CHL1   C12 4027   3.937   0.694   7.723 -0.5081 -0.1848  0.4608
   55CHL1  H12A 4028   4.017   0.636   7.775 -0.3863 -0.6486 -0.2333
   55CHL1  H12B 4029   3.843   0.637   7.743 -0.2220 -0.2696  1.6686
   55CHL1   C11 4030   3.962   0.684   7.565 -0.1737  0.1640 -0.1144
   55CHL1  H11A 4031   4.067   0.717   7.552  0.8100 -2.0123  1.5963
   55CHL1  H11B 4032   3.951   0.576   7.541  1.4939 -0.4571  1.6110
   55CHL1    C9 4033   3.860   0.767   7.481  0.0287  0.4398  0.5807
   55CHL1    H9 4034   3.763   0.713   7.491 -1.1497  1.9379 -1.7280
   55CHL1   C10 4035   3.883   0.757   7.331  0.1860  0.4199  0.3439
   55CHL1   C19 4036   4.020   0.791   7.288 -0.3887  0.3925 -0.5017
   55CHL1  H19A 4037   4.057   0.891   7.317 -0.0620  0.4274 -1.0232
   55CHL1  H19B 4038   4.098   0.726   7.332  1.3468  2.6164 -0.1033
   55CHL1  H19C 4039   4.042   0.775   7.180  1.6334 -1.2353  0.0966
   55CHL1    C1 4040   3.854   0.607   7.284 -0.1956 -0.0438  0.1098
   55CHL1   H1A 4041   3.930   0.546   7.338  1.0208  1.0969 -0.2487
   55CHL1   H1B 4042   3.757   0.579   7.330 -1.7115  3.2037 -0.8082
   55CHL1    C2 4043   3.841   0.582   7.131 -0.1689  1.0255 -0.6318
   55CHL1   H2A 4044   3.821   0.475   7.111  2.2165  0.3486  0.2080
   55CHL1   H2B 4045   3.939   0.603   7.083  0.6837 -0.8817  0.1836
   55CHL1   C20 4046   3.921   0.792   8.032  0.1411 -0.2384 -0.0163
   55CHL1   H20 4047   4.025   0.831   8.037 -0.1812  0.8319 -1.2030
   55CHL1   C21 4048   3.939   0.645   8.041  0.1535  0.0938  0.1115
   55CHL1  H21A 4049   3.941   0.603   8.144  1.3804 -1.0323 -0.3425
   55CHL1  H21B 4050   4.037   0.616   7.997  0.5389  0.7053  0.5504
   55CHL1  H21C 4051   3.865   0.589   7.981  2.2687  0.0813 -2.6838
   55CHL1   C22 4052   3.850   0.848   8.164  0.9271 -0.3058 -0.2189
   55CHL1  H22A 4053   3.868   0.957   8.153  0.6341 -0.2883 -0.5747
   55CHL1  H22B 4054   3.741   0.830   8.178  0.8460  0.0185 -0.4371
   55CHL1   C23 4055   3.925   0.822   8.296 -0.4844 -0.1988  0.0510
   55CHL1  H23A 4056   3.921   0.715   8.325  1.0790  0.0315  1.2435
   55CHL1  H23B 4057   4.033   0.842   8.280 -0.0334 -1.5947  1.1609
   55CHL1   C24 4058   3.883   0.915   8.416 -0.4568 -0.1889 -1.2062
   55CHL1  H24A 4059   3.882   1.023   8.390 -1.0226 -0.2982 -1.6530
   55CHL1  H24B 4060   3.784   0.878   8.451  0.6777 -2.2224  0.0364
   55CHL1   C25 4061   3.979   0.912   8.532  0.2975 -0.2285  0.2209
   55CHL1   H25 4062   4.021   0.809   8.541 -1.0502 -0.9673 -1.4045
   55CHL1   C26 4063   4.106   1.006   8.520  0.2810  0.4240  0.4914
   55CHL1  H26A 4064   4.084   1.095   8.583  0.1869 -0.5135  1.8104
   55CHL1  H26B 4065   4.197   0.951   8.549  0.1690  0.4559  0.8997
   55CHL1  H26C 4066   4.111   1.026   8.410  0.3499  0.6325  0.5320
   55CHL1   C27 4067   3.909   0.942   8.667  0.1638  0.1565 -0.0707
   55CHL1  H27A 4068   3.813   0.885   8.672  0.0742  0.0711 -1.9691
   55CHL1  H27B 4069   3.979   0.922   8.750 -0.4816 -0.7044  0.2908
   55CHL1  H27C 4070   3.873   1.047   8.659  0.5727  0.3090  0.0741
   56CHL1    C3 4071   6.477   2.990   6.912 -0.0906  0.9876  1.1199
   56CHL1    H3 4072   6.423   2.897   6.937  0.7479  0.0727 -0.3843
   56CHL1    O3 4073   6.492   2.999   6.771 -0.8134 -0.1497 -0.5930
   56CHL1   H3' 4074   6.535   3.085   6.770 -0.3802 -0.3388  0.3337
   56CHL1    C4 4075   6.400   3.110   6.971 -0.3061  0.5042  0.1615
   56CHL1   H4A 4076   6.468   3.190   6.934  0.8058 -1.6106 -2.7584
   56CHL1   H4B 4077   6.304   3.117   6.917 -1.2238  3.1824  1.9830
   56CHL1    C5 4078   6.376   3.109   7.122  0.5260 -0.1144 -0.1135
   56CHL1    C6 4079   6.257   3.118   7.179  0.6007 -0.0162  0.2451
   56CHL1    H6 4080   6.166   3.114   7.117 -0.5253  1.1070  1.7449
   56CHL1    C7 4081   6.239   3.131   7.326 -0.6112  0.2180 -0.2676
   56CHL1   H7A 4082   6.169   3.214   7.349 -0.0468  0.5028  0.4721
   56CHL1   H7B 4083   6.193   3.041   7.370  2.0601 -0.3190  1.6527
   56CHL1    C8 4084   6.365   3.152   7.406 -0.3679 -0.6162  0.1991
   56CHL1    H8 4085   6.382   3.261   7.391 -3.4410 -0.0379  0.2825
   56CHL1   C14 4086   6.347   3.128   7.554 -0.2235  0.2078  0.0664
   56CHL1   H14 4087   6.332   3.019   7.569 -1.3680  0.1505 -1.2704
   56CHL1   C15 4088   6.240   3.202   7.622  0.0603  0.4085 -0.3379
   56CHL1  H15A 4089   6.228   3.309   7.595  1.4952  0.2624 -1.6596
   56CHL1  H15B 4090   6.145   3.144   7.615  1.1356 -1.3195 -1.2538
   56CHL1   C16 4091   6.271   3.202   7.772 -0.3152 -0.3785 -0.4887
   56CHL1  H16A 4092   6.279   3.310   7.798 -0.3530 -0.5495  0.2481
   56CHL1  H16B 4093   6.199   3.148   7.838  1.4434 -0.9341  1.0609
   56CHL1   C17 4094   6.417   3.133   7.781 -0.2046  0.3869  0.1418
   56CHL1   H17 4095   6.411   3.022   7.788  0.0175  0.3800  0.2358
   56CHL1   C13 4096   6.478   3.155   7.645 -0.1373 -0.3643 -0.2149
   56CHL1   C18 4097   6.515   3.297   7.627 -0.2471 -0.1940 -0.3810
   56CHL1  H18A 4098   6.436   3.375   7.626  0.6843  0.7743  0.2290
   56CHL1  H18B 4099   6.591   3.329   7.700  0.2263  0.6567 -1.2243
   56CHL1  H18C 4100   6.567   3.313   7.530  1.8539  0.4643  0.8130
   56CHL1   C12 4101   6.592   3.053   7.602  0.9987  0.2760  0.7818
   56CHL1  H12A 4102   6.691   3.081   7.644  1.4533 -0.0608 -0.0392
   56CHL1  H12B 4103   6.551   2.953   7.630 -0.4529  0.6271 -0.0004
   56CHL1   C11 4104   6.615   3.063   7.445  0.4394  0.3597  0.7378
   56CHL1  H11A 4105   6.664   3.161   7.426 -2.0846  1.5690 -0.0144
   56CHL1  H11B 4106   6.680   2.975   7.424 -0.5535  0.2352 -2.2716
   56CHL1    C9 4107   6.480   3.068   7.350 -0.0312 -0.2098 -0.3574
   56CHL1    H9 4108   6.445   2.963   7.353 -0.9050  0.0794  2.5985
   56CHL1   C10 4109   6.507   3.101   7.203 -0.7327 -0.4260 -0.1409
   56CHL1   C19 4110   6.581   3.228   7.196 -0.1088  0.2228 -0.2751
   56CHL1  H19A 4111   6.547   3.307   7.267 -2.8401 -1.2911  0.2301
   56CHL1  H19B 4112   6.684   3.193   7.217  0.0387  0.1805 -1.0268
   56CHL1  H19C 4113   6.579   3.278   7.096 -2.3734 -2.1561 -1.5326
   56CHL1    C1 4114   6.590   2.984   7.140  0.2152 -0.6950  0.3215
   56CHL1   H1A 4115   6.688   2.977   7.194  1.7833  1.1744 -2.0918
   56CHL1   H1B 4116   6.543   2.885   7.158 -2.6155  0.3877 -0.6050
   56CHL1    C2 4117   6.616   2.985   6.987  0.4851  0.6853 -0.2438
   56CHL1   H2A 4118   6.661   2.890   6.954 -2.1620 -1.1742  1.1295
   56CHL1   H2B 4119   6.681   3.074   6.972  2.8228 -1.0204 -0.8631
   56CHL1   C20 4120   6.489   3.163   7.912  0.2293  0.0511  0.1261
   56CHL1   H20 4121   6.517   3.271   7.910 -0.2589  0.1880 -2.5242
   56CHL1   C21 4122   6.611   3.070   7.933 -0.3986  0.1669  0.0202
   56CHL1  H21A 4123   6.677   3.101   8.017 -0.3425  3.5902 -1.1512
   56CHL1  H21B 4124   6.686   3.071   7.851  3.5022  1.7963  3.2542
   56CHL1  H21C 4125   6.583   2.964   7.951 -0.9870  0.5496  1.4989
   56CHL1   C22 4126   6.387   3.137   8.025  0.0401 -0.2345  0.4191
   56CHL1  H22A 4127   6.311   3.215   8.004 -0.0404 -0.8427 -1.8188
   56CHL1  H22B 4128   6.340   3.037   8.035 -2.9992  1.0972  0.3532
   56CHL1   C23 4129   6.444   3.176   8.162 -0.4127  0.2278  0.9358
   56CHL1  H23A 4130   6.528   3.109   8.189 -0.7305 -0.6316 -0.1226
   56CHL1  H23B 4131   6.492   3.276   8.152  0.7709 -0.4546 -0.3765
   56CHL1   C24 4132   6.337   3.190   8.268 -0.0421 -0.5984 -0.2894
   56CHL1  H24A 4133   6.278   3.278   8.234  0.5231 -0.5989 -1.2772
   56CHL1  H24B 4134   6.276   3.097   8.270 -0.3260 -0.4640 -1.6379
   56CHL1   C25 4135   6.400   3.214   8.411 -0.6708  0.2674 -0.0821
   56CHL1   H25 4136   6.482   3.287   8.392 -0.1437 -0.1043  0.7146
   56CHL1   C26 4137   6.288   3.258   8.510 -0.2619  0.2016  0.3972
   56CHL1  H26A 4138   6.246   3.348   8.461  0.5584  0.3243 -0.0883
   56CHL1  H26B 4139   6.331   3.303   8.603 -0.1127  0.6298  0.1236
   56CHL1  H26C 4140   6.215   3.177   8.532 -1.4615  1.2693  0.4743
   56CHL1   C27 4141   6.463   3.082   8.462 -0.1421  0.4906  0.2973
   56CHL1  H27A 4142   6.398   2.992   8.464  1.3308 -0.6260  2.6194
   56CHL1  H27B 4143   6.553   3.069   8.398 -0.1712 -1.3661  0.5658
   56CHL1  H27C 4144   6.487   3.091   8.570 -0.3963  1.0054  0.3142
   57SAPC     N 4145   5.416   6.123  11.047 -0.4461 -0.6409 -0.4565
   57SAPC   C12 4146   5.358   6.002  11.111 -0.4411 -0.1664  0.3014
   57SAPC  H12A 4147   5.252   6.020  11.118 -0.2609  0.3053  2.4468
   57SAPC  H12B 4148   5.399   6.002  11.211  1.6967 -0.9280 -0.5071
   57SAPC   C13 4149   5.360   6.140  10.915 -0.3402  0.2633  0.1337
   57SAPC  H13A 4150   5.368   6.049  10.858  3.6393 -0.2439  1.2419
   57SAPC  H13B 4151   5.252   6.149  10.909 -0.1675  1.3770 -2.9385
   57SAPC  H13C 4152   5.396   6.221  10.854 -1.2942  0.4861 -0.1489
   57SAPC   C14 4153   5.389   6.242  11.132 -0.4327 -0.8757  0.0636
   57SAPC  H14A 4154   5.428   6.328  11.080 -1.2946  0.0059  0.8327
   57SAPC  H14B 4155   5.284   6.265  11.145  0.0154  1.8370 -0.5105
   57SAPC  H14C 4156   5.428   6.233  11.232 -1.7012  1.3628  0.8422
   57SAPC   C15 4157   5.566   6.100  11.025  0.6150 -0.2080 -0.1791
   57SAPC  H15A 4158   5.618   6.186  10.987  0.3355  0.0683  0.0612
   57SAPC  H15B 4159   5.615   6.078  11.118 -3.3422  0.7678  2.3840
   57SAPC  H15C 4160   5.582   6.009  10.968  1.1044 -1.1348  1.3956
   57SAPC   C11 4161   5.387   5.866  11.037 -0.0164  0.1278 -0.2597
   57SAPC  H11A 4162   5.370   5.783  11.109 -1.1819 -1.7196 -2.5286
   57SAPC  H11B 4163   5.491   5.850  11.002 -0.3632 -1.2744 -0.6874
   57SAPC     P 4164   5.148   5.834  10.941 -0.1139 -0.0247  0.5546
   57SAPC   O13 4165   5.127   5.734  11.046  0.3733  0.2238  0.4916
   57SAPC   O14 4166   5.098   5.972  10.970  0.1144  0.0633 -0.4882
   57SAPC   O12 4167   5.303   5.843  10.923 -0.3239  0.2308 -0.7698
   57SAPC   O11 4168   5.094   5.783  10.800 -0.0926 -0.0527  0.3166
   57SAPC    C1 4169   5.104   5.864  10.686  0.2959 -0.3993 -0.7426
   57SAPC    HA 4170   5.043   5.956  10.695  1.3933  0.4731 -1.9075
   57SAPC    HB 4171   5.209   5.895  10.670  1.0941 -1.2718  2.2753
   57SAPC    C2 4172   5.044   5.788  10.567 -0.2726 -0.2177 -0.2951
   57SAPC    HS 4173   4.936   5.783  10.592 -0.4407  3.0771  0.1472
   57SAPC   O21 4174   5.101   5.654  10.548  0.4009 -0.2308  0.3226
   57SAPC   C21 4175   5.217   5.634  10.505 -0.2314  1.0290  0.3677
   57SAPC   O22 4176   5.305   5.716  10.482  0.1684 -0.5433 -0.1259
   57SAPC   C22 4177   5.236   5.487  10.493  0.1865 -0.0801  0.1519
   57SAPC   H2R 4178   5.334   5.463  10.447 -0.0657 -0.4411 -0.2065
   57SAPC   H2S 4179   5.234   5.448  10.597  0.7947 -0.9449 -0.1435
   57SAPC    C3 4180   5.057   5.865  10.440  0.0290  0.5298 -0.3805
   57SAPC    HX 4181   5.162   5.899  10.436 -0.0135  0.5816 -1.1332
   57SAPC    HY 4182   5.000   5.960  10.444 -0.4807  0.2884 -1.3923
   57SAPC   O31 4183   5.021   5.794  10.323 -0.0461  0.0088  0.1908
   57SAPC   C31 4184   4.901   5.819  10.268 -0.3145 -0.1280 -0.2837
   57SAPC   O32 4185   4.819   5.903  10.307 -1.0647  0.2291  0.7416
   57SAPC   C32 4186   4.896   5.739  10.136 -0.3694 -0.2392 -0.1855
   57SAPC   H2X 4187   4.906   5.634  10.172 -1.9609 -0.2701  0.2683
   57SAPC   H2Y 4188   4.981   5.756  10.066 -0.9726  0.0226 -0.8673
   57SAPC   C23 4189   5.135   5.404  10.404  0.4226 -0.3265 -1.5294
   57SAPC   H3R 4190   5.036   5.454  10.410  1.0481  0.7896  0.6648
   57SAPC   H3S 4191   5.133   5.301  10.444 -2.5293 -0.2494 -1.2597
   57SAPC   C24 4192   5.182   5.389  10.259 -0.6373  0.7211 -0.0547
   57SAPC   H4R 4193   5.211   5.492  10.231 -1.0008  2.0510  3.8708
   57SAPC   H4S 4194   5.090   5.349  10.211  0.2083 -1.5271  0.0873
   57SAPC   C25 4195   5.294   5.287  10.248  0.0710  0.4786 -0.1124
   57SAPC   H5R 4196   5.364   5.282  10.332  0.6184  0.5173 -0.5550
   57SAPC   C26 4197   5.312   5.198  10.149 -0.3859  0.8187  0.0440
   57SAPC   H6R 4198   5.408   5.143  10.144 -0.5571  0.1672  2.7034
   57SAPC   C27 4199   5.218   5.178  10.032  0.2429 -0.5868  0.5024
   57SAPC   H7R 4200   5.111   5.192  10.059  0.3549  2.7160 -0.3529
   57SAPC   H7S 4201   5.236   5.076   9.991  1.0930 -0.2611  0.0585
   57SAPC   C28 4202   5.231   5.272   9.914  0.8874 -0.4070  0.4368
   57SAPC   H8R 4203   5.250   5.378   9.935  1.1455  0.0774 -1.9505
   57SAPC   C29 4204   5.207   5.239   9.784  0.8975 -0.7774  0.6521
   57SAPC   H9R 4205   5.227   5.318   9.711 -0.7984  0.5020  1.5086
   57SAPC  C210 4206   5.176   5.104   9.731 -0.0712 -1.0607 -0.6382
   57SAPC  H10R 4207   5.221   5.025   9.795 -1.3409 -0.6440  0.8270
   57SAPC  H10S 4208   5.237   5.089   9.639  2.6552 -3.0361  1.3451
   57SAPC  C211 4209   5.033   5.065   9.693  0.6453 -0.0250  0.1273
   57SAPC  H11R 4210   4.959   5.054   9.774 -0.4062  0.8603 -0.6920
   57SAPC  C212 4211   4.982   5.040   9.575 -0.3034  0.3999  0.7039
   57SAPC  H12R 4212   4.875   5.017   9.571  0.1203 -1.5562 -0.7773
   57SAPC  C213 4213   5.056   5.048   9.442 -0.2102  0.7018 -0.2504
   57SAPC  H13R 4214   5.106   5.146   9.428  1.3239 -0.0201 -0.0646
   57SAPC  H13S 4215   4.974   5.047   9.367  0.4116 -0.3092 -0.9551
   57SAPC  C214 4216   5.159   4.943   9.422 -0.4080 -0.1674 -0.5137
   57SAPC  H14R 4217   5.197   4.889   9.510  2.4686  0.0793 -1.5110
   57SAPC  C215 4218   5.204   4.894   9.307  0.0085  0.1423  0.1427
   57SAPC  H15R 4219   5.279   4.814   9.313  0.3819  0.3137 -1.5253
   57SAPC  C216 4220   5.156   4.934   9.167 -0.2010  0.0465 -0.3435
   57SAPC  H16R 4221   5.241   4.989   9.121  1.8882 -0.3552  2.8003
   57SAPC  H16S 4222   5.074   5.010   9.169  1.0800  1.5030 -1.1314
   57SAPC  C217 4223   5.118   4.817   9.087  0.7233 -0.1458  0.0227
   57SAPC  H17R 4224   5.033   4.772   9.143  0.5207 -1.0507 -0.9660
   57SAPC  H17S 4225   5.189   4.732   9.095 -1.6776 -2.2150  0.8718
   57SAPC  C218 4226   5.082   4.844   8.938 -0.1397 -0.2728  0.2361
   57SAPC  H18R 4227   5.005   4.922   8.922 -0.8752 -1.2563 -1.2423
   57SAPC  H18S 4228   5.043   4.751   8.891  2.1992 -0.2356 -1.9700
   57SAPC  C219 4229   5.199   4.875   8.851 -0.8972  0.3506 -0.3313
   57SAPC  H19R 4230   5.282   4.800   8.855  0.7113  2.0828  0.3988
   57SAPC  H19S 4231   5.230   4.972   8.895 -1.4113  0.6754 -0.6821
   57SAPC  C220 4232   5.164   4.896   8.704 -0.1255 -0.0146  0.0513
   57SAPC  H20R 4233   5.249   4.926   8.638  0.0975 -1.6696 -0.4724
   57SAPC  H20S 4234   5.089   4.978   8.702  0.6492  0.8311  2.5207
   57SAPC  H20T 4235   5.119   4.807   8.655 -2.7349  1.2929 -0.1035
   57SAPC   C33 4236   4.767   5.767  10.054  0.1983  0.2585  0.2774
   57SAPC   H3X 4237   4.763   5.876  10.036 -1.8313  0.5402  2.0343
   57SAPC   H3Y 4238   4.673   5.735  10.104 -1.3092  3.3538 -0.3788
   57SAPC   C34 4239   4.762   5.692   9.920  0.2955 -1.2796 -0.2618
   57SAPC   H4X 4240   4.849   5.731   9.864 -0.6092 -0.3151 -1.0242
   57SAPC   H4Y 4241   4.670   5.703   9.859 -1.1985 -0.6502  1.9430
   57SAPC   C35 4242   4.779   5.543   9.936 -0.2185  0.0859  0.1870
   57SAPC   H5X 4243   4.703   5.503  10.007 -1.9275 -1.2964 -2.2963
   57SAPC   H5Y 4244   4.867   5.518   9.999  1.1038 -0.7008 -1.9032
   57SAPC   C36 4245   4.780   5.453   9.818  0.1518  0.6188 -0.1845
   57SAPC   H6X 4246   4.674   5.462   9.787 -0.3349  0.6604  1.3634
   57SAPC   H6Y 4247   4.798   5.351   9.859 -0.2897  1.4622  2.3110
   57SAPC   C37 4248   4.864   5.492   9.697 -0.4362  0.3859  0.4871
   57SAPC   H7X 4249   4.972   5.487   9.721 -0.0331  3.6892 -0.1589
   57SAPC   H7Y 4250   4.848   5.597   9.665 -1.0231  1.2511  3.3233
   57SAPC   C38 4251   4.845   5.412   9.569 -0.1220  1.2375  0.7822
   57SAPC   H8X 4252   4.755   5.348   9.584  0.5868  0.3751  1.4260
   57SAPC   H8Y 4253   4.925   5.338   9.546 -0.4131  1.0899  0.2263
   57SAPC   C39 4254   4.813   5.510   9.453  0.3993 -0.1190  0.1069
   57SAPC   H9X 4255   4.904   5.573   9.446 -0.2801  0.8855  0.1081
   57SAPC   H9Y 4256   4.732   5.581   9.481 -1.5307 -0.6076 -3.6019
   57SAPC  C310 4257   4.765   5.454   9.324 -0.2018 -0.6372  0.3875
   57SAPC  H10X 4258   4.663   5.410   9.332 -0.7346  0.2908 -0.9316
   57SAPC  H10Y 4259   4.835   5.375   9.288 -0.7098 -1.2573  0.7407
   57SAPC  C311 4260   4.755   5.560   9.209  0.0858  0.2172 -0.5117
   57SAPC  H11X 4261   4.859   5.599   9.205  0.4765 -0.8323 -0.9352
   57SAPC  H11Y 4262   4.681   5.639   9.234  0.5278  0.7524 -0.8851
   57SAPC  C312 4263   4.724   5.505   9.071  0.8874  0.1326 -0.3819
   57SAPC  H12X 4264   4.617   5.476   9.068  0.7491  0.5359  0.4240
   57SAPC  H12Y 4265   4.782   5.415   9.043  0.3949 -0.3945  0.2635
   57SAPC  C313 4266   4.738   5.610   8.961 -0.1785  0.3509  0.1419
   57SAPC  H13X 4267   4.716   5.717   8.982  2.2066  1.2937 -1.6919
   57SAPC  H13Y 4268   4.670   5.585   8.877 -0.2386 -0.4599  0.4237
   57SAPC  C314 4269   4.884   5.609   8.911 -0.1955 -0.2296  0.4760
   57SAPC  H14X 4270   4.958   5.597   8.993  0.8269  0.8642 -0.2638
   57SAPC  H14Y 4271   4.907   5.709   8.870  0.3957 -1.2749 -1.8792
   57SAPC  C315 4272   4.919   5.496   8.821 -0.0397  0.6640  0.3987
   57SAPC  H15X 4273   4.833   5.465   8.757 -1.3556  0.5013  2.1583
   57SAPC  H15Y 4274   4.926   5.405   8.885 -0.2177  0.6095  0.3418
   57SAPC  C316 4275   5.053   5.509   8.742  0.0690 -0.6418 -0.0033
   57SAPC  H16X 4276   5.128   5.560   8.805  0.8647 -2.2015  0.3526
   57SAPC  H16Y 4277   5.017   5.574   8.659 -1.2117  0.3268  1.2464
   57SAPC  C317 4278   5.119   5.387   8.688  0.5802  0.6713  0.2300
   57SAPC  H17X 4279   5.121   5.312   8.770  1.9037 -0.0106 -0.3902
   57SAPC  H17Y 4280   5.227   5.396   8.664  0.6047 -0.7649 -0.3271
   57SAPC  C318 4281   5.048   5.331   8.557  0.2402 -0.3867 -0.8564
   57SAPC  H18X 4282   4.940   5.357   8.556 -0.5304 -3.2087 -0.1759
   57SAPC  H18Y 4283   5.062   5.221   8.557 -3.2965 -0.9552  0.6889
   57SAPC  H18Z 4284   5.087   5.381   8.466  0.7340 -0.2787 -0.5926
   58SAPC     N 4285   5.568   2.341  10.916 -0.0551 -0.3218  0.0416
   58SAPC   C12 4286   5.565   2.495  10.880 -0.4834  0.2264 -0.2253
   58SAPC  H12A 4287   5.650   2.542  10.927  0.6626 -1.4759 -0.5092
   58SAPC  H12B 4288   5.475   2.531  10.926 -0.7334 -2.3079  1.4590
   58SAPC   C13 4289   5.450   2.271  10.861 -0.4609  0.1679  0.3487
   58SAPC  H13A 4290   5.456   2.270  10.753 -0.0756 -0.9313  0.3640
   58SAPC  H13B 4291   5.447   2.169  10.897  1.3359  1.1003  3.4491
   58SAPC  H13C 4292   5.358   2.308  10.903 -1.4098  1.0836 -2.3000
   58SAPC   C14 4293   5.684   2.280  10.855  0.3166 -1.0258  0.5081
   58SAPC  H14A 4294   5.693   2.311  10.752  0.7143  1.1050  1.1284
   58SAPC  H14B 4295   5.772   2.326  10.897  0.1531 -1.1030  0.9399
   58SAPC  H14C 4296   5.689   2.172  10.858 -0.4611 -1.2934 -3.3813
   58SAPC   C15 4297   5.580   2.327  11.066 -0.1370  0.0253 -0.1630
   58SAPC  H15A 4298   5.651   2.398  11.105 -0.8727  0.0102  1.2490
   58SAPC  H15B 4299   5.487   2.339  11.119  0.4641 -0.2083  0.9703
   58SAPC  H15C 4300   5.609   2.225  11.083  0.2292 -0.0384 -1.0983
   58SAPC   C11 4301   5.575   2.544  10.733  0.0674 -0.5228 -0.6515
   58SAPC  H11A 4302   5.544   2.650  10.719 -3.2378 -1.3142 -0.2871
   58SAPC  H11B 4303   5.488   2.495  10.683 -0.9703  0.6006 -0.0034
   58SAPC     P 4304   5.812   2.592  10.626  0.2700  0.2345  0.6160
   58SAPC   O13 4305   5.843   2.701  10.725  0.1257  0.0016  0.2385
   58SAPC   O14 4306   5.924   2.503  10.572  0.2224 -0.3300 -0.5674
   58SAPC   O12 4307   5.696   2.500  10.677  0.4429 -0.2665  0.1723
   58SAPC   O11 4308   5.746   2.660  10.501  0.2561 -0.1085  0.0451
   58SAPC    C1 4309   5.698   2.579  10.394  0.2798  0.2863 -0.0562
   58SAPC    HA 4310   5.730   2.473  10.398  1.1430  0.4547 -1.4542
   58SAPC    HB 4311   5.588   2.571  10.409  0.5116 -1.7770  0.8160
   58SAPC    C2 4312   5.726   2.651  10.264 -0.1845  0.7716  0.7510
   58SAPC    HS 4313   5.660   2.741  10.266 -0.4752  0.6710 -1.5674
   58SAPC   O21 4314   5.699   2.555  10.159  0.0663  0.2812 -0.4586
   58SAPC   C21 4315   5.591   2.565  10.094 -0.2760 -0.0668  1.0704
   58SAPC   O22 4316   5.492   2.629  10.126  0.3811  0.2137  0.3093
   58SAPC   C22 4317   5.595   2.460   9.980  0.0100 -0.0853 -0.4638
   58SAPC   H2R 4318   5.628   2.363  10.022 -0.9895 -0.1319  0.2554
   58SAPC   H2S 4319   5.489   2.451   9.947 -0.0311  1.1993 -0.7204
   58SAPC    C3 4320   5.875   2.698  10.269 -0.2201 -0.5009 -1.0679
   58SAPC    HX 4321   5.945   2.628  10.319 -1.2907 -0.2037  0.9363
   58SAPC    HY 4322   5.875   2.788  10.335 -1.3778 -0.9879 -0.3886
   58SAPC   O31 4323   5.917   2.736  10.131 -0.5511 -0.5234  0.1776
   58SAPC   C31 4324   6.013   2.660  10.080 -0.3057 -0.1641  0.6201
   58SAPC   O32 4325   6.066   2.564  10.133  0.0040 -0.1667  0.1920
   58SAPC   C32 4326   6.050   2.702   9.937  0.5544 -0.3811 -0.2406
   58SAPC   H2X 4327   6.086   2.807   9.949 -0.8046  0.1116 -0.2512
   58SAPC   H2Y 4328   5.952   2.705   9.885  0.9673 -1.3666 -1.1016
   58SAPC   C23 4329   5.694   2.491   9.862  0.0443  0.2222  0.6048
   58SAPC   H3R 4330   5.740   2.399   9.820 -0.0683 -0.0869  1.1474
   58SAPC   H3S 4331   5.779   2.552   9.900 -0.3533  1.6189 -0.6778
   58SAPC   C24 4332   5.642   2.560   9.738  0.5603 -0.0438 -0.3250
   58SAPC   H4R 4333   5.715   2.568   9.655 -2.2369 -0.5520 -3.0121
   58SAPC   H4S 4334   5.610   2.661   9.772  1.6916  0.1189  0.3234
   58SAPC   C25 4335   5.532   2.486   9.665 -0.8226 -0.1544 -0.7018
   58SAPC   H5R 4336   5.431   2.528   9.681 -0.9025 -0.6255  0.0463
   58SAPC   C26 4337   5.543   2.387   9.578  0.1933  0.1511  0.0957
   58SAPC   H6R 4338   5.445   2.346   9.549 -0.1056 -1.1191  2.6193
   58SAPC   C27 4339   5.670   2.326   9.521 -0.1993  0.1740  0.4355
   58SAPC   H7R 4340   5.653   2.218   9.507  0.9822 -0.2874  2.1732
   58SAPC   H7S 4341   5.755   2.344   9.591 -1.2838 -2.0528  2.4479
   58SAPC   C28 4342   5.708   2.382   9.386 -0.2902  0.8579 -0.1956
   58SAPC   H8R 4343   5.718   2.492   9.386  2.8745  0.6953  1.4806
   58SAPC   C29 4344   5.748   2.311   9.275  0.5158 -0.3031 -0.3443
   58SAPC   H9R 4345   5.767   2.360   9.178 -1.8114 -0.0239 -0.7117
   58SAPC  C210 4346   5.755   2.155   9.263  0.4066  0.1828 -0.0060
   58SAPC  H10R 4347   5.658   2.119   9.225  0.2825 -0.1669  0.6333
   58SAPC  H10S 4348   5.765   2.108   9.363 -0.7003  0.0798  0.0586
   58SAPC  C211 4349   5.860   2.091   9.178 -0.2514  0.9986  0.3834
   58SAPC  H11R 4350   5.942   2.037   9.228 -2.2603 -1.3110  1.4055
   58SAPC  C212 4351   5.854   2.085   9.042  0.0398  0.3152  0.9370
   58SAPC  H12R 4352   5.929   2.027   8.987 -0.7654 -1.6934  1.8823
   58SAPC  C213 4353   5.746   2.139   8.949 -0.0565  0.0793 -0.8505
   58SAPC  H13R 4354   5.729   2.248   8.963 -0.3931  0.0739 -1.1961
   58SAPC  H13S 4355   5.652   2.088   8.981  1.3957 -1.1478  1.8990
   58SAPC  C214 4356   5.778   2.105   8.807 -0.2595  0.1766  0.0877
   58SAPC  H14R 4357   5.815   2.191   8.749 -0.3204  0.2090  0.0974
   58SAPC  C215 4358   5.741   1.999   8.731  0.2680 -0.3253 -0.2445
   58SAPC  H15R 4359   5.769   1.991   8.624 -0.8449 -0.8587 -0.5169
   58SAPC  C216 4360   5.656   1.877   8.774 -0.3049 -0.5518 -0.0559
   58SAPC  H16R 4361   5.554   1.906   8.740  1.1418  2.5712 -2.2484
   58SAPC  H16S 4362   5.664   1.847   8.881  1.9832 -2.3872 -0.6423
   58SAPC  C217 4363   5.696   1.754   8.684  0.5313  0.5120 -0.8792
   58SAPC  H17R 4364   5.676   1.774   8.576  1.0858  1.3579 -0.8317
   58SAPC  H17S 4365   5.625   1.680   8.725  0.3366  1.4044  0.4482
   58SAPC  C218 4366   5.847   1.711   8.701 -0.2251  0.6058 -0.2626
   58SAPC  H18R 4367   5.873   1.685   8.806 -1.3225  0.1011 -0.0985
   58SAPC  H18S 4368   5.913   1.794   8.671 -0.0788  0.5249 -0.1651
   58SAPC  C219 4369   5.879   1.585   8.620 -0.8262 -0.3110 -0.0610
   58SAPC  H19R 4370   5.875   1.616   8.514 -0.4885 -1.4099 -0.4172
   58SAPC  H19S 4371   5.797   1.515   8.646 -3.2939  2.0501 -1.1122
   58SAPC  C220 4372   6.018   1.524   8.659  0.3118  0.8128  0.3928
   58SAPC  H20R 4373   6.039   1.429   8.605  1.0534  0.8680  0.5772
   58SAPC  H20S 4374   6.011   1.493   8.766  0.1694  1.2660  0.5144
   58SAPC  H20T 4375   6.099   1.599   8.646 -0.7241  1.6605 -1.5580
   58SAPC   C33 4376   6.169   2.627   9.868 -0.4476  1.1255 -0.6221
   58SAPC   H3X 4377   6.152   2.517   9.873 -0.9365  1.0880 -2.5557
   58SAPC   H3Y 4378   6.266   2.641   9.921  0.5975  0.0924 -2.1665
   58SAPC   C34 4379   6.202   2.668   9.724 -0.7351 -0.1510  0.0846
   58SAPC   H4X 4380   6.301   2.620   9.707  0.9617  3.2713 -0.5725
   58SAPC   H4Y 4381   6.235   2.773   9.714 -0.4656 -0.2671 -0.2817
   58SAPC   C35 4382   6.101   2.624   9.616  0.1300  0.1010 -0.0518
   58SAPC   H5X 4383   5.995   2.658   9.626 -0.2123 -0.4531 -1.4631
   58SAPC   H5Y 4384   6.097   2.513   9.613  0.9292  0.0258  1.1140
   58SAPC   C36 4385   6.139   2.677   9.477  0.1425  1.0043  0.2862
   58SAPC   H6X 4386   6.243   2.646   9.454  0.7228 -0.0907  3.6835
   58SAPC   H6Y 4387   6.127   2.785   9.457  1.3324  1.0311 -0.3860
   58SAPC   C37 4388   6.044   2.609   9.378  0.7342 -0.2652 -0.5090
   58SAPC   H7X 4389   5.944   2.629   9.421  1.4983 -1.7267  2.1832
   58SAPC   H7Y 4390   6.045   2.498   9.385 -1.2209 -0.3277 -0.8183
   58SAPC   C38 4391   6.071   2.643   9.232  0.3310  0.2859  0.7086
   58SAPC   H8X 4392   6.169   2.598   9.202  0.3241 -0.7309  2.1128
   58SAPC   H8Y 4393   6.087   2.752   9.235 -0.2769  0.4008  0.0734
   58SAPC   C39 4394   5.956   2.585   9.144  0.6674 -0.7243  0.1335
   58SAPC   H9X 4395   5.855   2.622   9.174  0.7915 -1.0294  0.9530
   58SAPC   H9Y 4396   5.947   2.474   9.143 -2.1679 -0.5686 -0.5595
   58SAPC  C310 4397   5.982   2.636   9.000  0.7947  0.3771 -0.5584
   58SAPC  H10X 4398   6.071   2.592   8.950 -0.3222 -0.2134 -2.1032
   58SAPC  H10Y 4399   5.998   2.746   9.010  2.0665  0.2225 -0.7412
   58SAPC  C311 4400   5.856   2.616   8.918 -0.7170 -0.4907  0.3362
   58SAPC  H11X 4401   5.785   2.699   8.935  0.8332  0.9719 -0.0419
   58SAPC  H11Y 4402   5.799   2.528   8.955 -1.4906  0.8407  2.4741
   58SAPC  C312 4403   5.895   2.598   8.773 -0.7485 -0.0855  0.9884
   58SAPC  H12X 4404   5.970   2.515   8.779 -2.7867 -1.9389  2.3477
   58SAPC  H12Y 4405   5.944   2.692   8.739 -0.3208 -0.1711  1.3502
   58SAPC  C313 4406   5.789   2.556   8.673  1.2220 -0.0384  0.3610
   58SAPC  H13X 4407   5.701   2.624   8.683 -1.3695 -3.1372  0.2733
   58SAPC  H13Y 4408   5.751   2.464   8.722 -0.5398 -0.3730 -1.4550
   58SAPC  C314 4409   5.845   2.532   8.530  0.0722 -0.1864  0.2291
   58SAPC  H14X 4410   5.940   2.475   8.535  0.6282  0.4776 -1.7908
   58SAPC  H14Y 4411   5.850   2.633   8.484 -0.1774 -0.4851 -0.4588
   58SAPC  C315 4412   5.753   2.451   8.434  0.5634  0.5982 -0.0201
   58SAPC  H15X 4413   5.768   2.486   8.330  2.5316  0.0552  0.0462
   58SAPC  H15Y 4414   5.648   2.476   8.458 -0.0461 -1.3213 -0.4835
   58SAPC  C316 4415   5.769   2.301   8.439 -0.0134 -0.2748 -0.1562
   58SAPC  H16X 4416   5.741   2.273   8.543 -3.0360  0.9166 -0.5486
   58SAPC  H16Y 4417   5.876   2.270   8.437 -0.2596 -1.1118 -0.7425
   58SAPC  C317 4418   5.689   2.227   8.329 -0.0246 -0.4444  0.0773
   58SAPC  H17X 4419   5.739   2.246   8.231 -2.2156 -0.4369 -1.1131
   58SAPC  H17Y 4420   5.587   2.271   8.321 -0.2900 -0.8443  1.1768
   58SAPC  C318 4421   5.673   2.078   8.351 -0.0521  0.5019  0.6888
   58SAPC  H18X 4422   5.614   2.025   8.274  1.9520 -1.9983  0.7236
   58SAPC  H18Y 4423   5.625   2.055   8.449 -0.5618  0.3488  0.4018
   58SAPC  H18Z 4424   5.772   2.027   8.357  1.3106  2.8785 -0.0178
   59SAPC     N 4425   0.120   2.836  10.995  0.3362  0.2827  0.2356
   59SAPC   C12 4426   0.189   2.721  10.929 -0.5875 -0.4694 -0.4635
   59SAPC  H12A 4427   0.278   2.749  10.874  0.4352 -1.7123  0.4829
   59SAPC  H12B 4428   0.126   2.670  10.858 -2.1739 -1.1909  1.3811
   59SAPC   C13 4429  -0.011   2.782  11.056  0.4369 -0.3435  0.4163
   59SAPC  H13A 4430  -0.085   2.853  11.089 -1.0217 -1.7409  0.2869
   59SAPC  H13B 4431  -0.046   2.711  10.982  1.4614 -0.3939 -0.0402
   59SAPC  H13C 4432   0.016   2.728  11.146 -0.8533  1.4362  1.9273
   59SAPC   C14 4433   0.196   2.899  11.104 -0.1398  0.1060 -0.2224
   59SAPC  H14A 4434   0.253   2.827  11.162 -0.8707 -0.3053 -0.0012
   59SAPC  H14B 4435   0.266   2.971  11.065  0.6632  0.7441  2.1975
   59SAPC  H14C 4436   0.140   2.957  11.176  3.1429  1.9940  1.0298
   59SAPC   C15 4437   0.090   2.939  10.895 -0.2468 -0.1860 -0.2615
   59SAPC  H15A 4438   0.015   2.904  10.826  0.8174  0.2654 -1.6701
   59SAPC  H15B 4439   0.042   3.024  10.943 -1.9391 -1.2132 -0.0253
   59SAPC  H15C 4440   0.178   2.983  10.852  0.4763 -1.4864 -0.1596
   59SAPC   C11 4441   0.250   2.616  11.019  0.2375  0.7363  0.2539
   59SAPC  H11A 4442   0.273   2.525  10.961  0.3685  0.4981  0.6792
   59SAPC  H11B 4443   0.183   2.595  11.105 -0.9987  1.5014 -0.4872
   59SAPC     P 4444   0.507   2.677  11.020 -0.2671  0.1505 -0.4005
   59SAPC   O13 4445   0.547   2.816  11.048  0.3167  0.0872  0.1755
   59SAPC   O14 4446   0.602   2.562  11.047  0.0764 -0.2476 -0.0019
   59SAPC   O12 4447   0.372   2.654  11.075  0.1104  0.4125  0.0564
   59SAPC   O11 4448   0.479   2.680  10.861 -0.7611 -0.5876  0.7116
   59SAPC    C1 4449   0.463   2.561  10.782 -0.4636  0.0620  0.3860
   59SAPC    HA 4450   0.472   2.464  10.836 -1.5707 -0.5830 -0.5363
   59SAPC    HB 4451   0.364   2.564  10.731 -0.9546 -1.0699  1.2198
   59SAPC    C2 4452   0.567   2.551  10.666  0.5525  1.2122  0.7897
   59SAPC    HS 4453   0.666   2.532  10.713  0.2687 -0.6976  0.7006
   59SAPC   O21 4454   0.558   2.670  10.590  0.3197  0.4015 -0.4006
   59SAPC   C21 4455   0.667   2.708  10.527 -0.4563 -0.5112  0.7372
   59SAPC   O22 4456   0.773   2.663  10.546  0.1092 -0.1370  0.1763
   59SAPC   C22 4457   0.625   2.820  10.430  0.2374 -0.7479  0.7863
   59SAPC   H2R 4458   0.566   2.781  10.344 -0.3311  0.5069  0.5787
   59SAPC   H2S 4459   0.561   2.891  10.486 -1.5627 -2.2868  0.7988
   59SAPC    C3 4460   0.538   2.431  10.568 -0.2283  0.2478 -0.2909
   59SAPC    HX 4461   0.434   2.443  10.529 -0.4713 -1.2117 -0.1378
   59SAPC    HY 4462   0.531   2.336  10.624 -0.7019  1.6371  2.1816
   59SAPC   O31 4463   0.634   2.415  10.456 -0.0693 -0.6403  0.4049
   59SAPC   C31 4464   0.748   2.355  10.478 -0.4757  0.2873 -0.3717
   59SAPC   O32 4465   0.789   2.311  10.585 -0.0050 -0.1155 -0.5001
   59SAPC   C32 4466   0.804   2.328  10.339 -0.5898  0.5382  0.1502
   59SAPC   H2X 4467   0.721   2.305  10.268 -0.0093  1.6953 -0.9449
   59SAPC   H2Y 4468   0.865   2.237  10.355 -0.4291  0.6336  0.0831
   59SAPC   C23 4469   0.760   2.902  10.391  0.1858  0.7903 -0.5452
   59SAPC   H3R 4470   0.836   2.828  10.359 -0.4915 -1.2353  2.1250
   59SAPC   H3S 4471   0.812   2.952  10.476 -1.2169  0.5355  0.4835
   59SAPC   C24 4472   0.740   2.997  10.273 -0.0475 -0.2517  0.7427
   59SAPC   H4R 4473   0.674   3.078  10.313 -0.7680  0.0184 -0.9206
   59SAPC   H4S 4474   0.687   2.945  10.190  3.4383 -0.2914 -1.6696
   59SAPC   C25 4475   0.868   3.051  10.220  0.1005  0.2499  0.6515
   59SAPC   H5R 4476   0.937   3.098  10.293  0.9070  2.3424 -1.3359
   59SAPC   C26 4477   0.884   3.071  10.089 -0.1066 -0.8669 -0.1062
   59SAPC   H6R 4478   0.978   3.118  10.060  1.0186 -2.8068  0.2400
   59SAPC   C27 4479   0.788   3.042   9.980  0.4809 -0.8474  0.4515
   59SAPC   H7R 4480   0.685   3.060  10.018  0.1633 -0.8897 -0.3710
   59SAPC   H7S 4481   0.797   2.933   9.961 -0.6987 -0.5972 -1.9618
   59SAPC   C28 4482   0.815   3.117   9.854  0.5781 -0.0722 -0.1569
   59SAPC   H8R 4483   0.878   3.206   9.872 -1.1958  1.0163  0.9444
   59SAPC   C29 4484   0.751   3.106   9.734 -0.2628  0.2155  0.2951
   59SAPC   H9R 4485   0.766   3.181   9.655 -0.8578 -0.8785 -0.8623
   59SAPC  C210 4486   0.649   3.005   9.705  0.3514 -0.7562  0.1392
   59SAPC  H10R 4487   0.568   3.049   9.642 -0.8616 -3.5091 -0.3987
   59SAPC  H10S 4488   0.584   2.964   9.785 -0.0570 -0.5982 -0.1064
   59SAPC  C211 4489   0.729   2.901   9.634 -0.0422  0.2800 -0.2073
   59SAPC  H11R 4490   0.769   2.817   9.692  0.4554  1.5168  1.3199
   59SAPC  C212 4491   0.761   2.900   9.505 -0.9346 -0.0292 -0.4310
   59SAPC  H12R 4492   0.834   2.828   9.467  0.6690  1.4857 -0.3720
   59SAPC  C213 4493   0.718   3.001   9.401 -0.4971 -0.1570 -0.4815
   59SAPC  H13R 4494   0.682   3.094   9.451  0.4684 -0.3962  0.6835
   59SAPC  H13S 4495   0.642   2.955   9.334  0.7193 -0.3844 -1.7559
   59SAPC  C214 4496   0.832   3.032   9.304  0.0013 -0.8766 -0.1712
   59SAPC  H14R 4497   0.899   3.112   9.341 -1.6105  0.7271 -0.5388
   59SAPC  C215 4498   0.863   2.965   9.189  0.4256  0.2733  0.1691
   59SAPC  H15R 4499   0.961   2.988   9.144 -0.1932  2.1699 -0.2916
   59SAPC  C216 4500   0.782   2.852   9.138 -1.6129  0.2310 -0.1778
   59SAPC  H16R 4501   0.676   2.849   9.171 -1.8207 -0.9432 -0.8806
   59SAPC  H16S 4502   0.828   2.756   9.170  1.6101  2.1327  1.3638
   59SAPC  C217 4503   0.785   2.859   8.984 -0.5930 -0.2229  0.2566
   59SAPC  H17R 4504   0.891   2.866   8.952 -1.1399  3.4496 -1.1721
   59SAPC  H17S 4505   0.731   2.953   8.959  0.8899  0.6613  0.2201
   59SAPC  C218 4506   0.719   2.745   8.910  0.0197 -0.1052  0.5860
   59SAPC  H18R 4507   0.612   2.746   8.939  0.1488 -0.3197  1.0854
   59SAPC  H18S 4508   0.750   2.644   8.945 -0.5865 -0.7965 -0.7811
   59SAPC  C219 4509   0.721   2.764   8.757 -0.9758 -0.3214 -0.0892
   59SAPC  H19R 4510   0.698   2.661   8.721 -3.1044 -0.4207  1.3118
   59SAPC  H19S 4511   0.823   2.795   8.728 -1.7603  3.0380  0.3776
   59SAPC  C220 4512   0.613   2.857   8.695  0.1142 -0.4378 -0.3140
   59SAPC  H20R 4513   0.518   2.819   8.737 -0.2812 -0.6894 -1.3986
   59SAPC  H20S 4514   0.606   2.864   8.584  0.3721  1.0177 -0.2712
   59SAPC  H20T 4515   0.637   2.961   8.727  0.3296 -0.5880  0.0189
   59SAPC   C33 4516   0.890   2.434  10.277 -1.1264  0.2131  0.2359
   59SAPC   H3X 4517   0.995   2.402  10.259 -0.9585  1.3093 -0.9969
   59SAPC   H3Y 4518   0.915   2.521  10.342  0.0520  1.2515 -1.4837
   59SAPC   C34 4519   0.831   2.490  10.142 -0.7489 -0.2251 -0.1118
   59SAPC   H4X 4520   0.726   2.520  10.165 -0.3031 -0.7259  3.0557
   59SAPC   H4Y 4521   0.820   2.405  10.071 -0.0158  0.1089 -0.6421
   59SAPC   C35 4522   0.923   2.595  10.077  0.5099  0.4005 -0.3105
   59SAPC   H5X 4523   1.025   2.551  10.088 -0.0079 -0.6317  0.6068
   59SAPC   H5Y 4524   0.931   2.687  10.139  0.6226 -0.3850  0.8789
   59SAPC   C36 4525   0.893   2.625   9.931  0.2237 -0.5960  0.3410
   59SAPC   H6X 4526   0.947   2.719   9.905 -0.5835 -0.2005  0.0730
   59SAPC   H6Y 4527   0.784   2.640   9.916  0.4832 -1.2169 -2.6528
   59SAPC   C37 4528   0.935   2.518   9.833 -0.8189 -0.3965 -0.4861
   59SAPC   H7X 4529   0.868   2.434   9.861 -2.2499  1.0776  0.7538
   59SAPC   H7Y 4530   1.044   2.505   9.845 -0.4007  2.1180 -0.8559
   59SAPC   C38 4531   0.890   2.562   9.692 -0.4229 -0.0020  0.1524
   59SAPC   H8X 4532   0.947   2.651   9.658 -1.6378  1.0591  0.8396
   59SAPC   H8Y 4533   0.784   2.591   9.704 -0.7446 -0.7091 -0.8569
   59SAPC   C39 4534   0.912   2.457   9.578  0.5169 -0.5089  0.2280
   59SAPC   H9X 4535   0.840   2.374   9.593  0.9087 -0.5923  1.8416
   59SAPC   H9Y 4536   1.014   2.417   9.592  0.3084 -1.1075  0.0619
   59SAPC  C310 4537   0.903   2.518   9.434 -0.0705  0.0384  0.1367
   59SAPC  H10X 4538   0.974   2.603   9.430 -0.0613  0.0259  0.0256
   59SAPC  H10Y 4539   0.799   2.558   9.437  0.7268  2.2519  3.6741
   59SAPC  C311 4540   0.955   2.424   9.318 -0.3641  0.1213  0.6431
   59SAPC  H11X 4541   0.914   2.321   9.329  1.9552 -0.8547  0.7853
   59SAPC  H11Y 4542   1.062   2.402   9.340  0.2822 -1.6890 -3.3946
   59SAPC  C312 4543   0.927   2.474   9.183 -0.2519 -0.3157  0.3700
   59SAPC  H12X 4544   0.969   2.575   9.164  0.1724 -0.1790  1.9421
   59SAPC  H12Y 4545   0.816   2.476   9.181 -0.3314 -2.4862 -0.0238
   59SAPC  C313 4546   0.977   2.373   9.077  0.1579  0.5273  0.2653
   59SAPC  H13X 4547   0.930   2.278   9.110  0.0065  0.8274  0.9525
   59SAPC  H13Y 4548   1.084   2.345   9.086  0.0078  0.4915  2.4635
   59SAPC  C314 4549   0.944   2.410   8.929  0.4560  0.5828  0.0108
   59SAPC  H14X 4550   0.836   2.435   8.919  0.2805 -0.3224 -0.4445
   59SAPC  H14Y 4551   0.967   2.319   8.870 -0.4450 -0.6467  1.4606
   59SAPC  C315 4552   1.031   2.519   8.878  1.0931 -0.2711  0.3930
   59SAPC  H15X 4553   1.130   2.497   8.924  1.0634 -1.1327  0.0618
   59SAPC  H15Y 4554   0.992   2.608   8.932 -2.6436 -1.7256  0.3944
   59SAPC  C316 4555   1.038   2.521   8.722  0.0994 -0.0412 -0.1428
   59SAPC  H16X 4556   0.942   2.556   8.678 -1.4649 -1.7989  1.6704
   59SAPC  H16Y 4557   1.048   2.415   8.690 -2.0289 -0.4931  0.5105
   59SAPC  C317 4558   1.154   2.617   8.679  0.0554  0.5031 -0.6132
   59SAPC  H17X 4559   1.140   2.702   8.748 -1.0102  0.2847 -0.5354
   59SAPC  H17Y 4560   1.129   2.647   8.575  2.2622  0.5708 -1.1592
   59SAPC  C318 4561   1.289   2.550   8.680 -0.2470 -0.3599 -0.3024
   59SAPC  H18X 4562   1.370   2.624   8.657  0.3305 -0.1121  2.2567
   59SAPC  H18Y 4563   1.308   2.462   8.615  0.1937 -1.2879  1.0297
   59SAPC  H18Z 4564   1.300   2.525   8.787 -2.1510  1.9695  0.5332
   60SAPC     N 4565   2.762   0.197  10.693 -0.5890 -0.4335 -0.8778
   60SAPC   C12 4566   2.902   0.196  10.755 -0.0163  0.0472 -0.6358
   60SAPC  H12A 4567   2.974   0.239  10.686 -1.1769  1.3521 -1.0977
   60SAPC  H12B 4568   2.927   0.095  10.782  0.4536  0.6012  1.1426
   60SAPC   C13 4569   2.713   0.339  10.679 -0.8557 -0.3467 -0.2573
   60SAPC  H13A 4570   2.606   0.348  10.667 -0.9435 -0.9263  0.0350
   60SAPC  H13B 4571   2.738   0.395  10.767  0.5528 -1.1839 -0.0926
   60SAPC  H13C 4572   2.765   0.386  10.597 -0.2142  2.0789  1.4597
   60SAPC   C14 4573   2.740   0.114  10.569 -0.0572 -0.5297  0.5797
   60SAPC  H14A 4574   2.634   0.102  10.553  0.2401  0.2707 -2.5319
   60SAPC  H14B 4575   2.778   0.167  10.483 -2.6586  0.9003  0.1799
   60SAPC  H14C 4576   2.776   0.013  10.581  0.2298 -0.4934  0.0197
   60SAPC   C15 4577   2.669   0.132  10.799 -0.4518  0.1362 -0.3566
   60SAPC  H15A 4578   2.568   0.163  10.777 -1.3318 -2.1847  0.1853
   60SAPC  H15B 4579   2.684   0.025  10.803  1.6516  0.3903 -0.4138
   60SAPC  H15C 4580   2.679   0.177  10.897  2.1161 -1.0723  0.0367
   60SAPC   C11 4581   2.930   0.286  10.878 -0.1369 -0.8960 -0.5553
   60SAPC  H11A 4582   3.034   0.268  10.914  0.6897  1.4932 -1.5459
   60SAPC  H11B 4583   2.860   0.250  10.956 -0.0766 -1.1996 -0.6412
   60SAPC     P 4584   3.043   0.499  10.775  0.0196 -0.1368 -0.3255
   60SAPC   O13 4585   3.141   0.546  10.880 -0.2116 -0.2320  0.7257
   60SAPC   O14 4586   3.099   0.404  10.677 -0.1203  1.0498  0.4624
   60SAPC   O12 4587   2.917   0.425  10.850  0.6745  0.8291  0.0537
   60SAPC   O11 4588   2.967   0.624  10.702 -0.0720 -0.1196 -0.2497
   60SAPC    C1 4589   3.038   0.692  10.590 -0.2901 -0.2094  0.1464
   60SAPC    HA 4590   2.989   0.788  10.565 -0.3175 -0.6262 -1.5173
   60SAPC    HB 4591   3.147   0.704  10.609 -0.1827 -0.5735 -0.2186
   60SAPC    C2 4592   3.026   0.620  10.443 -0.3577 -0.2139 -0.9561
   60SAPC    HS 4593   3.073   0.520  10.447 -1.0628 -0.5759 -1.6147
   60SAPC   O21 4594   3.093   0.706  10.347 -0.6413 -0.8235  0.0027
   60SAPC   C21 4595   3.231   0.700  10.346  0.5728  0.0477  0.0714
   60SAPC   O22 4596   3.297   0.614  10.399  0.0903  0.0474 -0.1985
   60SAPC   C22 4597   3.288   0.825  10.268  0.2056  0.5454  0.0670
   60SAPC   H2R 4598   3.250   0.915  10.323 -0.9231 -1.6909  3.2503
   60SAPC   H2S 4599   3.398   0.826  10.283  0.2580 -3.3007  0.9288
   60SAPC    C3 4600   2.875   0.600  10.410 -0.2584 -1.0250  1.1813
   60SAPC    HX 4601   2.834   0.704  10.409  0.2238 -0.7967 -1.8691
   60SAPC    HY 4602   2.819   0.546  10.489 -2.7880  0.2216  0.3530
   60SAPC   O31 4603   2.849   0.551  10.275 -0.1266 -0.2770 -0.2621
   60SAPC   C31 4604   2.833   0.424  10.256  0.6600 -0.4067  0.1261
   60SAPC   O32 4605   2.830   0.338  10.339  0.0500  0.1171 -0.6712
   60SAPC   C32 4606   2.800   0.404  10.110  0.6956  0.5398 -0.0494
   60SAPC   H2X 4607   2.891   0.436  10.054  1.5861 -0.4638  0.7847
   60SAPC   H2Y 4608   2.718   0.470  10.074  0.1324  0.0863  0.3872
   60SAPC   C23 4609   3.264   0.821  10.111 -0.8356 -0.8124  0.0110
   60SAPC   H3R 4610   3.156   0.830  10.088 -0.4560 -1.2373 -2.1303
   60SAPC   H3S 4611   3.307   0.725  10.076  1.3188 -1.7263  4.4519
   60SAPC   C24 4612   3.320   0.950  10.040 -0.9635  0.7398  0.2527
   60SAPC   H4R 4613   3.301   0.941   9.931  2.6766 -1.1575 -0.3725
   60SAPC   H4S 4614   3.430   0.950  10.049 -0.9647  1.3144  0.2606
   60SAPC   C25 4615   3.261   1.079  10.086  0.1332 -0.0535 -0.0713
   60SAPC   H5R 4616   3.167   1.066  10.141 -0.1529 -3.3132 -1.1099
   60SAPC   C26 4617   3.323   1.198  10.086 -0.1625  0.3352  0.0191
   60SAPC   H6R 4618   3.275   1.289  10.126  2.0642  0.4203  2.7752
   60SAPC   C27 4619   3.461   1.224  10.043 -0.2814 -0.1436  0.5695
   60SAPC   H7R 4620   3.487   1.327  10.011 -0.3896 -0.6962 -1.4427
   60SAPC   H7S 4621   3.458   1.175   9.943 -4.0795 -1.2825  1.0760
   60SAPC   C28 4622   3.565   1.164  10.137 -0.4873  0.3390  0.7062
   60SAPC   H8R 4623   3.538   1.176  10.243  1.0768  0.1927  1.1412
   60SAPC   C29 4624   3.687   1.111  10.115  0.3046 -0.2420 -0.2256
   60SAPC   H9R 4625   3.742   1.057  10.193  0.6443  0.7640  0.2480
   60SAPC  C210 4626   3.743   1.096   9.974 -0.3821  0.1745 -0.1327
   60SAPC  H10R 4627   3.852   1.082   9.984 -0.5508 -2.2127 -0.9286
   60SAPC  H10S 4628   3.719   1.178   9.903  0.9847 -0.7611 -1.7389
   60SAPC  C211 4629   3.681   0.968   9.912 -0.7092 -0.3883 -0.5468
   60SAPC  H11R 4630   3.649   0.891   9.984 -0.0383  2.3963  3.0060
   60SAPC  C212 4631   3.692   0.935   9.784 -0.5536  0.0659  0.0603
   60SAPC  H12R 4632   3.655   0.833   9.765 -0.3640 -0.8709  3.9253
   60SAPC  C213 4633   3.747   1.023   9.665 -0.6854 -0.0834  0.1802
   60SAPC  H13R 4634   3.772   1.125   9.702  0.8084 -0.9842  1.8208
   60SAPC  H13S 4635   3.662   1.026   9.595  0.9190  0.0365 -1.8494
   60SAPC  C214 4636   3.862   0.952   9.609 -0.0800 -0.7126 -0.0623
   60SAPC  H14R 4637   3.947   0.943   9.679  0.9393  0.7977 -1.0376
   60SAPC  C215 4638   3.872   0.902   9.487  0.3514  0.1069  0.3549
   60SAPC  H15R 4639   3.954   0.831   9.469 -0.5744 -0.8474 -0.2320
   60SAPC  C216 4640   3.774   0.907   9.379  0.0855 -0.1000  0.9299
   60SAPC  H16R 4641   3.714   1.000   9.373 -1.2107 -0.9743 -0.4029
   60SAPC  H16S 4642   3.704   0.821   9.373 -1.4441  1.1155  0.7975
   60SAPC  C217 4643   3.839   0.913   9.244 -0.9543 -0.2761 -0.3490
   60SAPC  H17R 4644   3.927   0.980   9.242 -0.1161 -1.2835  1.1761
   60SAPC  H17S 4645   3.780   0.975   9.172 -0.2569 -1.0375 -1.6195
   60SAPC  C218 4646   3.856   0.778   9.176 -0.2264 -1.1363 -0.1014
   60SAPC  H18R 4647   3.754   0.736   9.189 -1.0752  0.7077 -0.3848
   60SAPC  H18S 4648   3.937   0.706   9.196  0.3744 -0.8241 -1.3006
   60SAPC  C219 4649   3.866   0.798   9.027 -0.4686  0.1422  0.2927
   60SAPC  H19R 4650   3.965   0.848   9.020 -0.1163 -0.3256  1.6119
   60SAPC  H19S 4651   3.795   0.870   8.981  0.9521  1.5755  0.2657
   60SAPC  C220 4652   3.856   0.672   8.941 -0.7367  0.0297  0.3380
   60SAPC  H20R 4653   3.756   0.628   8.919  0.0396 -1.8580  0.4326
   60SAPC  H20S 4654   3.904   0.589   8.997 -0.9219  1.3621  2.5535
   60SAPC  H20T 4655   3.914   0.689   8.848 -1.7053  0.8605 -0.1389
   60SAPC   C33 4656   2.753   0.262  10.075  0.5854 -0.8316 -0.0733
   60SAPC   H3X 4657   2.663   0.230  10.131  0.7272 -0.3729  0.4191
   60SAPC   H3Y 4658   2.845   0.207  10.107 -1.4226 -4.1687  0.5089
   60SAPC   C34 4659   2.738   0.248   9.922 -1.0389  0.3675  0.6326
   60SAPC   H4X 4660   2.714   0.141   9.901 -0.4956  0.3567  0.0513
   60SAPC   H4Y 4661   2.830   0.283   9.871 -1.4286  2.5780  1.3409
   60SAPC   C35 4662   2.626   0.321   9.855  0.8632  0.4496  1.0638
   60SAPC   H5X 4663   2.658   0.427   9.848  0.7138  0.4813  0.8516
   60SAPC   H5Y 4664   2.524   0.316   9.898 -0.3469  1.6622 -1.4613
   60SAPC   C36 4665   2.618   0.250   9.720 -0.6548  0.6254  0.2087
   60SAPC   H6X 4666   2.602   0.140   9.730 -0.1679  0.6281  1.0590
   60SAPC   H6Y 4667   2.715   0.267   9.669 -0.3922 -0.9586  0.1292
   60SAPC   C37 4668   2.495   0.295   9.637 -0.5704  0.0044 -0.3543
   60SAPC   H7X 4669   2.510   0.405   9.631 -0.9137  0.1833  1.4632
   60SAPC   H7Y 4670   2.394   0.274   9.677 -1.3438  1.6583 -1.3418
   60SAPC   C38 4671   2.507   0.249   9.490  0.3210  0.1073  0.2431
   60SAPC   H8X 4672   2.544   0.144   9.491  0.9956  0.3038 -1.1597
   60SAPC   H8Y 4673   2.588   0.305   9.439  1.8800 -1.1926  1.1803
   60SAPC   C39 4674   2.382   0.281   9.412 -0.0989  1.0524 -0.1405
   60SAPC   H9X 4675   2.371   0.389   9.393  1.3595  1.1365 -0.6067
   60SAPC   H9Y 4676   2.291   0.250   9.469 -0.9779  2.6626 -0.6188
   60SAPC  C310 4677   2.365   0.208   9.278 -0.4964 -0.2962 -0.4606
   60SAPC  H10X 4678   2.368   0.098   9.294 -1.1779 -0.1411  0.8367
   60SAPC  H10Y 4679   2.460   0.229   9.225  1.4744  0.7940  3.1956
   60SAPC  C311 4680   2.241   0.257   9.187 -0.6619  1.0950 -0.5841
   60SAPC  H11X 4681   2.243   0.368   9.190  0.3833  1.0632  1.8716
   60SAPC  H11Y 4682   2.148   0.213   9.230 -0.1683 -0.3721 -0.9291
   60SAPC  C312 4683   2.255   0.217   9.046 -0.1141 -0.4384 -0.1230
   60SAPC  H12X 4684   2.246   0.106   9.047 -0.3964 -0.4333  2.3004
   60SAPC  H12Y 4685   2.359   0.235   9.013  1.0356 -0.2171  3.2779
   60SAPC  C313 4686   2.147   0.292   8.965  0.2535  0.3088  0.0223
   60SAPC  H13X 4687   2.150   0.403   8.966 -2.8527  0.4824  0.9403
   60SAPC  H13Y 4688   2.045   0.278   9.007 -0.1234 -0.8341 -1.1962
   60SAPC  C314 4689   2.142   0.263   8.817  0.3993  0.2975 -0.5684
   60SAPC  H14X 4690   2.136   0.153   8.804  0.1997  0.4443 -1.9379
   60SAPC  H14Y 4691   2.242   0.274   8.769  0.6480 -2.6526 -0.9310
   60SAPC  C315 4692   2.026   0.331   8.745  0.2872  0.2546 -0.3642
   60SAPC  H15X 4693   2.066   0.428   8.710  1.0371  0.1832  0.2819
   60SAPC  H15Y 4694   1.945   0.360   8.815 -0.6351  2.2439 -2.1402
   60SAPC  C316 4695   1.963   0.238   8.644  1.2800 -0.1444 -1.0159
   60SAPC  H16X 4696   1.943   0.138   8.687 -1.5795  0.1540 -1.4210
   60SAPC  H16Y 4697   2.032   0.216   8.560  1.8211 -3.6086  0.1791
   60SAPC  C317 4698   1.825   0.284   8.584  0.0664 -0.3446  0.1875
   60SAPC  H17X 4699   1.841   0.386   8.544  0.6119 -0.0296  1.1860
   60SAPC  H17Y 4700   1.749   0.294   8.665 -1.4545  1.8898 -1.4095
   60SAPC  C318 4701   1.776   0.194   8.473 -1.2913  0.6772  0.7032
   60SAPC  H18X 4702   1.728   0.100   8.507  1.3327 -0.6350  1.0634
   60SAPC  H18Y 4703   1.858   0.168   8.403 -1.1093  4.1602 -0.5770
   60SAPC  H18Z 4704   1.700   0.259   8.426  0.3561  3.5440  1.7629
   61SAPC     N 4705   4.242   6.677  10.934  0.6282  0.6662 -0.1077
   61SAPC   C12 4706   4.248   6.806  10.856 -0.0431  0.0821  0.4123
   61SAPC  H12A 4707   4.243   6.892  10.922  0.9671  0.1054  0.4861
   61SAPC  H12B 4708   4.170   6.801  10.782  0.0325  1.0633  0.2473
   61SAPC   C13 4709   4.109   6.662  10.988  0.7611 -0.9846  0.2132
   61SAPC  H13A 4710   4.038   6.621  10.917  2.0364 -3.1453  0.0856
   61SAPC  H13B 4711   4.106   6.604  11.079  0.0131  0.3463  1.0721
   61SAPC  H13C 4712   4.074   6.756  11.029 -1.2467 -1.0738 -1.1575
   61SAPC   C14 4713   4.263   6.564  10.844  0.3664 -0.4237  0.2387
   61SAPC  H14A 4714   4.195   6.566  10.760  1.0366 -1.0749 -0.3285
   61SAPC  H14B 4715   4.360   6.562  10.797 -0.7476  0.2426 -2.2617
   61SAPC  H14C 4716   4.247   6.471  10.897  1.1957 -2.4987 -2.9078
   61SAPC   C15 4717   4.344   6.675  11.043  0.1300 -0.2670  0.2898
   61SAPC  H15A 4718   4.338   6.765  11.102  0.9560  0.3727 -0.5838
   61SAPC  H15B 4719   4.337   6.590  11.110  1.4153  0.0926  0.9118
   61SAPC  H15C 4720   4.444   6.672  11.002 -0.0397 -0.5823 -0.1050
   61SAPC   C11 4721   4.389   6.832  10.783 -0.1753  0.7341  0.7094
   61SAPC  H11A 4722   4.360   6.907  10.708 -1.4063 -0.9453 -0.5837
   61SAPC  H11B 4723   4.410   6.740  10.724  0.8786  0.8049  0.9560
   61SAPC     P 4724   4.484   7.003  10.946 -0.5275 -0.0071 -0.1646
   61SAPC   O13 4725   4.346   7.050  10.958  0.1976 -0.6048  0.1132
   61SAPC   O14 4726   4.561   7.008  11.066 -0.2822 -0.5955  0.3932
   61SAPC   O12 4727   4.489   6.856  10.877 -0.2490  0.1868 -0.7313
   61SAPC   O11 4728   4.551   7.084  10.827 -0.0819  0.1414  0.0441
   61SAPC    C1 4729   4.690   7.064  10.804  0.4615  0.1394  0.6266
   61SAPC    HA 4730   4.739   7.125  10.883 -2.6543  2.0854  1.2163
   61SAPC    HB 4731   4.717   6.956  10.813  0.1649  0.0238  0.1358
   61SAPC    C2 4732   4.740   7.121  10.663  0.5226  0.2365 -0.1149
   61SAPC    HS 4733   4.844   7.083  10.658 -0.5250 -3.0193  0.6581
   61SAPC   O21 4734   4.732   7.268  10.670 -0.0561  0.7845  0.1420
   61SAPC   C21 4735   4.795   7.328  10.573 -0.0844 -0.0649  0.3597
   61SAPC   O22 4736   4.870   7.277  10.490  0.0612  0.4490  0.2391
   61SAPC   C22 4737   4.773   7.479  10.586 -0.4205  0.1604 -0.1385
   61SAPC   H2R 4738   4.703   7.503  10.669  0.4223  1.0298  0.3332
   61SAPC   H2S 4739   4.872   7.520  10.611 -1.3385  1.9384  0.7503
   61SAPC    C3 4740   4.659   7.060  10.544 -0.0680  0.0442  0.5693
   61SAPC    HX 4741   4.705   7.085  10.446 -2.1344 -1.3687 -0.8622
   61SAPC    HY 4742   4.562   7.114  10.536  0.5314  1.0655  0.0553
   61SAPC   O31 4743   4.645   6.918  10.550 -0.2861  0.5136 -0.4606
   61SAPC   C31 4744   4.747   6.836  10.507  0.2313 -0.0478  0.5633
   61SAPC   O32 4745   4.857   6.870  10.474  0.1188 -0.4883 -0.1755
   61SAPC   C32 4746   4.700   6.688  10.526 -0.5385  0.2940  0.1192
   61SAPC   H2X 4747   4.623   6.686  10.607 -0.0066 -1.5418  0.6325
   61SAPC   H2Y 4748   4.784   6.624  10.559  0.4296  0.7276 -1.4208
   61SAPC   C23 4749   4.706   7.530  10.456 -0.2651  1.0346  0.4172
   61SAPC   H3R 4750   4.668   7.632  10.474  1.6793  1.5523  1.9567
   61SAPC   H3S 4751   4.623   7.461  10.428  1.9857 -1.6199 -0.2124
   61SAPC   C24 4752   4.800   7.524  10.334  0.2224 -0.1789 -0.1457
   61SAPC   H4R 4753   4.751   7.570  10.246  1.8253  1.8640 -0.0536
   61SAPC   H4S 4754   4.829   7.418  10.312 -1.0189 -0.8417  1.2592
   61SAPC   C25 4755   4.924   7.608  10.356 -1.0285 -0.8552 -0.1735
   61SAPC   H5R 4756   4.998   7.568  10.427  0.7538  3.5307  0.7018
   61SAPC   C26 4757   4.969   7.719  10.291  0.4333 -0.0254  0.4942
   61SAPC   H6R 4758   5.053   7.780  10.327  0.6956  0.0159 -0.1755
   61SAPC   C27 4759   4.894   7.796  10.188  0.4371 -0.2252  0.6324
   61SAPC   H7R 4760   4.866   7.898  10.222  0.2095 -0.3974  0.9675
   61SAPC   H7S 4761   4.796   7.751  10.162 -0.7374  2.2624  0.4489
   61SAPC   C28 4762   4.982   7.813  10.071  0.1984 -0.4052  0.3872
   61SAPC   H8R 4763   4.984   7.920  10.046 -3.7405 -0.4448 -0.7881
   61SAPC   C29 4764   5.042   7.720   9.989 -0.0801 -0.3715  0.2261
   61SAPC   H9R 4765   5.118   7.758   9.919 -1.7218 -0.8788 -1.9260
   61SAPC  C210 4766   5.041   7.570   9.999 -0.3230  0.2488  0.5535
   61SAPC  H10R 4767   5.003   7.531   9.901  0.3160 -1.5355  0.9725
   61SAPC  H10S 4768   4.964   7.534  10.071 -0.5909 -2.8742 -1.1300
   61SAPC  C211 4769   5.166   7.496  10.041 -0.4357 -0.0226 -0.0621
   61SAPC  H11R 4770   5.190   7.509  10.147 -0.2538  2.6889 -0.3773
   61SAPC  C212 4771   5.254   7.428   9.957  0.3162 -0.5082 -0.1776
   61SAPC  H12R 4772   5.348   7.387   9.997  0.7307 -0.2845 -0.9154
   61SAPC  C213 4773   5.234   7.420   9.804  0.3776 -0.4746  0.3539
   61SAPC  H13R 4774   5.129   7.414   9.768  1.1869 -1.2161 -2.0565
   61SAPC  H13S 4775   5.292   7.331   9.772  1.2979  0.8155 -1.8099
   61SAPC  C214 4776   5.296   7.528   9.722 -1.1005  0.1905  0.4153
   61SAPC  H14R 4777   5.327   7.617   9.779 -0.8077  0.4706 -0.1752
   61SAPC  C215 4778   5.332   7.514   9.595 -0.2915 -0.0709  0.2506
   61SAPC  H15R 4779   5.377   7.603   9.549 -0.9066  0.8029  1.2872
   61SAPC  C216 4780   5.313   7.394   9.505 -0.2721 -0.9328 -0.4256
   61SAPC  H16R 4781   5.225   7.329   9.527 -1.1418  0.3640  0.0311
   61SAPC  H16S 4782   5.399   7.325   9.520  0.2520  0.1604  1.9829
   61SAPC  C217 4783   5.310   7.444   9.359 -0.7861 -0.2758 -0.8433
   61SAPC  H17R 4784   5.367   7.537   9.339 -0.5911 -0.4831 -1.2757
   61SAPC  H17S 4785   5.206   7.478   9.340 -1.2031 -0.1428  1.3872
   61SAPC  C218 4786   5.343   7.336   9.258 -0.3753 -0.5160  0.2669
   61SAPC  H18R 4787   5.245   7.285   9.244 -1.2128  1.2544 -0.6232
   61SAPC  H18S 4788   5.405   7.255   9.304 -2.6494 -2.6990 -0.3046
   61SAPC  C219 4789   5.383   7.391   9.116  0.6965  0.0405 -0.3386
   61SAPC  H19R 4790   5.292   7.451   9.093 -0.8142 -0.7080  3.1110
   61SAPC  H19S 4791   5.382   7.302   9.050 -1.4042  1.1568 -1.9517
   61SAPC  C220 4792   5.515   7.462   9.115 -0.2993 -0.0669  0.4605
   61SAPC  H20R 4793   5.511   7.552   9.180 -0.1625 -1.5706  2.6418
   61SAPC  H20S 4794   5.551   7.487   9.013 -2.0674  1.1963  0.0947
   61SAPC  H20T 4795   5.577   7.378   9.153 -1.0934 -0.9533 -0.1579
   61SAPC   C33 4796   4.628   6.648  10.396  0.0936 -0.2430  0.1862
   61SAPC   H3X 4797   4.595   6.735  10.336  0.1482  0.8487  1.6959
   61SAPC   H3Y 4798   4.535   6.595  10.427 -0.5529 -0.5161 -2.0776
   61SAPC   C34 4799   4.715   6.550  10.310  0.3498 -0.6340  0.7028
   61SAPC   H4X 4800   4.762   6.469  10.370  1.1917 -0.4856  0.2712
   61SAPC   H4Y 4801   4.797   6.623  10.293 -0.5086  0.3309  0.6028
   61SAPC   C35 4802   4.628   6.525  10.186 -0.3604  0.7278 -0.3573
   61SAPC   H5X 4803   4.591   6.619  10.139 -4.0580 -0.1796  0.4394
   61SAPC   H5Y 4804   4.533   6.474  10.213 -0.2102 -0.4620 -1.9338
   61SAPC   C36 4805   4.685   6.439  10.073 -0.6156 -0.1325  0.4625
   61SAPC   H6X 4806   4.616   6.432   9.986 -0.6111 -3.1296  0.6067
   61SAPC   H6Y 4807   4.707   6.333  10.095  1.3221  0.1271 -0.0804
   61SAPC   C37 4808   4.815   6.500  10.029 -0.8663  0.0947 -0.5557
   61SAPC   H7X 4809   4.896   6.497  10.105 -0.0303 -0.7098 -1.4521
   61SAPC   H7Y 4810   4.790   6.607  10.013 -1.2443  0.3825  1.6604
   61SAPC   C38 4811   4.871   6.440   9.905 -0.4297  0.4575 -0.2095
   61SAPC   H8X 4812   4.886   6.330   9.910 -2.9430  0.0264 -0.5648
   61SAPC   H8Y 4813   4.978   6.467   9.897 -0.5951  0.8596 -1.3250
   61SAPC   C39 4814   4.795   6.464   9.777 -0.1185 -0.0580  0.1448
   61SAPC   H9X 4815   4.741   6.561   9.782 -0.7672 -0.4568  1.1209
   61SAPC   H9Y 4816   4.720   6.384   9.759 -1.2630  1.1847 -0.8612
   61SAPC  C310 4817   4.878   6.478   9.641  0.6457 -0.2368 -0.2668
   61SAPC  H10X 4818   4.962   6.548   9.664  0.6019 -1.4357  4.4174
   61SAPC  H10Y 4819   4.809   6.525   9.568  0.1664  0.9471  0.9100
   61SAPC  C311 4820   4.948   6.355   9.597  0.4379 -0.1861 -0.0705
   61SAPC  H11X 4821   4.866   6.281   9.585  0.6386 -0.6444  1.2603
   61SAPC  H11Y 4822   5.011   6.315   9.679  0.4414  0.0153  0.0232
   61SAPC  C312 4823   5.040   6.370   9.469  0.1157 -0.2331 -0.4104
   61SAPC  H12X 4824   5.065   6.266   9.440 -2.3212 -0.1145 -3.4292
   61SAPC  H12Y 4825   5.133   6.424   9.495 -0.6627  0.8198  0.3053
   61SAPC  C313 4826   4.966   6.448   9.357  0.3750  0.4650  0.0451
   61SAPC  H13X 4827   4.950   6.554   9.386  1.5897  0.3992  0.9934
   61SAPC  H13Y 4828   4.863   6.409   9.340  0.5929  0.2942 -0.9856
   61SAPC  C314 4829   5.054   6.449   9.226  0.3437 -0.5402 -0.4554
   61SAPC  H14X 4830   5.074   6.344   9.198 -0.3144 -1.1140  1.1005
   61SAPC  H14Y 4831   5.150   6.496   9.255  0.7045 -2.1528  1.1317
   61SAPC  C315 4832   4.983   6.528   9.116  0.3952  0.1790  0.1502
   61SAPC  H15X 4833   4.950   6.627   9.153 -0.5425 -0.6480  1.6304
   61SAPC  H15Y 4834   4.888   6.477   9.089  2.1234 -2.3757 -1.5800
   61SAPC  C316 4835   5.065   6.550   8.987 -0.3074 -0.0197  0.1660
   61SAPC  H16X 4836   5.062   6.460   8.923  0.7400  0.4884 -0.6298
   61SAPC  H16Y 4837   5.171   6.553   9.018 -0.6730 -1.2616  1.6205
   61SAPC  C317 4838   5.014   6.669   8.895 -0.4872  0.4426 -0.2666
   61SAPC  H17X 4839   5.078   6.675   8.804 -1.0433 -1.7494 -0.8610
   61SAPC  H17Y 4840   5.031   6.766   8.947  2.1695 -0.3020  0.4276
   61SAPC  C318 4841   4.868   6.670   8.852 -0.5768 -0.3903  1.1132
   61SAPC  H18X 4842   4.853   6.747   8.774 -2.3191 -2.0131 -0.2554
   61SAPC  H18Y 4843   4.801   6.687   8.938 -0.2967 -2.8640  1.9168
   61SAPC  H18Z 4844   4.832   6.575   8.807 -1.7592  0.0727  1.0743
   62SAPC     N 4845   2.046   6.535  11.114 -0.0284 -0.3516 -0.1140
   62SAPC   C12 4846   2.006   6.683  11.116  0.0812  0.2899  0.3937
   62SAPC  H12A 4847   2.088   6.735  11.069  1.5444  0.5796  3.0820
   62SAPC  H12B 4848   1.997   6.723  11.216  2.6583  1.3360  0.2795
   62SAPC   C13 4849   1.939   6.445  11.153 -0.3046  0.7791  0.4367
   62SAPC  H13A 4850   1.974   6.343  11.160 -0.7743  0.6810  1.5543
   62SAPC  H13B 4851   1.880   6.478  11.238 -2.1192  1.5600 -1.0612
   62SAPC  H13C 4852   1.869   6.444  11.071 -0.4683 -1.5636  0.5361
   62SAPC   C14 4853   2.100   6.501  10.980 -0.2476 -0.7353  0.9368
   62SAPC  H14A 4854   2.132   6.400  10.961  0.6012 -0.1194 -1.1989
   62SAPC  H14B 4855   2.018   6.525  10.915  0.6755 -1.9409 -0.7657
   62SAPC  H14C 4856   2.187   6.557  10.947 -1.1495 -0.5224 -1.2592
   62SAPC   C15 4857   2.145   6.519  11.221 -0.3560  0.3860 -0.0025
   62SAPC  H15A 4858   2.185   6.421  11.201 -1.1715  0.4336 -2.0374
   62SAPC  H15B 4859   2.218   6.597  11.206  1.3809 -1.2571 -0.5142
   62SAPC  H15C 4860   2.109   6.525  11.323  2.3971  1.5317  0.9969
   62SAPC   C11 4861   1.875   6.716  11.034  0.7173  0.1461 -0.2075
   62SAPC  H11A 4862   1.836   6.820  11.044 -2.5978 -1.0678  0.9746
   62SAPC  H11B 4863   1.787   6.664  11.079  1.4049 -0.1287  0.8630
   62SAPC     P 4864   1.791   6.657  10.794 -0.4141  0.5155  0.0876
   62SAPC   O13 4865   1.731   6.528  10.843  0.7071 -0.3621 -0.0218
   62SAPC   O14 4866   1.704   6.775  10.784 -0.0499  0.3621 -0.1758
   62SAPC   O12 4867   1.904   6.690  10.896 -0.5196 -0.1351  0.0969
   62SAPC   O11 4868   1.871   6.621  10.668 -0.7664 -0.2596 -0.1317
   62SAPC    C1 4869   1.965   6.716  10.615 -0.0521  0.0674 -0.5551
   62SAPC    HA 4870   1.961   6.817  10.661  4.1087  0.2764 -0.2165
   62SAPC    HB 4871   2.063   6.671  10.641  0.0666  0.0348 -1.0361
   62SAPC    C2 4872   1.967   6.748  10.461  0.1677 -0.0778  0.8377
   62SAPC    HS 4873   1.887   6.823  10.443  0.2963 -0.4630 -1.7668
   62SAPC   O21 4874   1.942   6.626  10.395  0.6439 -0.3683  0.1981
   62SAPC   C21 4875   1.857   6.640  10.295  0.2248 -0.1554  0.2544
   62SAPC   O22 4876   1.802   6.746  10.265  0.2499  0.0366  0.1640
   62SAPC   C22 4877   1.840   6.502  10.228 -0.1558  0.0014  0.9438
   62SAPC   H2R 4878   1.909   6.427  10.271 -0.8013 -0.2033  1.6358
   62SAPC   H2S 4879   1.739   6.468  10.257  0.4975 -2.1923  0.8518
   62SAPC    C3 4880   2.105   6.794  10.416 -0.6805  0.3510 -0.2731
   62SAPC    HX 4881   2.181   6.716  10.442 -0.8405  0.2556 -0.0944
   62SAPC    HY 4882   2.132   6.878  10.484 -1.2599  0.1996  0.1434
   62SAPC   O31 4883   2.115   6.819  10.271 -0.3720 -0.2367 -0.0869
   62SAPC   C31 4884   2.144   6.942  10.230 -0.3063 -0.2906  0.3399
   62SAPC   O32 4885   2.151   7.043  10.297  0.0222  1.1894 -0.5433
   62SAPC   C32 4886   2.198   6.930  10.083  0.5460  0.9620  0.1698
   62SAPC   H2X 4887   2.243   7.029  10.059 -0.1433  1.6193  1.5044
   62SAPC   H2Y 4888   2.113   6.893  10.021 -0.5155 -0.0897  2.1701
   62SAPC   C23 4889   1.862   6.513  10.073  0.3327 -0.1532 -0.2334
   62SAPC   H3R 4890   1.782   6.577  10.029  2.0255  1.0766 -1.6705
   62SAPC   H3S 4891   1.845   6.413  10.029 -3.1426  0.6305 -1.0285
   62SAPC   C24 4892   2.000   6.572  10.034 -0.4065  0.0336 -0.0140
   62SAPC   H4R 4893   2.071   6.487  10.035 -0.1616  0.2286 -0.6431
   62SAPC   H4S 4894   2.021   6.658  10.102 -2.6253  1.7792 -1.3655
   62SAPC   C25 4895   2.004   6.623   9.892  0.0446  0.0043 -0.0990
   62SAPC   H5R 4896   2.017   6.732   9.881  3.3097 -0.4842 -2.5070
   62SAPC   C26 4897   1.977   6.552   9.782 -0.5454  0.6902  0.3430
   62SAPC   H6R 4898   1.980   6.600   9.683  0.1536  2.0583  0.9942
   62SAPC   C27 4899   1.946   6.404   9.767  0.0908  0.0854 -0.3856
   62SAPC   H7R 4900   1.840   6.403   9.736  0.0901  0.8017 -0.4111
   62SAPC   H7S 4901   1.942   6.361   9.869  0.2610  1.3542  0.1755
   62SAPC   C28 4902   2.039   6.336   9.674  1.0224 -0.6996 -0.6019
   62SAPC   H8R 4903   2.143   6.337   9.708  0.7712 -1.6691  0.2435
   62SAPC   C29 4904   2.003   6.285   9.553 -0.0587 -0.2838 -0.9066
   62SAPC   H9R 4905   2.083   6.239   9.492  1.4946 -0.4555  1.1496
   62SAPC  C210 4906   1.865   6.275   9.487  0.0313 -0.5185 -0.6022
   62SAPC  H10R 4907   1.879   6.291   9.378 -2.8280  0.2712 -0.9225
   62SAPC  H10S 4908   1.800   6.360   9.517 -0.5868 -1.4158  0.7258
   62SAPC  C211 4909   1.781   6.155   9.515  0.1795  0.4175 -0.3247
   62SAPC  H11R 4910   1.788   6.122   9.620  0.5183  1.0545 -0.1418
   62SAPC  C212 4911   1.695   6.088   9.433  0.7265 -0.6184 -1.1950
   62SAPC  H12R 4912   1.670   5.987   9.468  1.0845 -0.7178 -1.2272
   62SAPC  C213 4913   1.663   6.124   9.291  0.4851 -0.5958  0.8441
   62SAPC  H13R 4914   1.707   6.220   9.256  3.8764 -1.8049  1.4671
   62SAPC  H13S 4915   1.556   6.146   9.270  0.9633  0.8625 -0.2710
   62SAPC  C214 4916   1.716   6.027   9.189 -0.4402 -0.0989 -0.4480
   62SAPC  H14R 4917   1.810   5.977   9.219 -0.7281 -0.1990  0.3002
   62SAPC  C215 4918   1.646   5.967   9.088 -0.4589 -0.1579  0.5494
   62SAPC  H15R 4919   1.704   5.898   9.025  0.7629  2.0903 -0.9024
   62SAPC  C216 4920   1.506   6.007   9.048 -0.5421 -0.0371 -0.0507
   62SAPC  H16R 4921   1.512   6.118   9.058  0.7157 -0.1693  0.9122
   62SAPC  H16S 4922   1.432   5.970   9.122  0.1117 -0.8771  0.1916
   62SAPC  C217 4923   1.455   5.961   8.908 -0.3682  0.5362 -0.1136
   62SAPC  H17R 4924   1.347   5.985   8.905 -0.9433 -1.6221  1.0194
   62SAPC  H17S 4925   1.453   5.850   8.909 -1.7589  0.5312  1.2897
   62SAPC  C218 4926   1.523   6.029   8.788  0.6820  0.4482  0.9691
   62SAPC  H18R 4927   1.632   6.040   8.808  1.2922  0.7025 -2.1082
   62SAPC  H18S 4928   1.494   6.133   8.758  1.1680  0.8087  1.7114
   62SAPC  C219 4929   1.506   5.942   8.659 -0.2028 -0.4166 -0.3482
   62SAPC  H19R 4930   1.399   5.911   8.659 -1.0212  2.2097 -0.1892
   62SAPC  H19S 4931   1.567   5.850   8.670 -0.3384 -0.8120 -2.5127
   62SAPC  C220 4932   1.542   6.019   8.534 -0.4841 -0.6247  0.0077
   62SAPC  H20R 4933   1.638   6.070   8.554 -0.9286 -0.6678  2.6832
   62SAPC  H20S 4934   1.470   6.100   8.510  2.7102  3.1503  2.1044
   62SAPC  H20T 4935   1.565   5.948   8.452 -0.9245 -1.1355  0.3185
   62SAPC   C33 4936   2.310   6.823  10.084  0.5225  0.0496 -0.5231
   62SAPC   H3X 4937   2.258   6.728  10.106 -2.8938  1.7502 -0.5021
   62SAPC   H3Y 4938   2.383   6.853  10.162 -0.2607 -0.3190  0.3778
   62SAPC   C34 4939   2.385   6.804   9.949  0.4599 -0.8169  0.1701
   62SAPC   H4X 4940   2.462   6.728   9.974 -0.4306 -0.9946  2.6354
   62SAPC   H4Y 4941   2.425   6.902   9.916 -0.0687 -0.5565  0.2832
   62SAPC   C35 4942   2.296   6.747   9.838  0.4023 -0.1445 -0.4367
   62SAPC   H5X 4943   2.209   6.810   9.811  2.4312  2.0456 -2.3335
   62SAPC   H5Y 4944   2.255   6.649   9.869 -0.5386  0.3686 -0.0072
   62SAPC   C36 4945   2.375   6.724   9.713 -0.7263 -0.3779  0.0691
   62SAPC   H6X 4946   2.477   6.695   9.747 -1.4022 -1.1678  1.5020
   62SAPC   H6Y 4947   2.386   6.803   9.635  0.8261 -1.2904 -0.6966
   62SAPC   C37 4948   2.328   6.610   9.632  0.2268  0.8069  0.2312
   62SAPC   H7X 4949   2.234   6.633   9.578 -0.0167  2.1538  1.1756
   62SAPC   H7Y 4950   2.304   6.531   9.706 -0.3928  0.6619 -0.1130
   62SAPC   C38 4951   2.420   6.555   9.521 -0.3709 -0.2956 -0.2707
   62SAPC   H8X 4952   2.492   6.486   9.569  0.4615 -0.2309 -1.3984
   62SAPC   H8Y 4953   2.480   6.634   9.471 -1.2127  0.4442 -0.1319
   62SAPC   C39 4954   2.342   6.475   9.419  0.4535  0.0035  0.2862
   62SAPC   H9X 4955   2.287   6.402   9.482 -0.7274  1.2785  0.7903
   62SAPC   H9Y 4956   2.418   6.424   9.357  0.3118  0.1062  0.0248
   62SAPC  C310 4957   2.239   6.552   9.336 -0.1825  0.3880 -0.5380
   62SAPC  H10X 4958   2.272   6.658   9.340  3.1090 -0.5520 -0.1521
   62SAPC  H10Y 4959   2.141   6.558   9.389 -1.3867 -0.1998 -2.6002
   62SAPC  C311 4960   2.240   6.509   9.192  0.1500 -0.0327 -0.2165
   62SAPC  H11X 4961   2.228   6.399   9.193  1.1102 -0.1631 -0.9754
   62SAPC  H11Y 4962   2.345   6.521   9.160  0.5498 -0.1329  1.0251
   62SAPC  C312 4963   2.138   6.579   9.109  0.3293  0.7300 -0.2015
   62SAPC  H12X 4964   2.123   6.685   9.137  0.7940  0.3711  1.4861
   62SAPC  H12Y 4965   2.042   6.535   9.144  1.0270 -2.4069 -1.8871
   62SAPC  C313 4966   2.163   6.565   8.960  0.4103 -0.3088 -1.2841
   62SAPC  H13X 4967   2.142   6.463   8.923 -0.7242 -0.0080 -1.5230
   62SAPC  H13Y 4968   2.273   6.574   8.941  0.6732  0.5242  0.4344
   62SAPC  C314 4969   2.103   6.676   8.874  0.0652  0.1544 -0.1134
   62SAPC  H14X 4970   2.163   6.765   8.902  0.6880 -0.1319 -0.5150
   62SAPC  H14Y 4971   1.994   6.688   8.889 -0.1222 -1.5839  0.1425
   62SAPC  C315 4972   2.103   6.653   8.723  0.0215 -0.4900  0.1289
   62SAPC  H15X 4973   2.193   6.595   8.691 -0.2156 -0.0647 -1.3709
   62SAPC  H15Y 4974   2.113   6.754   8.679 -0.0701 -0.2222  0.7187
   62SAPC  C316 4975   1.975   6.609   8.650  0.7079  0.5705 -0.4275
   62SAPC  H16X 4976   1.893   6.666   8.699 -0.2644 -0.6668 -0.5495
   62SAPC  H16Y 4977   1.952   6.502   8.672  0.3085  0.7453  0.0229
   62SAPC  C317 4978   1.975   6.626   8.500  0.0523 -0.2146  0.0769
   62SAPC  H17X 4979   2.060   6.579   8.446  1.3319 -0.1821  2.0152
   62SAPC  H17Y 4980   2.001   6.732   8.482  2.5512 -0.9785 -1.2669
   62SAPC  C318 4981   1.848   6.603   8.424  0.1606  0.0994 -0.5895
   62SAPC  H18X 4982   1.761   6.638   8.485  1.4345  0.4068  1.1303
   62SAPC  H18Y 4983   1.831   6.497   8.399  1.9736 -0.5807  0.8241
   62SAPC  H18Z 4984   1.847   6.667   8.333  0.5857 -1.3906 -1.6642
   63SAPC     N 4985   0.560   0.256   6.150  0.2954  0.4704 -0.0915
   63SAPC   C12 4986   0.516   0.210   6.278  0.0737  0.4984 -0.0932
   63SAPC  H12A 4987   0.430   0.148   6.262  1.6839 -1.5250 -1.4700
   63SAPC  H12B 4988   0.479   0.288   6.344 -2.0338 -0.0806 -0.5465
   63SAPC   C13 4989   0.595   0.138   6.052  0.5204 -0.0025  0.0937
   63SAPC  H13A 4990   0.653   0.170   5.967 -0.4860  1.4925 -0.0678
   63SAPC  H13B 4991   0.665   0.070   6.100  2.8504 -1.1203 -4.3215
   63SAPC  H13C 4992   0.504   0.089   6.021  0.0536  0.7798  0.2036
   63SAPC   C14 4993   0.448   0.335   6.086 -0.7433 -0.9613 -0.6859
   63SAPC  H14A 4994   0.350   0.291   6.078 -1.5468  0.7259 -0.5134
   63SAPC  H14B 4995   0.433   0.425   6.144 -0.5116 -0.9413 -0.6538
   63SAPC  H14C 4996   0.474   0.359   5.984  2.4462 -0.0235  0.2111
   63SAPC   C15 4997   0.686   0.340   6.170 -0.5877 -0.3745  0.4301
   63SAPC  H15A 4998   0.663   0.410   6.249 -1.4980 -0.1493 -0.0257
   63SAPC  H15B 4999   0.775   0.280   6.182 -0.6577 -0.3838  0.9149
   63SAPC  H15C 5000   0.714   0.391   6.079  0.5712  1.2915  1.6555
   63SAPC   C11 5001   0.617   0.110   6.353  0.0975  1.0685 -0.2820
   63SAPC  H11A 5002   0.597   0.109   6.462  1.3164  0.0826 -0.0533
   63SAPC  H11B 5003   0.725   0.132   6.344  0.3129 -0.0670 -0.5916
   63SAPC     P 5004   0.672  -0.139   6.289  0.0716  0.1955 -0.2231
   63SAPC   O13 5005   0.605  -0.262   6.237 -0.2948 -0.3147  0.0111
   63SAPC   O14 5006   0.791  -0.093   6.213  0.3870  0.1888 -0.9028
   63SAPC   O12 5007   0.578  -0.019   6.305  0.1092 -0.0709 -0.1877
   63SAPC   O11 5008   0.722  -0.166   6.432  0.4774 -0.1335 -0.7325
   63SAPC    C1 5009   0.626  -0.203   6.535 -0.0166 -0.5412 -0.2547
   63SAPC    HA 5010   0.533  -0.142   6.532  0.7771  0.8237  1.4383
   63SAPC    HB 5011   0.609  -0.311   6.517  0.8573 -0.7766  0.2738
   63SAPC    C2 5012   0.672  -0.171   6.683 -0.3433 -0.0194  1.1151
   63SAPC    HS 5013   0.769  -0.214   6.715  0.0441  1.4277  2.0002
   63SAPC   O21 5014   0.564  -0.209   6.775 -0.8070  0.0388  0.4155
   63SAPC   C21 5015   0.531  -0.341   6.774 -0.4781  0.5169 -0.1321
   63SAPC   O22 5016   0.568  -0.423   6.692 -0.0314 -0.0786 -0.1989
   63SAPC   C22 5017   0.411  -0.354   6.868 -0.1660  0.1303 -0.3428
   63SAPC   H2R 5018   0.422  -0.296   6.962 -1.2205 -0.9068  0.4585
   63SAPC   H2S 5019   0.324  -0.319   6.810 -0.9769  0.5691  1.1038
   63SAPC    C3 5020   0.700  -0.014   6.693 -0.2661  0.2137 -0.1243
   63SAPC    HX 5021   0.622   0.054   6.650 -0.2863  1.1027  1.2541
   63SAPC    HY 5022   0.790  -0.000   6.629 -0.6671  0.8824 -0.5638
   63SAPC   O31 5023   0.726   0.020   6.830  0.3051 -0.0157  0.0844
   63SAPC   C31 5024   0.623   0.079   6.898  0.3225  0.8253 -0.9183
   63SAPC   O32 5025   0.511   0.100   6.847  0.0456 -0.2893  0.5343
   63SAPC   C32 5026   0.655   0.101   7.041  0.3437 -0.0527  0.2634
   63SAPC   H2X 5027   0.563   0.144   7.086 -0.0432 -0.9077  0.3111
   63SAPC   H2Y 5028   0.744   0.168   7.044  0.1552  0.3708 -1.9833
   63SAPC   C23 5029   0.383  -0.504   6.899  0.2030 -0.3354 -0.1197
   63SAPC   H3R 5030   0.462  -0.536   6.970  0.3743  0.1932 -0.0692
   63SAPC   H3S 5031   0.393  -0.570   6.810 -3.1507 -0.7140 -0.3297
   63SAPC   C24 5032   0.240  -0.527   6.951 -1.2488 -0.6061  0.4067
   63SAPC   H4R 5033   0.183  -0.514   6.856 -0.5314 -0.2442  0.0186
   63SAPC   H4S 5034   0.207  -0.445   7.019 -0.0346  1.7205 -1.6393
   63SAPC   C25 5035   0.231  -0.669   6.998  0.3168  0.0609 -0.2228
   63SAPC   H5R 5036   0.232  -0.747   6.921  1.2143  0.7260 -0.8945
   63SAPC   C26 5037   0.235  -0.717   7.126  1.1187 -0.6693 -0.1143
   63SAPC   H6R 5038   0.216  -0.824   7.141 -0.4361 -0.2195  1.4615
   63SAPC   C27 5039   0.246  -0.641   7.255  0.0152  0.4151 -0.4782
   63SAPC   H7R 5040   0.139  -0.620   7.274 -0.3233 -1.0274 -0.7411
   63SAPC   H7S 5041   0.307  -0.549   7.243 -0.4467  0.6245 -1.3008
   63SAPC   C28 5042   0.302  -0.724   7.364 -0.7758 -0.3225 -0.6640
   63SAPC   H8R 5043   0.412  -0.722   7.367 -0.6052  1.3578 -3.8822
   63SAPC   C29 5044   0.227  -0.802   7.449  0.0806 -0.5254 -0.5449
   63SAPC   H9R 5045   0.285  -0.873   7.511 -0.7568 -1.4895 -0.8268
   63SAPC  C210 5046   0.077  -0.826   7.447 -0.3112  0.8013  0.4853
   63SAPC  H10R 5047   0.067  -0.936   7.452 -2.4150  0.9726  1.1189
   63SAPC  H10S 5048   0.028  -0.799   7.351 -0.9164  0.9113  0.8154
   63SAPC  C211 5049   0.023  -0.759   7.566  0.2891 -0.3609 -0.1712
   63SAPC  H11R 5050   0.013  -0.650   7.560 -1.1392 -0.4843 -0.3621
   63SAPC  C212 5051  -0.018  -0.827   7.676 -0.8237 -0.3563 -0.0311
   63SAPC  H12R 5052  -0.058  -0.770   7.761 -1.1470 -0.7742  0.0990
   63SAPC  C213 5053  -0.014  -0.975   7.704 -0.0700  0.4712  0.3451
   63SAPC  H13R 5054   0.066  -1.027   7.646  0.7358 -0.6936  2.4220
   63SAPC  H13S 5055  -0.101  -1.017   7.650  1.9930 -0.7363 -2.2993
   63SAPC  C214 5056  -0.009  -1.028   7.849  0.8332  0.1588  0.1758
   63SAPC  H14R 5057  -0.107  -1.047   7.895  0.1199  0.9466 -0.9835
   63SAPC  C215 5058   0.101  -1.046   7.923 -0.1412 -0.2201 -0.9393
   63SAPC  H15R 5059   0.090  -1.103   8.017  0.3873 -1.5709 -1.6748
   63SAPC  C216 5060   0.241  -1.032   7.876 -0.6027 -0.6993 -0.2031
   63SAPC  H16R 5061   0.245  -1.020   7.766  0.3009 -1.4088 -0.2608
   63SAPC  H16S 5062   0.293  -1.129   7.893  0.2196 -0.4308 -1.0725
   63SAPC  C217 5063   0.306  -0.927   7.960 -0.4327  0.2072  0.7254
   63SAPC  H17R 5064   0.313  -0.971   8.061 -1.5954 -0.8099  0.3827
   63SAPC  H17S 5065   0.255  -0.828   7.964  0.5440  0.6961  2.0899
   63SAPC  C218 5066   0.451  -0.893   7.912  0.0510 -0.1509  0.6069
   63SAPC  H18R 5067   0.517  -0.982   7.903 -0.6707 -0.4755 -4.4372
   63SAPC  H18S 5068   0.486  -0.820   7.988  0.5882 -1.2094  1.4040
   63SAPC  C219 5069   0.449  -0.809   7.782 -0.6110  0.1951  0.9532
   63SAPC  H19R 5070   0.400  -0.711   7.799 -0.6699  0.6399 -1.5509
   63SAPC  H19S 5071   0.398  -0.863   7.700  1.6151 -0.0494 -0.3487
   63SAPC  C220 5072   0.585  -0.775   7.728 -0.4876  0.1158  0.8079
   63SAPC  H20R 5073   0.638  -0.862   7.683 -2.1459  0.3006 -1.7605
   63SAPC  H20S 5074   0.653  -0.734   7.805  1.6430 -0.3941 -0.7208
   63SAPC  H20T 5075   0.583  -0.696   7.650 -0.7709  1.1871  1.8740
   63SAPC   C33 5076   0.690  -0.029   7.106 -0.5878  0.8018 -0.3335
   63SAPC   H3X 5077   0.797  -0.025   7.134 -0.8338  1.6314  0.5562
   63SAPC   H3Y 5078   0.657  -0.112   7.040 -0.3640  1.0770 -0.7924
   63SAPC   C34 5079   0.615  -0.055   7.239 -0.0854  0.4337  0.9161
   63SAPC   H4X 5080   0.582  -0.160   7.250 -0.5390  0.5664  0.8674
   63SAPC   H4Y 5081   0.514  -0.008   7.230 -0.6505 -0.2631  3.0294
   63SAPC   C35 5082   0.690  -0.003   7.360  0.0377  0.0963  0.1130
   63SAPC   H5X 5083   0.710   0.105   7.343  2.1463 -0.0310  1.4337
   63SAPC   H5Y 5084   0.790  -0.050   7.366  1.0196  1.9005 -1.1440
   63SAPC   C36 5085   0.622  -0.033   7.492 -0.0211  0.6463 -0.0336
   63SAPC   H6X 5086   0.629  -0.144   7.502 -0.1732  0.6133 -0.2782
   63SAPC   H6Y 5087   0.514  -0.013   7.474  0.1350 -0.1971 -2.1770
   63SAPC   C37 5088   0.682   0.050   7.610 -0.3565 -0.4927  0.0336
   63SAPC   H7X 5089   0.676   0.155   7.575 -2.7438  0.1024  1.9108
   63SAPC   H7Y 5090   0.789   0.023   7.624 -0.9717 -1.6294  3.8817
   63SAPC   C38 5091   0.639   0.045   7.756  0.0499 -0.8605 -1.0151
   63SAPC   H8X 5092   0.534   0.080   7.746  0.6498  0.9301 -1.4504
   63SAPC   H8Y 5093   0.692   0.117   7.822  1.3109 -2.6506  0.0046
   63SAPC   C39 5094   0.658  -0.100   7.810  0.7410 -0.2341 -1.0347
   63SAPC   H9X 5095   0.768  -0.118   7.817  0.7089 -0.0775  4.3667
   63SAPC   H9Y 5096   0.612  -0.168   7.737  0.8870 -1.0344 -0.3937
   63SAPC  C310 5097   0.611  -0.140   7.952  0.5762  0.5225  1.1269
   63SAPC  H10X 5098   0.641  -0.245   7.970 -3.2338 -1.0199 -0.5512
   63SAPC  H10Y 5099   0.501  -0.146   7.968  0.5226  1.1334  1.0282
   63SAPC  C311 5100   0.665  -0.046   8.057 -0.2610 -0.0742 -0.1162
   63SAPC  H11X 5101   0.622   0.056   8.043 -0.3523 -0.2113 -0.8736
   63SAPC  H11Y 5102   0.775  -0.036   8.043 -0.6422  2.5140 -1.9511
   63SAPC  C312 5103   0.651  -0.097   8.200  0.1779 -0.3586  0.8388
   63SAPC  H12X 5104   0.544  -0.126   8.195 -0.5513  2.3046 -1.7205
   63SAPC  H12Y 5105   0.647  -0.007   8.264 -0.5166  1.8698 -2.0876
   63SAPC  C313 5106   0.760  -0.193   8.251  0.2271  0.5147  0.0234
   63SAPC  H13X 5107   0.845  -0.125   8.271  0.3624  0.3019  0.1918
   63SAPC  H13Y 5108   0.799  -0.270   8.181  2.4453  0.2776  1.4145
   63SAPC  C314 5109   0.726  -0.243   8.392  0.2567 -0.0229  0.3359
   63SAPC  H14X 5110   0.636  -0.305   8.377 -0.5083  1.4421 -1.5043
   63SAPC  H14Y 5111   0.687  -0.165   8.461 -1.0854 -1.7967  1.6728
   63SAPC  C315 5112   0.848  -0.313   8.459  1.0161 -1.2230 -0.3102
   63SAPC  H15X 5113   0.942  -0.262   8.428  0.7361  0.4829  1.4465
   63SAPC  H15Y 5114   0.842  -0.421   8.437  1.9489 -1.3951  0.2109
   63SAPC  C316 5115   0.831  -0.302   8.614  0.0124  0.3499 -0.0663
   63SAPC  H16X 5116   0.814  -0.195   8.636  3.1127  0.7836  0.6032
   63SAPC  H16Y 5117   0.930  -0.317   8.661  0.7189 -0.8634 -1.7982
   63SAPC  C317 5118   0.720  -0.389   8.683  0.6251  0.1018 -0.2224
   63SAPC  H17X 5119   0.750  -0.495   8.674  0.0790 -0.1056  0.2995
   63SAPC  H17Y 5120   0.632  -0.376   8.617  2.1848  1.1041 -2.2122
   63SAPC  C318 5121   0.705  -0.344   8.827 -0.0350 -0.1596  0.2078
   63SAPC  H18X 5122   0.790  -0.369   8.894 -0.5695  1.8958  1.7589
   63SAPC  H18Y 5123   0.620  -0.405   8.865 -0.4720 -0.6739 -1.4863
   63SAPC  H18Z 5124   0.681  -0.237   8.840 -0.1498 -0.0965 -0.4945
   64SAPC     N 5125   2.230   3.743   5.911 -0.4065  0.7825 -0.3509
   64SAPC   C12 5126   2.315   3.810   6.019  0.2288  0.5029  0.1708
   64SAPC  H12A 5127   2.413   3.827   5.976  0.5397  1.3833  1.1714
   64SAPC  H12B 5128   2.354   3.742   6.093  3.4047  2.4167  0.4563
   64SAPC   C13 5129   2.311   3.633   5.856 -0.0905  0.4066  1.0342
   64SAPC  H13A 5130   2.257   3.589   5.773 -0.2473 -1.0981  1.9136
   64SAPC  H13B 5131   2.408   3.661   5.819 -2.2440  4.1009 -2.8391
   64SAPC  H13C 5132   2.322   3.552   5.925  3.1554  0.8348  1.1749
   64SAPC   C14 5133   2.101   3.681   5.975 -0.5587 -0.2728  0.0664
   64SAPC  H14A 5134   2.037   3.630   5.905 -0.7278  1.3837 -1.0429
   64SAPC  H14B 5135   2.123   3.624   6.063  1.5341  0.6107  0.1687
   64SAPC  H14C 5136   2.040   3.763   6.010  1.4208  1.1283  0.3768
   64SAPC   C15 5137   2.182   3.842   5.807  0.1915 -0.1719 -0.0606
   64SAPC  H15A 5138   2.254   3.895   5.747 -0.1483 -1.9995 -2.2275
   64SAPC  H15B 5139   2.128   3.791   5.728  0.7648 -0.7046 -0.1165
   64SAPC  H15C 5140   2.122   3.911   5.864 -0.3360 -1.4187  0.9546
   64SAPC   C11 5141   2.266   3.938   6.091  0.3299 -0.2368  0.0924
   64SAPC  H11A 5142   2.244   4.015   6.014 -1.8724 -0.0660  0.8372
   64SAPC  H11B 5143   2.350   3.981   6.149  1.5829  0.3038 -2.0011
   64SAPC     P 5144   2.141   3.841   6.315  0.3757  0.0391  0.1604
   64SAPC   O13 5145   1.998   3.811   6.345  0.0480 -0.5366 -0.3700
   64SAPC   O14 5146   2.234   3.727   6.305 -0.0878  0.1164 -0.0278
   64SAPC   O12 5147   2.146   3.921   6.181 -0.2810  0.2318  0.2206
   64SAPC   O11 5148   2.189   3.941   6.426 -0.7414 -0.1149  0.5437
   64SAPC    C1 5149   2.106   4.047   6.467  0.3255  0.2134  0.0824
   64SAPC    HA 5150   2.078   4.105   6.377 -1.8143 -0.1908  0.4326
   64SAPC    HB 5151   2.011   4.000   6.501 -0.5312  2.1252  0.4757
   64SAPC    C2 5152   2.174   4.151   6.567  0.6695  0.4736 -0.4748
   64SAPC    HS 5153   2.260   4.192   6.510  0.1230  2.9179  0.3338
   64SAPC   O21 5154   2.212   4.082   6.687 -0.4800  0.5111 -0.6721
   64SAPC   C21 5155   2.308   4.133   6.763  0.1344 -0.3346 -0.7778
   64SAPC   O22 5156   2.380   4.226   6.717  0.4352 -0.1548  0.0298
   64SAPC   C22 5157   2.318   4.068   6.901  0.7895  0.1299  0.3250
   64SAPC   H2R 5158   2.215   4.084   6.941  0.5778 -1.8110  0.6569
   64SAPC   H2S 5159   2.332   3.959   6.887  0.5626  0.0244  0.8926
   64SAPC    C3 5160   2.077   4.268   6.610  0.2965 -0.7235  0.2869
   64SAPC    HX 5161   1.994   4.225   6.670  0.3004  1.6998  2.1680
   64SAPC    HY 5162   2.029   4.307   6.517 -0.0895 -0.1890  0.7112
   64SAPC   O31 5163   2.141   4.380   6.673 -0.1139  0.2133  0.0312
   64SAPC   C31 5164   2.112   4.406   6.799  0.3477  0.1220 -0.2013
   64SAPC   O32 5165   2.044   4.334   6.872  0.2684 -0.1738  0.9812
   64SAPC   C32 5166   2.156   4.547   6.828 -0.7941 -0.6540  0.0319
   64SAPC   H2X 5167   2.119   4.626   6.758  0.8968 -1.5156 -1.9440
   64SAPC   H2Y 5168   2.265   4.557   6.807 -0.6643 -0.8603  0.6023
   64SAPC   C23 5169   2.419   4.123   7.001 -0.0464 -0.1049 -0.0983
   64SAPC   H3R 5170   2.517   4.114   6.949  0.4691 -1.9133  1.0876
   64SAPC   H3S 5171   2.424   4.069   7.098 -0.4583 -0.0613 -0.0515
   64SAPC   C24 5172   2.388   4.273   7.045  1.1154 -0.8378 -0.8553
   64SAPC   H4R 5173   2.359   4.322   6.950 -0.7293  0.1402  0.1511
   64SAPC   H4S 5174   2.474   4.319   7.098  3.6010 -0.9466 -4.4716
   64SAPC   C25 5175   2.250   4.278   7.121 -0.1721 -0.0499 -0.7156
   64SAPC   H5R 5176   2.165   4.268   7.053 -0.7345  0.9870 -0.1991
   64SAPC   C26 5177   2.224   4.313   7.249  0.1483 -0.3855  0.3108
   64SAPC   H6R 5178   2.117   4.310   7.274 -0.3308  1.5170 -1.2602
   64SAPC   C27 5179   2.318   4.349   7.352  0.4374  0.5393  0.5400
   64SAPC   H7R 5180   2.316   4.456   7.383 -0.8217  0.6804  0.0132
   64SAPC   H7S 5181   2.416   4.336   7.299 -0.7499 -2.8182 -1.1455
   64SAPC   C28 5182   2.316   4.262   7.473  1.0643  0.5787 -0.7727
   64SAPC   H8R 5183   2.363   4.163   7.458  2.6891  1.1141  0.4826
   64SAPC   C29 5184   2.268   4.292   7.600  0.1786 -0.8297 -0.6630
   64SAPC   H9R 5185   2.251   4.213   7.674  0.6954 -0.0237  0.3477
   64SAPC  C210 5186   2.202   4.423   7.634  0.3624  0.1585 -0.0997
   64SAPC  H10R 5187   2.110   4.398   7.691  1.0470 -1.6930  0.2840
   64SAPC  H10S 5188   2.155   4.464   7.542 -0.2519 -0.2346  0.0330
   64SAPC  C211 5189   2.269   4.533   7.704  0.3705  0.2207 -0.8741
   64SAPC  H11R 5190   2.299   4.613   7.635 -2.9978  1.6187 -0.8902
   64SAPC  C212 5191   2.287   4.552   7.838  0.2433  0.2780 -0.4339
   64SAPC  H12R 5192   2.353   4.636   7.866  0.6757 -0.4040  0.6427
   64SAPC  C213 5193   2.235   4.452   7.939 -0.3277  0.1878 -0.2144
   64SAPC  H13R 5194   2.300   4.363   7.954 -2.4251 -1.7348 -1.8830
   64SAPC  H13S 5195   2.146   4.398   7.901  0.0259 -2.6229  2.5645
   64SAPC  C214 5196   2.195   4.497   8.080 -0.0760 -0.1391 -0.2611
   64SAPC  H14R 5197   2.216   4.602   8.106 -1.5056 -0.6242  3.5311
   64SAPC  C215 5198   2.130   4.430   8.175 -0.4629  0.5477  0.5332
   64SAPC  H15R 5199   2.112   4.492   8.264  1.8648  0.2972  1.2280
   64SAPC  C216 5200   2.077   4.298   8.162  0.6516  0.6492  0.7843
   64SAPC  H16R 5201   2.133   4.241   8.239 -0.1612  1.5366  2.0792
   64SAPC  H16S 5202   2.098   4.244   8.068  0.6855  1.3153  0.4029
   64SAPC  C217 5203   1.925   4.289   8.185 -0.3447  0.3263  0.7732
   64SAPC  H17R 5204   1.872   4.301   8.088 -1.4461 -1.1872  1.1474
   64SAPC  H17S 5205   1.896   4.373   8.252  0.5627  4.1127 -3.1637
   64SAPC  C218 5206   1.889   4.152   8.237  0.3619 -0.3968 -1.0389
   64SAPC  H18R 5207   1.963   4.146   8.320  0.6901  1.7570 -1.0959
   64SAPC  H18S 5208   1.919   4.077   8.161  1.1932 -1.5745  0.3940
   64SAPC  C219 5209   1.747   4.126   8.289  0.8757 -0.2039 -0.3091
   64SAPC  H19R 5210   1.742   4.020   8.324  1.0473  0.2663  1.2224
   64SAPC  H19S 5211   1.679   4.156   8.207  1.0253 -3.3713 -1.7164
   64SAPC  C220 5212   1.729   4.220   8.410  0.8459 -0.2766 -0.1072
   64SAPC  H20R 5213   1.809   4.214   8.486 -2.0684 -0.0698  3.2030
   64SAPC  H20S 5214   1.639   4.192   8.468  0.3174  2.0808  0.2804
   64SAPC  H20T 5215   1.713   4.325   8.377  1.1083 -0.1888  0.0460
   64SAPC   C33 5216   2.110   4.592   6.972  0.2480  0.4974 -0.1576
   64SAPC   H3X 5217   2.166   4.686   6.990 -0.4188  0.9984 -0.6663
   64SAPC   H3Y 5218   2.144   4.529   7.058  0.3056  0.9892  0.1867
   64SAPC   C34 5219   1.956   4.620   6.987 -0.4968 -0.2305  0.9538
   64SAPC   H4X 5220   1.893   4.535   6.956 -1.9319  0.5165  1.7201
   64SAPC   H4Y 5221   1.933   4.700   6.913  0.7845  0.3976  1.1888
   64SAPC   C35 5222   1.918   4.667   7.130 -0.3385  0.4324  0.8400
   64SAPC   H5X 5223   1.811   4.698   7.128 -0.9106 -1.4124 -1.6179
   64SAPC   H5Y 5224   1.970   4.762   7.157  1.0276  0.0219 -0.2253
   64SAPC   C36 5225   1.940   4.556   7.245  0.9838  0.2268  0.6604
   64SAPC   H6X 5226   2.043   4.551   7.285  1.0240  1.2087  0.6948
   64SAPC   H6Y 5227   1.918   4.466   7.184  0.9322 -0.2870  1.4266
   64SAPC   C37 5228   1.828   4.563   7.358 -0.7603  0.7099 -0.5147
   64SAPC   H7X 5229   1.833   4.480   7.432 -2.2805  1.2035  0.1767
   64SAPC   H7Y 5230   1.733   4.560   7.301 -0.0474 -1.4572 -1.6790
   64SAPC   C38 5231   1.811   4.692   7.440  0.7819  0.3766 -0.7968
   64SAPC   H8X 5232   1.815   4.782   7.375  3.3814  0.2677 -0.8814
   64SAPC   H8Y 5233   1.899   4.704   7.508 -0.8434  0.4944  1.4216
   64SAPC   C39 5234   1.683   4.692   7.540 -0.3762  0.1676 -0.0120
   64SAPC   H9X 5235   1.658   4.591   7.580 -0.6650  0.7471  1.3553
   64SAPC   H9Y 5236   1.602   4.733   7.477  0.1357  0.7566 -0.2909
   64SAPC  C310 5237   1.695   4.781   7.663  0.8178  0.2889 -0.7778
   64SAPC  H10X 5238   1.595   4.797   7.707  1.5462  2.2484  0.3225
   64SAPC  H10Y 5239   1.717   4.887   7.636 -0.5097  1.0364  0.9099
   64SAPC  C311 5240   1.776   4.733   7.781  0.2951 -0.5131 -0.5184
   64SAPC  H11X 5241   1.783   4.816   7.855 -2.9739  0.3497 -1.0500
   64SAPC  H11Y 5242   1.874   4.689   7.752  1.1521  1.0669 -0.1899
   64SAPC  C312 5243   1.703   4.629   7.868  0.0248  0.6372 -0.4981
   64SAPC  H12X 5244   1.682   4.539   7.807  2.4162  0.1786 -0.7595
   64SAPC  H12Y 5245   1.609   4.672   7.909  1.7262  1.0361  3.4157
   64SAPC  C313 5246   1.794   4.578   7.981 -0.0617  0.6192  0.3987
   64SAPC  H13X 5247   1.886   4.543   7.929 -1.3286  0.8621 -2.2034
   64SAPC  H13Y 5248   1.739   4.494   8.028 -0.2510 -1.1120 -2.6429
   64SAPC  C314 5249   1.855   4.672   8.089 -0.1386  0.2763 -0.0093
   64SAPC  H14X 5250   1.910   4.749   8.031 -0.4695  1.5325  1.2914
   64SAPC  H14Y 5251   1.928   4.610   8.145 -2.1128 -1.4309  0.7649
   64SAPC  C315 5252   1.747   4.720   8.188  0.0660  0.1716 -0.0968
   64SAPC  H15X 5253   1.676   4.636   8.205 -1.8123  1.6540 -0.2596
   64SAPC  H15Y 5254   1.689   4.795   8.130 -1.0868  0.5050  1.4345
   64SAPC  C316 5255   1.813   4.780   8.316 -0.1368  0.2166  0.1492
   64SAPC  H16X 5256   1.857   4.875   8.280 -1.8194  0.4252 -1.5422
   64SAPC  H16Y 5257   1.893   4.713   8.355  1.0536  2.1242  1.1237
   64SAPC  C317 5258   1.710   4.824   8.425 -0.4666  0.1357 -0.1073
   64SAPC  H17X 5259   1.759   4.856   8.520 -0.4302 -0.3975  0.0570
   64SAPC  H17Y 5260   1.657   4.729   8.450  1.4089 -1.1445 -0.8048
   64SAPC  C318 5261   1.611   4.936   8.390 -0.0597  0.4808 -0.6830
   64SAPC  H18X 5262   1.545   4.895   8.311 -2.1788 -0.7374  1.5844
   64SAPC  H18Y 5263   1.663   5.028   8.356 -0.5974  1.2526  0.5028
   64SAPC  H18Z 5264   1.542   4.966   8.472  1.3018 -1.2954  1.2424
   65SAPC     N 5265   3.706   5.308   5.804  0.0419  0.6092  0.6023
   65SAPC   C12 5266   3.685   5.235   5.931  0.2121  0.3608 -0.9862
   65SAPC  H12A 5267   3.777   5.241   5.988 -0.5260 -0.7844  0.3825
   65SAPC  H12B 5268   3.679   5.128   5.914  0.9971  0.2729 -0.7624
   65SAPC   C13 5269   3.822   5.243   5.739 -0.1367  0.1545  0.5934
   65SAPC  H13A 5270   3.852   5.293   5.648 -0.4224 -0.1904  0.3055
   65SAPC  H13B 5271   3.908   5.242   5.804 -0.2366  0.0205  0.7243
   65SAPC  H13C 5272   3.802   5.141   5.709  0.1784  0.7082 -1.6344
   65SAPC   C14 5273   3.591   5.303   5.702 -0.0779  0.2236 -0.1953
   65SAPC  H14A 5274   3.623   5.363   5.617  0.4614 -1.0261 -0.8941
   65SAPC  H14B 5275   3.576   5.203   5.666  0.8687 -0.2540  0.6994
   65SAPC  H14C 5276   3.501   5.343   5.746 -1.1523 -1.6033 -0.6471
   65SAPC   C15 5277   3.739   5.450   5.828 -0.8004 -0.2822  0.4314
   65SAPC  H15A 5278   3.651   5.497   5.870 -0.7610 -1.2502  1.6641
   65SAPC  H15B 5279   3.819   5.460   5.900  0.4545  0.3856 -1.0117
   65SAPC  H15C 5280   3.768   5.498   5.736 -0.9105 -2.5604 -0.8618
   65SAPC   C11 5281   3.567   5.285   6.010  0.1512 -0.5501 -0.4057
   65SAPC  H11A 5282   3.532   5.209   6.082  0.0846 -0.1587 -0.0182
   65SAPC  H11B 5283   3.474   5.294   5.950  0.7185  1.2266 -1.0838
   65SAPC     P 5284   3.683   5.417   6.195 -0.3931 -0.0287 -0.1288
   65SAPC   O13 5285   3.810   5.354   6.160 -0.5915 -0.2981  0.1141
   65SAPC   O14 5286   3.692   5.562   6.236 -0.0560 -0.1433 -0.0441
   65SAPC   O12 5287   3.587   5.414   6.068 -0.6868  0.1399 -0.6091
   65SAPC   O11 5288   3.601   5.336   6.302 -0.4316 -0.3460  0.6205
   65SAPC    C1 5289   3.465   5.372   6.341  0.6020  1.6590  0.2072
   65SAPC    HA 5290   3.407   5.395   6.249 -1.2568 -0.0852  0.8677
   65SAPC    HB 5291   3.424   5.284   6.394  1.1869  1.9020  1.0908
   65SAPC    C2 5292   3.461   5.488   6.443  0.2195  0.0673  0.3984
   65SAPC    HS 5293   3.492   5.577   6.384 -2.7845  0.3411 -0.9498
   65SAPC   O21 5294   3.551   5.451   6.549  0.0016 -0.9194  0.6823
   65SAPC   C21 5295   3.602   5.558   6.611 -0.1938  0.3703 -1.1151
   65SAPC   O22 5296   3.608   5.672   6.570  1.2548  0.1572 -0.5775
   65SAPC   C22 5297   3.679   5.511   6.738  0.5683  0.3599  1.0199
   65SAPC   H2R 5298   3.648   5.406   6.758  1.7811 -0.3490 -0.6029
   65SAPC   H2S 5299   3.786   5.510   6.710  0.4428  1.7031  0.3662
   65SAPC    C3 5300   3.324   5.513   6.500  1.2752  0.2844  0.4227
   65SAPC    HX 5301   3.278   5.416   6.527  2.3896 -0.2500  0.4383
   65SAPC    HY 5302   3.259   5.549   6.417 -2.0478 -1.9779  1.8408
   65SAPC   O31 5303   3.324   5.599   6.621 -0.0548 -0.3088 -0.0544
   65SAPC   C31 5304   3.288   5.729   6.590  0.1336 -0.1517 -0.5794
   65SAPC   O32 5305   3.249   5.762   6.480 -0.3136  0.5066 -0.2491
   65SAPC   C32 5306   3.303   5.821   6.711  0.3077 -0.4480  1.0512
   65SAPC   H2X 5307   3.227   5.902   6.699 -0.8713 -1.8667 -1.8774
   65SAPC   H2Y 5308   3.406   5.863   6.708  0.2016 -0.2417 -0.7033
   65SAPC   C23 5309   3.652   5.602   6.862  0.0876  0.5962 -0.3191
   65SAPC   H3R 5310   3.569   5.560   6.923  0.6433 -0.2162 -0.0983
   65SAPC   H3S 5311   3.624   5.707   6.838 -2.1181  0.0913 -0.1767
   65SAPC   C24 5312   3.781   5.606   6.955  0.6094 -0.5905  0.8020
   65SAPC   H4R 5313   3.769   5.682   7.035  1.2232  1.5203 -1.0114
   65SAPC   H4S 5314   3.865   5.646   6.894  1.3502 -1.8176  0.9894
   65SAPC   C25 5315   3.822   5.475   6.999  0.1102  0.6798 -0.0693
   65SAPC   H5R 5316   3.860   5.410   6.919  0.5095  1.0704 -0.2045
   65SAPC   C26 5317   3.822   5.430   7.128 -0.0909 -0.5609 -0.7452
   65SAPC   H6R 5318   3.867   5.333   7.154 -0.4265 -1.1260 -2.1898
   65SAPC   C27 5319   3.781   5.508   7.249 -0.0859 -0.3140  0.0493
   65SAPC   H7R 5320   3.742   5.608   7.219  0.6173  0.3878  1.3675
   65SAPC   H7S 5321   3.874   5.528   7.306  0.1116 -0.6311 -0.1595
   65SAPC   C28 5322   3.675   5.451   7.334 -0.2471 -0.1488 -0.1217
   65SAPC   H8R 5323   3.619   5.372   7.282  3.0261 -0.9037 -2.8702
   65SAPC   C29 5324   3.631   5.497   7.457  0.1838  0.5386 -0.1024
   65SAPC   H9R 5325   3.563   5.433   7.516  1.1572 -0.6699 -0.2486
   65SAPC  C210 5326   3.715   5.598   7.537 -0.2393  0.4678 -0.2617
   65SAPC  H10R 5327   3.654   5.646   7.616  0.8825 -1.4535  1.9024
   65SAPC  H10S 5328   3.744   5.672   7.459 -0.4308 -2.5542 -3.4842
   65SAPC  C211 5329   3.845   5.545   7.596 -0.6550  0.0097  0.0574
   65SAPC  H11R 5330   3.934   5.575   7.539 -1.7062  1.3734 -0.9440
   65SAPC  C212 5331   3.850   5.472   7.708  0.2558  0.2482  0.1232
   65SAPC  H12R 5332   3.950   5.438   7.737 -0.4001 -1.7299  0.2312
   65SAPC  C213 5333   3.733   5.418   7.790 -0.0543  0.0944  0.0164
   65SAPC  H13R 5334   3.637   5.441   7.741 -0.5496  0.2842  1.0415
   65SAPC  H13S 5335   3.731   5.475   7.885  2.4520 -0.4635  0.4701
   65SAPC  C214 5336   3.733   5.267   7.817 -0.0672  0.0127  0.5009
   65SAPC  H14R 5337   3.697   5.212   7.728  0.4779 -1.9075  1.4146
   65SAPC  C215 5338   3.775   5.208   7.926 -0.4324 -0.1667 -0.0124
   65SAPC  H15R 5339   3.769   5.098   7.934 -0.2942 -0.1509  0.3109
   65SAPC  C216 5340   3.836   5.274   8.051 -0.1932 -0.4963  0.2466
   65SAPC  H16R 5341   3.782   5.368   8.077  0.0117  0.3941 -2.3128
   65SAPC  H16S 5342   3.938   5.305   8.021 -0.2401 -1.2867 -0.7552
   65SAPC  C217 5343   3.844   5.184   8.176  0.6186  0.3496 -0.7220
   65SAPC  H17R 5344   3.918   5.222   8.249  0.8525 -0.9062 -0.2842
   65SAPC  H17S 5345   3.898   5.088   8.159 -0.8841 -0.9213  1.1897
   65SAPC  C218 5346   3.719   5.167   8.251  0.5703 -0.0415 -0.0921
   65SAPC  H18R 5347   3.724   5.066   8.298  0.7066  0.5825  1.2629
   65SAPC  H18S 5348   3.628   5.145   8.190 -1.1439 -1.7972  2.8603
   65SAPC  C219 5349   3.680   5.276   8.350 -0.1027 -0.2219  0.3681
   65SAPC  H19R 5350   3.570   5.287   8.346  0.1383  2.6033 -1.2319
   65SAPC  H19S 5351   3.736   5.366   8.316  0.5606 -0.6617  0.2806
   65SAPC  C220 5352   3.721   5.256   8.495  0.7947 -0.4119 -0.9582
   65SAPC  H20R 5353   3.683   5.160   8.535 -0.5137  0.8124  0.9126
   65SAPC  H20S 5354   3.679   5.334   8.563  1.4188 -2.2084  1.6271
   65SAPC  H20T 5355   3.828   5.277   8.513  0.5721  1.9137 -1.9332
   65SAPC   C33 5356   3.292   5.744   6.842 -0.1966  1.2838  0.0513
   65SAPC   H3X 5357   3.367   5.662   6.835 -1.5319  0.0137 -0.0350
   65SAPC   H3Y 5358   3.193   5.694   6.850  1.5632 -2.7608 -0.9120
   65SAPC   C34 5359   3.307   5.838   6.967 -0.8410  0.8404  0.4206
   65SAPC   H4X 5360   3.214   5.896   6.949 -1.9683 -1.4419 -1.7762
   65SAPC   H4Y 5361   3.396   5.904   6.954  0.4400 -0.2931  2.8022
   65SAPC   C35 5362   3.312   5.764   7.102 -1.4443  0.2466  0.3892
   65SAPC   H5X 5363   3.392   5.686   7.103 -2.6915 -1.0809  1.3596
   65SAPC   H5Y 5364   3.218   5.705   7.114 -0.8821 -1.1892 -1.6895
   65SAPC   C36 5365   3.317   5.854   7.229  0.4229  0.1012  0.3408
   65SAPC   H6X 5366   3.220   5.908   7.229  0.0295 -0.5641  1.8448
   65SAPC   H6Y 5367   3.404   5.923   7.226 -0.0105  0.7731  2.1933
   65SAPC   C37 5368   3.340   5.775   7.363 -0.9091  0.7100 -0.0905
   65SAPC   H7X 5369   3.441   5.731   7.345 -1.8508 -0.4021 -3.3415
   65SAPC   H7Y 5370   3.264   5.695   7.359 -0.7362  0.5297  0.2159
   65SAPC   C38 5371   3.330   5.855   7.490 -0.4004 -0.3294 -0.3614
   65SAPC   H8X 5372   3.224   5.888   7.500 -0.6401 -1.5025  1.3090
   65SAPC   H8Y 5373   3.398   5.943   7.493  1.5238 -1.8050  1.3883
   65SAPC   C39 5374   3.351   5.781   7.623 -0.2667 -0.0248  0.5815
   65SAPC   H9X 5375   3.458   5.755   7.638 -0.9219 -1.4470  3.3792
   65SAPC   H9Y 5376   3.294   5.686   7.621  0.0954 -0.2778 -2.2594
   65SAPC  C310 5377   3.322   5.865   7.751  0.5025  0.1201 -0.2805
   65SAPC  H10X 5378   3.222   5.912   7.738  0.4438 -0.5612 -2.9610
   65SAPC  H10Y 5379   3.398   5.946   7.749 -1.2918  1.8679 -0.8770
   65SAPC  C311 5380   3.318   5.784   7.883 -0.2584 -0.1261  0.2868
   65SAPC  H11X 5381   3.247   5.700   7.872 -0.4902  0.2943 -1.8782
   65SAPC  H11Y 5382   3.281   5.849   7.965 -0.5403 -0.5583  0.5007
   65SAPC  C312 5383   3.457   5.717   7.905 -0.0081  0.1829 -0.1434
   65SAPC  H12X 5384   3.534   5.788   7.869 -0.0618  0.3517  0.0741
   65SAPC  H12Y 5385   3.465   5.627   7.840  1.4631 -0.6991  1.1614
   65SAPC  C313 5386   3.469   5.660   8.050 -0.3621  0.2916 -0.2247
   65SAPC  H13X 5387   3.558   5.593   8.055  0.3322  1.0888 -1.4498
   65SAPC  H13Y 5388   3.386   5.595   8.085  0.0788 -1.0767 -1.5993
   65SAPC  C314 5389   3.490   5.771   8.160  0.5122  0.6641  0.0018
   65SAPC  H14X 5390   3.398   5.830   8.180 -1.2877 -1.9949 -0.0789
   65SAPC  H14Y 5391   3.575   5.843   8.153  1.5962 -0.4647  1.1491
   65SAPC  C315 5392   3.510   5.696   8.292  0.1919  0.2702 -0.5446
   65SAPC  H15X 5393   3.603   5.635   8.291  2.2315  3.1528  1.1672
   65SAPC  H15Y 5394   3.435   5.617   8.312  0.6642 -0.1086 -0.2391
   65SAPC  C316 5395   3.520   5.780   8.420  0.8863  0.2906  0.3043
   65SAPC  H16X 5396   3.430   5.843   8.436  1.0794  0.7041 -0.2008
   65SAPC  H16Y 5397   3.612   5.841   8.401  0.3833  0.4711 -1.8401
   65SAPC  C317 5398   3.545   5.701   8.545  0.1740 -0.3425 -1.2172
   65SAPC  H17X 5399   3.621   5.627   8.512  2.7044  1.4857  0.1467
   65SAPC  H17Y 5400   3.449   5.665   8.589  1.1461  0.9146  2.3168
   65SAPC  C318 5401   3.593   5.791   8.662 -0.2674 -0.6436  0.7393
   65SAPC  H18X 5402   3.518   5.860   8.708  1.7494  1.2299  1.4047
   65SAPC  H18Y 5403   3.672   5.857   8.622 -1.0538  1.3363  2.2314
   65SAPC  H18Z 5404   3.634   5.732   8.747  0.1473 -1.6672 -0.1518
   66SAPC     N 5405   6.285   1.257   5.948 -0.6191  0.2143 -0.0475
   66SAPC   C12 5406   6.146   1.193   5.922 -0.1720 -0.1969  0.0268
   66SAPC  H12A 5407   6.138   1.181   5.815 -0.5660  1.7964 -0.2037
   66SAPC  H12B 5408   6.076   1.272   5.945  1.3402  1.1921  0.0304
   66SAPC   C13 5409   6.320   1.379   5.870  0.3454  0.6657  0.3672
   66SAPC  H13A 5410   6.297   1.370   5.764  2.7165  2.1703 -0.3548
   66SAPC  H13B 5411   6.271   1.472   5.897 -0.9189 -0.1279  0.8780
   66SAPC  H13C 5412   6.426   1.399   5.872  0.2406  1.8679 -2.0494
   66SAPC   C14 5413   6.296   1.283   6.093  0.0054 -0.4025  0.2158
   66SAPC  H14A 5414   6.401   1.291   6.119  0.2763 -0.7536 -0.7379
   66SAPC  H14B 5415   6.255   1.375   6.132  0.5842 -0.3230  0.6404
   66SAPC  H14C 5416   6.245   1.211   6.155  0.4304 -0.2957  0.6893
   66SAPC   C15 5417   6.389   1.156   5.923 -0.6672 -0.4336 -0.5936
   66SAPC  H15A 5418   6.488   1.189   5.951  0.7008 -3.1756 -1.7519
   66SAPC  H15B 5419   6.380   1.070   5.987 -1.6663  0.7093  0.8625
   66SAPC  H15C 5420   6.392   1.122   5.820 -2.1170  0.0654 -0.8187
   66SAPC   C11 5421   6.108   1.066   6.001  0.7380 -0.3456  0.0458
   66SAPC  H11A 5422   6.177   0.981   5.977  0.7902  0.4326 -2.8717
   66SAPC  H11B 5423   6.015   1.027   5.955  1.2439 -2.2907  0.5850
   66SAPC     P 5424   6.096   0.989   6.247 -0.2073 -0.1444 -0.1896
   66SAPC   O13 5425   5.993   0.899   6.204  0.3944  0.0258  0.5371
   66SAPC   O14 5426   6.232   0.936   6.250 -0.4278  0.1118 -0.0475
   66SAPC   O12 5427   6.082   1.103   6.137 -0.4808 -0.1045 -0.3109
   66SAPC   O11 5428   6.052   1.055   6.390 -0.2588  0.1528 -0.0403
   66SAPC    C1 5429   6.061   1.197   6.400 -0.2293  0.0329 -0.0315
   66SAPC    HA 5430   6.121   1.239   6.318 -1.0675 -0.6698 -1.0378
   66SAPC    HB 5431   5.956   1.232   6.387 -0.1931 -0.3085 -1.3759
   66SAPC    C2 5432   6.118   1.241   6.533 -0.3939  0.2167 -0.5709
   66SAPC    HS 5433   6.163   1.342   6.529  0.5212 -0.0787  1.4109
   66SAPC   O21 5434   6.210   1.147   6.595  0.1091  0.4963  0.1890
   66SAPC   C21 5435   6.322   1.132   6.525 -0.2579  0.3664  0.3045
   66SAPC   O22 5436   6.359   1.212   6.444  0.5177  0.0713  0.5059
   66SAPC   C22 5437   6.411   1.018   6.565  0.3687  0.9671  0.0250
   66SAPC   H2R 5438   6.377   0.936   6.498  0.7268  1.0137 -0.2145
   66SAPC   H2S 5439   6.513   1.048   6.533  0.7869 -1.3893 -1.0396
   66SAPC    C3 5440   6.001   1.262   6.639  0.0383 -0.5706 -0.4707
   66SAPC    HX 5441   5.926   1.182   6.626 -2.1811  1.0871  1.3767
   66SAPC    HY 5442   5.952   1.355   6.604 -0.6538 -1.4381 -1.8751
   66SAPC   O31 5443   6.041   1.266   6.780  0.4283  0.1731 -0.0313
   66SAPC   C31 5444   6.122   1.361   6.817 -0.0643  0.3135  0.0083
   66SAPC   O32 5445   6.160   1.450   6.744  0.1481  0.0786 -0.1560
   66SAPC   C32 5446   6.149   1.344   6.963 -0.0446 -0.1276 -0.2778
   66SAPC   H2X 5447   6.259   1.332   6.974 -0.1683 -0.0879  1.1179
   66SAPC   H2Y 5448   6.100   1.252   7.002  0.2038  0.3702  1.2735
   66SAPC   C23 5449   6.403   0.981   6.711  0.0527 -0.1340  0.9830
   66SAPC   H3R 5450   6.472   0.895   6.724  2.3768  1.4383 -0.3871
   66SAPC   H3S 5451   6.300   0.946   6.736 -0.1500 -0.2797 -0.0433
   66SAPC   C24 5452   6.456   1.084   6.811 -1.0373 -0.1871 -0.4436
   66SAPC   H4R 5453   6.481   1.027   6.903 -1.3292  1.2799  0.5907
   66SAPC   H4S 5454   6.368   1.150   6.827 -0.8728 -0.3867  1.5202
   66SAPC   C25 5455   6.581   1.162   6.760  0.1627  0.5996 -0.2026
   66SAPC   H5R 5456   6.657   1.091   6.724 -1.0678 -0.5044 -0.7154
   66SAPC   C26 5457   6.590   1.290   6.738  0.6524 -0.2930  0.5433
   66SAPC   H6R 5458   6.681   1.331   6.691 -0.5214  0.4320 -1.1701
   66SAPC   C27 5459   6.489   1.398   6.769 -0.5989  0.1671  0.5378
   66SAPC   H7R 5460   6.485   1.393   6.880 -1.9520 -1.5845  0.4472
   66SAPC   H7S 5461   6.394   1.352   6.734  0.0741 -1.5220  0.8746
   66SAPC   C28 5462   6.503   1.537   6.720  0.0266 -0.8375 -0.4767
   66SAPC   H8R 5463   6.523   1.540   6.612  0.2468 -1.8652 -0.4704
   66SAPC   C29 5464   6.479   1.648   6.791  0.0536  0.4739 -0.4282
   66SAPC   H9R 5465   6.489   1.743   6.737 -1.4065 -0.6034 -2.7321
   66SAPC  C210 5466   6.442   1.667   6.941  0.1159  0.0802  0.6073
   66SAPC  H10R 5467   6.521   1.623   7.005  2.2467  2.0590 -0.5530
   66SAPC  H10S 5468   6.344   1.617   6.957  0.3562 -0.2869  0.9456
   66SAPC  C211 5469   6.430   1.809   6.978  0.2947 -0.3799  0.9658
   66SAPC  H11R 5470   6.385   1.875   6.902 -0.5981 -0.5718  1.3113
   66SAPC  C212 5471   6.458   1.859   7.099  0.6375  0.2049 -0.5853
   66SAPC  H12R 5472   6.462   1.968   7.119  1.2166  0.0584  0.1381
   66SAPC  C213 5473   6.510   1.772   7.213  0.0024 -0.5244 -0.4971
   66SAPC  H13R 5474   6.621   1.772   7.206  0.0278 -0.1188 -0.1328
   66SAPC  H13S 5475   6.472   1.668   7.209 -2.2086  0.1191  1.7844
   66SAPC  C214 5476   6.456   1.833   7.340 -0.9730  0.4489 -0.5217
   66SAPC  H14R 5477   6.456   1.943   7.343  1.7913  0.5086  1.5173
   66SAPC  C215 5478   6.411   1.775   7.453 -0.3513  0.4019  0.3106
   66SAPC  H15R 5479   6.372   1.838   7.534 -0.2915  0.2724  0.4420
   66SAPC  C216 5480   6.401   1.632   7.486  0.0452 -0.0953 -0.0842
   66SAPC  H16R 5481   6.395   1.567   7.396  3.0822  0.9799 -1.1657
   66SAPC  H16S 5482   6.307   1.613   7.543  0.2585 -1.2374 -0.0751
   66SAPC  C217 5483   6.515   1.571   7.572 -0.3298  0.1649 -0.0592
   66SAPC  H17R 5484   6.504   1.461   7.565 -1.5126  0.0717  2.2111
   66SAPC  H17S 5485   6.510   1.611   7.676  0.2174 -2.0431  0.8863
   66SAPC  C218 5486   6.654   1.602   7.509 -0.3370 -0.1553  0.3410
   66SAPC  H18R 5487   6.660   1.711   7.528 -1.5829 -0.4262  2.6845
   66SAPC  H18S 5488   6.635   1.578   7.402  0.4553  2.7421 -0.5440
   66SAPC  C219 5489   6.775   1.529   7.570  0.0755  0.4662  0.3774
   66SAPC  H19R 5490   6.743   1.425   7.593 -1.2575  0.2081 -2.2246
   66SAPC  H19S 5491   6.809   1.577   7.664  1.0193 -0.5897  0.6068
   66SAPC  C220 5492   6.900   1.527   7.477 -0.1015 -0.0738  0.3807
   66SAPC  H20R 5493   6.908   1.628   7.433  2.0892  0.6590  2.2431
   66SAPC  H20S 5494   6.886   1.452   7.396  0.3521 -1.0411  1.1658
   66SAPC  H20T 5495   7.001   1.508   7.520 -0.9952 -2.7396  1.5419
   66SAPC   C33 5496   6.114   1.466   7.043  0.0319 -0.1317  0.4074
   66SAPC   H3X 5497   6.012   1.496   7.012 -0.6027 -2.0319  0.5025
   66SAPC   H3Y 5498   6.182   1.548   7.012  0.4450 -0.5154  0.2861
   66SAPC   C34 5499   6.120   1.447   7.192  0.8364 -0.3804  0.4075
   66SAPC   H4X 5500   6.219   1.405   7.220  0.3255 -2.4052 -0.6616
   66SAPC   H4Y 5501   6.035   1.381   7.218  0.8660 -0.1885  1.0245
   66SAPC   C35 5502   6.100   1.582   7.253 -0.4255  0.4292  0.0889
   66SAPC   H5X 5503   6.010   1.631   7.208  0.0087  0.5263 -0.6791
   66SAPC   H5Y 5504   6.181   1.658   7.251 -0.4797  0.5256  0.9211
   66SAPC   C36 5505   6.059   1.545   7.398  0.2910  0.4075  0.4323
   66SAPC   H6X 5506   6.147   1.501   7.450 -0.4459  1.3982  2.6453
   66SAPC   H6Y 5507   5.973   1.474   7.389 -0.3609  1.4121 -1.7118
   66SAPC   C37 5508   6.002   1.662   7.483 -0.0676 -0.8917 -0.4738
   66SAPC   H7X 5509   5.911   1.709   7.441  0.5758  0.9424  0.0914
   66SAPC   H7Y 5510   6.075   1.746   7.482 -1.2455  0.2436  1.7772
   66SAPC   C38 5511   5.981   1.627   7.626  0.1111 -0.0490 -0.2576
   66SAPC   H8X 5512   6.076   1.579   7.656 -0.5838 -0.1344  2.0393
   66SAPC   H8Y 5513   5.895   1.557   7.635 -0.8187  1.0879  0.0058
   66SAPC   C39 5514   5.957   1.756   7.713 -0.2069  0.0432  0.0174
   66SAPC   H9X 5515   5.857   1.798   7.693 -0.7604 -2.1314 -2.5208
   66SAPC   H9Y 5516   6.035   1.828   7.682  2.5016 -2.3113  0.8958
   66SAPC  C310 5517   5.974   1.710   7.862 -0.7131 -0.1089 -0.0536
   66SAPC  H10X 5518   6.071   1.660   7.881 -1.0053 -0.5932  0.1654
   66SAPC  H10Y 5519   5.896   1.633   7.880 -0.2767 -0.1203  2.0158
   66SAPC  C311 5520   5.974   1.820   7.969  0.2358  0.0581 -0.0159
   66SAPC  H11X 5521   5.885   1.885   7.959 -1.6277 -2.3209  0.2553
   66SAPC  H11Y 5522   6.069   1.877   7.968 -0.0245  0.5232 -2.2125
   66SAPC  C312 5523   5.959   1.760   8.111  0.2931  0.1156 -0.6492
   66SAPC  H12X 5524   6.041   1.688   8.136  0.2950  0.4971  0.4765
   66SAPC  H12Y 5525   5.862   1.706   8.114  0.0608  0.5194 -0.8085
   66SAPC  C313 5526   5.953   1.866   8.228 -0.6638 -0.2074  0.6601
   66SAPC  H13X 5527   5.930   1.803   8.317 -1.6118  0.4022  0.8600
   66SAPC  H13Y 5528   5.877   1.945   8.210  0.8831  1.8329  2.5644
   66SAPC  C314 5529   6.092   1.943   8.251  0.6906  0.3160  0.2517
   66SAPC  H14X 5530   6.102   2.031   8.183 -1.6883  0.3598 -0.1465
   66SAPC  H14Y 5531   6.174   1.873   8.226 -0.3180 -0.4784 -1.0359
   66SAPC  C315 5532   6.113   1.985   8.393 -0.0732 -0.5337  0.1843
   66SAPC  H15X 5533   6.108   1.895   8.458  1.4570 -1.5793 -1.0624
   66SAPC  H15Y 5534   6.030   2.056   8.413 -1.5818 -0.6718 -4.5141
   66SAPC  C316 5535   6.238   2.059   8.406  0.1494  0.1293  0.4954
   66SAPC  H16X 5536   6.223   2.160   8.361 -1.3620 -0.5531 -0.6131
   66SAPC  H16Y 5537   6.308   2.005   8.339  3.4665  3.7512  0.7135
   66SAPC  C317 5538   6.290   2.084   8.550  0.5530  0.1056 -0.4509
   66SAPC  H17X 5539   6.296   1.988   8.608 -2.3525  0.0406 -0.1365
   66SAPC  H17Y 5540   6.216   2.150   8.600  1.3162  0.5586  0.1028
   66SAPC  C318 5541   6.431   2.141   8.552 -0.1240  0.5495 -0.5637
   66SAPC  H18X 5542   6.425   2.246   8.518  0.8645  1.3121  1.4741
   66SAPC  H18Y 5543   6.506   2.085   8.494  0.3420 -2.2281  2.4288
   66SAPC  H18Z 5544   6.467   2.131   8.656  2.7430  0.0880 -1.5288
   67SAPC     N 5545   2.886   1.053   6.275 -0.2636  0.7967 -0.0309
   67SAPC   C12 5546   2.787   1.171   6.286 -0.1504 -0.1642  0.2906
   67SAPC  H12A 5547   2.815   1.237   6.367 -0.4303  0.4913 -0.1361
   67SAPC  H12B 5548   2.690   1.135   6.314  0.3257 -0.5914  1.4386
   67SAPC   C13 5549   3.023   1.103   6.295  0.2728  0.2135 -0.7277
   67SAPC  H13A 5550   3.044   1.119   6.399  0.1433 -0.7070 -0.5487
   67SAPC  H13B 5551   3.107   1.046   6.257  1.0534  0.4245  0.6262
   67SAPC  H13C 5552   3.029   1.201   6.250  0.1470  0.0639 -1.0737
   67SAPC   C14 5553   2.857   0.966   6.393 -0.5745  0.1512  0.4721
   67SAPC  H14A 5554   2.755   0.931   6.387 -1.3634  1.8530  2.4834
   67SAPC  H14B 5555   2.934   0.892   6.402 -0.5614  0.1161  0.0871
   67SAPC  H14C 5556   2.864   1.022   6.485  2.4140  0.2547  0.2610
   67SAPC   C15 5557   2.868   0.984   6.145 -0.1794  0.5806  0.8346
   67SAPC  H15A 5558   2.881   1.061   6.070  1.4658  0.6250  1.1157
   67SAPC  H15B 5559   2.944   0.907   6.138 -0.4564  0.1027  2.5794
   67SAPC  H15C 5560   2.771   0.936   6.148  0.5991 -1.0693  0.9373
   67SAPC   C11 5561   2.775   1.273   6.169  0.3009  0.6298  0.0641
   67SAPC  H11A 5562   2.694   1.343   6.197  0.4940  0.9093 -0.0648
   67SAPC  H11B 5563   2.726   1.215   6.088 -0.4275  1.5734 -0.1772
   67SAPC     P 5564   2.948   1.455   6.202 -0.0535  0.1620 -0.5499
   67SAPC   O13 5565   3.089   1.453   6.164 -0.0827 -0.2428  0.1976
   67SAPC   O14 5566   2.864   1.571   6.175  0.3732 -0.6136  0.0615
   67SAPC   O12 5567   2.898   1.335   6.124 -0.2365  0.0369  0.2490
   67SAPC   O11 5568   2.935   1.404   6.343  0.3113 -0.1692 -0.5879
   67SAPC    C1 5569   3.023   1.441   6.456 -0.0242  0.5272  0.6358
   67SAPC    HA 5570   3.093   1.357   6.477 -0.1880  0.3473  0.4764
   67SAPC    HB 5571   3.088   1.527   6.431  1.1520 -0.4521  0.2157
   67SAPC    C2 5572   2.955   1.461   6.586  0.2353  0.2951 -0.2778
   67SAPC    HS 5573   3.038   1.504   6.646  0.9955 -0.4214 -0.7807
   67SAPC   O21 5574   2.913   1.327   6.626 -0.0681  0.1109 -0.4216
   67SAPC   C21 5575   2.917   1.312   6.759  0.3808  0.1150 -0.1398
   67SAPC   O22 5576   2.963   1.389   6.840 -0.2215 -0.9112 -0.0960
   67SAPC   C22 5577   2.852   1.175   6.800 -0.5938  0.0418 -0.2488
   67SAPC   H2R 5578   2.783   1.133   6.723  1.2874 -1.6015 -1.1268
   67SAPC   H2S 5579   2.944   1.113   6.804 -1.8398 -1.8378  0.5321
   67SAPC    C3 5580   2.844   1.566   6.580 -0.2625  0.0850 -0.7605
   67SAPC    HX 5581   2.750   1.529   6.535  0.4007 -1.6407 -0.7899
   67SAPC    HY 5582   2.874   1.649   6.513 -1.9638  2.2808  1.0153
   67SAPC   O31 5583   2.816   1.602   6.714  0.0531  0.3570  0.1336
   67SAPC   C31 5584   2.906   1.686   6.777  0.0230  0.0029  0.0704
   67SAPC   O32 5585   3.007   1.734   6.725  0.6565  0.2392  0.1784
   67SAPC   C32 5586   2.841   1.718   6.915 -0.6242 -0.3373  0.2138
   67SAPC   H2X 5587   2.857   1.624   6.972 -0.0686 -0.2523  0.2101
   67SAPC   H2Y 5588   2.734   1.737   6.894  0.2480  2.3164 -2.4938
   67SAPC   C23 5589   2.786   1.173   6.934 -0.2575  0.3521 -0.5166
   67SAPC   H3R 5590   2.682   1.211   6.943  0.6463  2.4220  4.9330
   67SAPC   H3S 5591   2.844   1.237   7.003  0.7106 -2.2383  1.2599
   67SAPC   C24 5592   2.785   1.022   6.972 -0.8940 -0.4078 -0.5136
   67SAPC   H4R 5593   2.812   1.022   7.080  0.8841  0.5907 -0.9083
   67SAPC   H4S 5594   2.876   0.976   6.929  0.7558  0.1009  2.1701
   67SAPC   C25 5595   2.657   0.968   6.929 -0.1608 -0.5567  0.5054
   67SAPC   H5R 5596   2.643   0.976   6.820 -0.6774 -1.2826  0.5110
   67SAPC   C26 5597   2.574   0.889   6.998  0.2583 -0.2609 -0.3391
   67SAPC   H6R 5598   2.485   0.848   6.948  0.8198 -0.7139 -0.9721
   67SAPC   C27 5599   2.586   0.849   7.142 -0.2743 -0.2736 -0.7934
   67SAPC   H7R 5600   2.688   0.850   7.187 -0.7965 -1.0893  0.4762
   67SAPC   H7S 5601   2.559   0.741   7.146 -0.1810 -0.2623  0.8113
   67SAPC   C28 5602   2.491   0.929   7.236 -0.2659  1.0578  0.0299
   67SAPC   H8R 5603   2.430   1.009   7.191  1.8681  1.2887 -2.7594
   67SAPC   C29 5604   2.491   0.918   7.373  0.0662 -0.1741  0.2347
   67SAPC   H9R 5605   2.413   0.967   7.433  0.7269 -0.3111  1.2145
   67SAPC  C210 5606   2.587   0.839   7.461  0.0018  0.2146  0.5194
   67SAPC  H10R 5607   2.629   0.755   7.402  1.2640  0.3474  1.1861
   67SAPC  H10S 5608   2.530   0.796   7.546  0.9995  0.8932  1.5809
   67SAPC  C211 5609   2.689   0.934   7.517  0.3200  1.2657  0.3139
   67SAPC  H11R 5610   2.747   0.993   7.445  1.7320 -0.7366 -0.2712
   67SAPC  C212 5611   2.726   0.962   7.645 -1.1094 -0.3403 -0.3922
   67SAPC  H12R 5612   2.801   1.042   7.655  0.6002 -1.5241 -2.6537
   67SAPC  C213 5613   2.669   0.900   7.772  0.3949 -0.3856 -0.5930
   67SAPC  H13R 5614   2.738   0.858   7.849 -0.3009 -1.4454 -0.5255
   67SAPC  H13S 5615   2.622   0.805   7.740  0.7608 -0.3531 -1.2430
   67SAPC  C214 5616   2.565   0.997   7.833 -0.5982  0.2439 -0.7562
   67SAPC  H14R 5617   2.504   1.054   7.761 -0.1090  0.6718 -0.8331
   67SAPC  C215 5618   2.534   1.009   7.964  0.1502 -0.5004  0.8306
   67SAPC  H15R 5619   2.455   1.083   7.982 -0.7191 -0.8998 -1.1161
   67SAPC  C216 5620   2.605   0.933   8.074 -0.0662  0.0630 -0.8761
   67SAPC  H16R 5621   2.693   0.874   8.043 -0.1648 -1.8785  2.1619
   67SAPC  H16S 5622   2.532   0.858   8.111 -1.2453  1.7098  0.2781
   67SAPC  C217 5623   2.654   1.022   8.190  0.0108 -0.3624 -0.2097
   67SAPC  H17R 5624   2.680   0.953   8.274 -2.0684 -3.4758 -1.9379
   67SAPC  H17S 5625   2.566   1.082   8.219  0.2464  0.2960 -0.8527
   67SAPC  C218 5626   2.767   1.119   8.146 -0.9442 -0.2211 -0.1501
   67SAPC  H18R 5627   2.734   1.193   8.069  0.7543  0.1040 -0.6018
   67SAPC  H18S 5628   2.851   1.067   8.095 -0.2229  0.7474  0.0309
   67SAPC  C219 5629   2.812   1.203   8.265 -0.2263 -0.5510  0.7984
   67SAPC  H19R 5630   2.815   1.141   8.357 -0.5507 -3.3687 -0.9768
   67SAPC  H19S 5631   2.729   1.273   8.289 -3.0840 -3.4767  0.2452
   67SAPC  C220 5632   2.935   1.291   8.239 -0.3946 -0.0682 -0.3570
   67SAPC  H20R 5633   2.918   1.352   8.147  3.5971 -1.1771 -2.0403
   67SAPC  H20S 5634   3.020   1.223   8.219  0.6436  0.6991  1.2233
   67SAPC  H20T 5635   2.973   1.353   8.324  0.8771 -0.1171 -0.8690
   67SAPC   C33 5636   2.903   1.846   6.993 -1.0869  0.1690  0.6706
   67SAPC   H3X 5637   2.911   1.930   6.921  1.8678 -0.5031  0.1060
   67SAPC   H3Y 5638   2.999   1.807   7.031 -0.5447  0.2746 -0.5415
   67SAPC   C34 5639   2.826   1.869   7.121 -0.3622  0.9690  0.2445
   67SAPC   H4X 5640   2.723   1.882   7.081  0.3401  0.9155 -1.7005
   67SAPC   H4Y 5641   2.868   1.964   7.159  1.7800  0.3720 -0.5108
   67SAPC   C35 5642   2.843   1.759   7.232 -0.0273 -0.1865 -0.7853
   67SAPC   H5X 5643   2.951   1.740   7.253  0.1111 -1.1723 -2.2550
   67SAPC   H5Y 5644   2.809   1.659   7.196 -0.2132 -1.2694  2.0864
   67SAPC   C36 5645   2.747   1.786   7.351  0.0487  0.4298 -0.7025
   67SAPC   H6X 5646   2.768   1.720   7.439 -0.0389  0.8316 -0.3765
   67SAPC   H6Y 5647   2.641   1.764   7.325 -1.5201 -0.0470  4.8184
   67SAPC   C37 5648   2.759   1.927   7.411  0.4149 -0.6631 -0.3214
   67SAPC   H7X 5649   2.718   2.015   7.357  0.7239  0.5542  1.3865
   67SAPC   H7Y 5650   2.866   1.954   7.421 -0.3555  2.3453  0.7117
   67SAPC   C38 5651   2.707   1.918   7.554 -0.2447 -0.3379  0.3959
   67SAPC   H8X 5652   2.742   1.822   7.599  1.3960  0.5345  1.0385
   67SAPC   H8Y 5653   2.598   1.898   7.545 -0.4774 -0.3944  2.7517
   67SAPC   C39 5654   2.731   2.038   7.651  0.4746  0.1593 -0.0118
   67SAPC   H9X 5655   2.658   2.039   7.734 -0.9923 -1.1061 -1.2356
   67SAPC   H9Y 5656   2.709   2.129   7.591 -3.7561 -1.2286 -0.8691
   67SAPC  C310 5657   2.875   2.054   7.712 -0.1218  0.5904 -0.2193
   67SAPC  H10X 5658   2.954   2.070   7.636  2.3086  0.4141  2.1311
   67SAPC  H10Y 5659   2.908   1.961   7.764  0.2857  1.3114  0.8508
   67SAPC  C311 5660   2.862   2.172   7.811  0.2779  0.3589 -0.0837
   67SAPC  H11X 5661   2.766   2.157   7.866 -0.5274 -0.0235 -1.5349
   67SAPC  H11Y 5662   2.835   2.262   7.752 -3.4230 -0.4017  0.2054
   67SAPC  C312 5663   2.988   2.175   7.898  0.5197 -0.5674  0.1197
   67SAPC  H12X 5664   3.072   2.194   7.827 -0.3322  2.5102 -0.2155
   67SAPC  H12Y 5665   3.004   2.072   7.937 -0.1523 -0.3482  1.0012
   67SAPC  C313 5666   2.973   2.266   8.020  0.1007 -0.7498  0.2718
   67SAPC  H13X 5667   2.876   2.252   8.073  0.1205  2.1656  1.2841
   67SAPC  H13Y 5668   2.983   2.368   7.977 -1.9751 -1.4610 -2.1658
   67SAPC  C314 5669   3.096   2.243   8.111 -0.4065  0.5356 -0.1202
   67SAPC  H14X 5670   3.124   2.138   8.132  0.2469  1.0142  1.5687
   67SAPC  H14Y 5671   3.074   2.288   8.210  0.6298 -1.5117  1.1068
   67SAPC  C315 5672   3.219   2.324   8.057  0.2784  0.2256 -0.1680
   67SAPC  H15X 5673   3.185   2.430   8.054  1.1650  0.5039 -0.6948
   67SAPC  H15Y 5674   3.257   2.269   7.968  0.0480 -0.9183  0.4287
   67SAPC  C316 5675   3.332   2.312   8.166  0.0732 -0.6733  0.1798
   67SAPC  H16X 5676   3.352   2.215   8.215 -0.1172  0.3985  2.5312
   67SAPC  H16Y 5677   3.313   2.382   8.250 -0.3713 -2.6376  1.7906
   67SAPC  C317 5678   3.473   2.349   8.104 -0.2278  0.4204 -0.3601
   67SAPC  H17X 5679   3.541   2.350   8.193 -0.9990  4.6578  0.3809
   67SAPC  H17Y 5680   3.476   2.452   8.065  0.2912  0.7619  0.5479
   67SAPC  C318 5681   3.544   2.275   7.995 -0.3012 -0.2000 -0.1508
   67SAPC  H18X 5682   3.650   2.307   7.985 -0.1602 -0.3243  0.8501
   67SAPC  H18Y 5683   3.498   2.292   7.896 -2.5715 -1.6662  0.5730
   67SAPC  H18Z 5684   3.538   2.165   8.007 -2.0677 -0.2802 -1.4321
   68SAPC     N 5685   2.314   5.195   5.960  0.1445  0.1172 -0.3593
   68SAPC   C12 5686   2.266   5.048   5.999 -0.0455  0.8268 -0.3550
   68SAPC  H12A 5687   2.172   5.040   5.947 -0.4581  0.3092  0.4353
   68SAPC  H12B 5688   2.262   5.043   6.107  2.4651  0.4501 -0.2069
   68SAPC   C13 5689   2.425   5.229   6.050 -0.6097 -0.1316  0.0126
   68SAPC  H13A 5690   2.493   5.146   6.055 -1.7941 -1.2658 -1.4752
   68SAPC  H13B 5691   2.479   5.321   6.032 -0.6142 -0.0002  0.6344
   68SAPC  H13C 5692   2.391   5.229   6.153 -0.6675  1.8607  0.0352
   68SAPC   C14 5693   2.363   5.211   5.823  0.2503 -0.0750 -0.1912
   68SAPC  H14A 5694   2.400   5.310   5.803 -3.2007  1.2340 -0.5924
   68SAPC  H14B 5695   2.438   5.141   5.789  0.7028  0.9057 -1.2820
   68SAPC  H14C 5696   2.281   5.197   5.755  0.3101 -3.9999  0.2933
   68SAPC   C15 5697   2.204   5.291   5.983  0.4220 -0.2383 -0.1967
   68SAPC  H15A 5698   2.114   5.273   5.926 -0.9629 -0.4351  1.9352
   68SAPC  H15B 5699   2.164   5.294   6.084  2.7457  2.3021  0.7790
   68SAPC  H15C 5700   2.239   5.392   5.966 -0.3715  0.0281 -0.3068
   68SAPC   C11 5701   2.361   4.934   5.966 -0.3752  0.0717 -0.3357
   68SAPC  H11A 5702   2.387   4.949   5.859  1.3044  0.6965  0.1231
   68SAPC  H11B 5703   2.310   4.836   5.977 -1.6073  0.7153 -0.1701
   68SAPC     P 5704   2.472   4.907   6.202  0.1736  0.1474  0.1411
   68SAPC   O13 5705   2.614   4.908   6.254  0.2372  0.2828  0.7037
   68SAPC   O14 5706   2.380   5.002   6.267  0.5137 -0.4329 -0.2337
   68SAPC   O12 5707   2.482   4.944   6.046 -0.8835 -0.8697 -0.1699
   68SAPC   O11 5708   2.426   4.752   6.197  0.2756 -0.0045  0.1708
   68SAPC    C1 5709   2.309   4.708   6.279  0.1811 -0.6502  0.6237
   68SAPC    HA 5710   2.243   4.797   6.288  3.9211  2.6338 -1.5535
   68SAPC    HB 5711   2.257   4.624   6.228 -0.0449  0.3672 -0.8725
   68SAPC    C2 5712   2.350   4.660   6.419 -0.2358 -0.5217 -0.1474
   68SAPC    HS 5713   2.266   4.625   6.483  2.4829 -0.9543  3.5461
   68SAPC   O21 5714   2.420   4.767   6.493  0.6264  0.5232  0.1894
   68SAPC   C21 5715   2.338   4.852   6.558 -0.5000 -0.6356 -0.7512
   68SAPC   O22 5716   2.215   4.849   6.547  0.2265 -0.4298  0.1606
   68SAPC   C22 5717   2.413   4.941   6.659  0.0125 -0.2754  0.0524
   68SAPC   H2R 5718   2.510   4.893   6.683  1.0303  1.2484 -0.8363
   68SAPC   H2S 5719   2.442   5.034   6.605 -4.1731 -0.1263 -2.3967
   68SAPC    C3 5720   2.447   4.540   6.426  0.3356  0.1298  0.5631
   68SAPC    HX 5721   2.541   4.573   6.376  0.5699  0.1749  1.0319
   68SAPC    HY 5722   2.405   4.446   6.385 -0.2925  0.5027  0.3290
   68SAPC   O31 5723   2.475   4.511   6.565  0.3962 -0.4455 -0.1819
   68SAPC   C31 5724   2.585   4.545   6.624 -0.6139 -1.2196 -0.6279
   68SAPC   O32 5725   2.679   4.601   6.565  0.2303 -0.0272 -0.2782
   68SAPC   C32 5726   2.598   4.489   6.768 -0.4398  0.2847 -0.0127
   68SAPC   H2X 5727   2.632   4.385   6.753 -0.8900 -0.1720  1.8080
   68SAPC   H2Y 5728   2.490   4.488   6.797 -0.3253  0.2941  0.4262
   68SAPC   C23 5729   2.345   4.993   6.784 -0.1426  0.0891 -0.7174
   68SAPC   H3R 5730   2.237   5.002   6.760  0.0142 -0.3722 -1.6187
   68SAPC   H3S 5731   2.389   5.088   6.821  0.6045 -0.5419  0.0515
   68SAPC   C24 5732   2.353   4.892   6.903  0.5429 -0.2195 -0.0771
   68SAPC   H4R 5733   2.460   4.864   6.905  0.4117 -1.3355 -3.1030
   68SAPC   H4S 5734   2.299   4.801   6.867 -0.4656  0.7058 -0.9535
   68SAPC   C25 5735   2.287   4.932   7.032 -0.1763 -0.0954 -0.3143
   68SAPC   H5R 5736   2.188   4.979   7.022 -0.9822 -1.9393 -1.3351
   68SAPC   C26 5737   2.342   4.919   7.156 -0.0465 -0.9603  0.1508
   68SAPC   H6R 5738   2.278   4.935   7.243  0.9017  1.5110  0.4799
   68SAPC   C27 5739   2.473   4.862   7.190  0.4850 -0.2000  0.4633
   68SAPC   H7R 5740   2.506   4.882   7.294 -1.0981  2.6767  0.5015
   68SAPC   H7S 5741   2.560   4.894   7.129  1.1266 -0.5400  1.1737
   68SAPC   C28 5742   2.471   4.713   7.174 -0.1222  0.2286 -0.8059
   68SAPC   H8R 5743   2.441   4.673   7.076 -0.4619  0.6551 -0.8828
   68SAPC   C29 5744   2.497   4.623   7.269  0.1604  0.3135 -1.1983
   68SAPC   H9R 5745   2.506   4.520   7.230 -0.4666 -1.3599  2.6686
   68SAPC  C210 5746   2.537   4.639   7.416  0.1255  0.1492  0.3827
   68SAPC  H10R 5747   2.521   4.547   7.477  1.3646 -0.1499  0.2869
   68SAPC  H10S 5748   2.464   4.705   7.469  1.6383  1.7043  0.6106
   68SAPC  C211 5749   2.672   4.693   7.451 -0.1571 -0.2026  0.1669
   68SAPC  H11R 5750   2.740   4.724   7.371  1.0070  1.8216  1.8423
   68SAPC  C212 5751   2.710   4.719   7.579 -0.1094 -0.0048  0.1058
   68SAPC  H12R 5752   2.816   4.748   7.589  0.4426 -1.8565  0.0046
   68SAPC  C213 5753   2.634   4.677   7.703 -0.6631  0.0016 -0.4573
   68SAPC  H13R 5754   2.571   4.588   7.680 -1.3661  0.3059  0.2432
   68SAPC  H13S 5755   2.558   4.753   7.729 -1.6004 -0.5485 -1.4850
   68SAPC  C214 5756   2.724   4.643   7.819 -0.0790 -0.5945 -0.5956
   68SAPC  H14R 5757   2.818   4.592   7.793  1.1326  0.8087  0.8776
   68SAPC  C215 5758   2.697   4.670   7.946 -0.1227 -0.1239  0.4352
   68SAPC  H15R 5759   2.767   4.632   8.022  0.5911  0.0595 -0.1212
   68SAPC  C216 5760   2.580   4.753   7.999 -0.5185  0.3314 -0.5530
   68SAPC  H16R 5761   2.509   4.783   7.919 -1.5644 -0.6072  0.0045
   68SAPC  H16S 5762   2.623   4.844   8.047 -0.6981 -0.0683  0.3755
   68SAPC  C217 5763   2.486   4.686   8.100 -0.0257 -0.3475 -0.4037
   68SAPC  H17R 5764   2.435   4.593   8.066  0.8055 -0.7979 -0.4498
   68SAPC  H17S 5765   2.404   4.757   8.122  0.9494  0.4425  0.8342
   68SAPC  C218 5766   2.550   4.644   8.235 -0.0386  0.7338  0.9746
   68SAPC  H18R 5767   2.587   4.738   8.281 -0.3357  0.3541  2.0044
   68SAPC  H18S 5768   2.644   4.590   8.209 -0.3652  1.2022 -1.3555
   68SAPC  C219 5769   2.448   4.570   8.327  0.1941 -0.8708 -0.1640
   68SAPC  H19R 5770   2.418   4.472   8.285  2.6653 -1.7709 -0.0131
   68SAPC  H19S 5771   2.358   4.634   8.336  1.4406  1.1906 -1.5408
   68SAPC  C220 5772   2.502   4.555   8.474 -0.6144 -0.5014  0.5860
   68SAPC  H20R 5773   2.423   4.524   8.546  0.5151 -2.4082  1.0767
   68SAPC  H20S 5774   2.548   4.651   8.506  0.7265 -1.4236  1.5086
   68SAPC  H20T 5775   2.576   4.472   8.476  0.2441  0.2186 -0.2874
   68SAPC   C33 5776   2.671   4.573   6.858  0.0623  0.3427 -0.2045
   68SAPC   H3X 5777   2.622   4.671   6.878 -0.4181 -0.2440  1.6470
   68SAPC   H3Y 5778   2.774   4.593   6.821 -0.5108  3.6126 -0.3297
   68SAPC   C34 5779   2.704   4.513   6.997 -0.0809  0.5486  0.1223
   68SAPC   H4X 5780   2.609   4.467   7.033 -0.7337  0.7234 -1.2898
   68SAPC   H4Y 5781   2.718   4.599   7.066 -0.6754  1.5894 -0.9934
   68SAPC   C35 5782   2.812   4.404   7.014  0.7577  0.5902 -0.0090
   68SAPC   H5X 5783   2.910   4.438   6.975  1.9662 -0.4543  1.9457
   68SAPC   H5Y 5784   2.779   4.309   6.968 -0.8898  1.4702 -0.7128
   68SAPC   C36 5785   2.829   4.371   7.168 -0.1447 -0.3017 -0.5555
   68SAPC   H6X 5786   2.775   4.458   7.210  0.8756  0.1803 -0.1952
   68SAPC   H6Y 5787   2.937   4.365   7.196 -0.2642  0.0361  0.0005
   68SAPC   C37 5788   2.763   4.241   7.214  0.2241  0.2628 -0.6168
   68SAPC   H7X 5789   2.804   4.150   7.165  0.2096 -1.6795  2.6454
   68SAPC   H7Y 5790   2.655   4.241   7.190  0.2584 -0.3725 -0.8012
   68SAPC   C38 5791   2.767   4.207   7.365  0.1760 -0.6005 -0.1414
   68SAPC   H8X 5792   2.867   4.168   7.393  0.0602 -0.5394  0.3704
   68SAPC   H8Y 5793   2.688   4.136   7.397 -0.3703  0.1037  0.1072
   68SAPC   C39 5794   2.756   4.330   7.454 -0.6198 -0.2598 -0.0639
   68SAPC   H9X 5795   2.663   4.384   7.427 -0.4582  0.0421 -0.0276
   68SAPC   H9Y 5796   2.839   4.402   7.434  1.4297 -1.9980  1.6449
   68SAPC  C310 5797   2.776   4.301   7.606  0.8728  0.4938 -0.6651
   68SAPC  H10X 5798   2.794   4.397   7.659  2.1881  1.0768 -2.0723
   68SAPC  H10Y 5799   2.876   4.254   7.620  1.3717  1.7582  0.3398
   68SAPC  C311 5800   2.660   4.214   7.658  0.1118 -0.5059 -0.5634
   68SAPC  H11X 5801   2.669   4.105   7.637 -0.2096 -0.4533 -1.0014
   68SAPC  H11Y 5802   2.569   4.238   7.599 -0.3896  0.4606  0.5817
   68SAPC  C312 5803   2.642   4.235   7.808 -0.0173  0.1914 -0.2122
   68SAPC  H12X 5804   2.561   4.173   7.851 -1.0788 -0.3831 -2.8435
   68SAPC  H12Y 5805   2.611   4.342   7.803  1.0349  0.4659 -1.2617
   68SAPC  C313 5806   2.768   4.223   7.897 -0.7658 -0.1994 -0.5732
   68SAPC  H13X 5807   2.863   4.253   7.848  0.0688  0.1295  1.1698
   68SAPC  H13Y 5808   2.788   4.115   7.915  1.4612  0.5354  2.0784
   68SAPC  C314 5809   2.749   4.289   8.039 -0.4351  0.2427  1.1635
   68SAPC  H14X 5810   2.667   4.234   8.090 -0.6597  0.4883  1.0700
   68SAPC  H14Y 5811   2.703   4.390   8.026 -0.6307  0.2743  2.0127
   68SAPC  C315 5812   2.882   4.303   8.115 -0.2833 -0.1814 -0.2745
   68SAPC  H15X 5813   2.951   4.377   8.068  0.6726 -0.5521  0.5159
   68SAPC  H15Y 5814   2.938   4.208   8.125  1.6944  0.9575  0.0868
   68SAPC  C316 5815   2.861   4.357   8.256 -0.0832  0.2317 -0.0118
   68SAPC  H16X 5816   2.805   4.275   8.305 -0.5715 -0.8116 -2.1633
   68SAPC  H16Y 5817   2.806   4.454   8.263 -1.2141 -0.2267 -1.8540
   68SAPC  C317 5818   2.987   4.353   8.341 -0.6993 -0.2642  0.3515
   68SAPC  H17X 5819   3.072   4.408   8.295  0.9542 -1.4551  1.8168
   68SAPC  H17Y 5820   3.028   4.250   8.344 -2.0684 -0.8083  2.8501
   68SAPC  C318 5821   2.981   4.400   8.489  0.1141 -1.2928 -0.0180
   68SAPC  H18X 5822   2.924   4.318   8.536 -0.7273 -1.8595 -1.9522
   68SAPC  H18Y 5823   2.922   4.494   8.495 -2.8961 -3.0905  0.4242
   68SAPC  H18Z 5824   3.083   4.408   8.532  0.0870  1.1784 -0.2392
   69SLPC     N 5825   3.633   0.392  10.909 -0.5033  0.7471  0.1751
   69SLPC   C13 5826   3.494   0.427  10.949 -0.5412  0.4415 -0.6003
   69SLPC  H13A 5827   3.483   0.506  11.022  0.7442  2.0185 -2.0371
   69SLPC  H13B 5828   3.449   0.470  10.861 -0.9123  0.4731 -0.3994
   69SLPC  H13C 5829   3.438   0.342  10.985  1.5099 -0.4018  0.7998
   69SLPC   C14 5830   3.707   0.349  11.030 -0.3446 -0.4497  0.2409
   69SLPC  H14A 5831   3.813   0.343  11.008 -0.2245 -0.7581  0.8874
   69SLPC  H14B 5832   3.697   0.424  11.107 -2.2836  0.9493 -1.2722
   69SLPC  H14C 5833   3.675   0.251  11.063 -0.9044 -0.4560 -0.3081
   69SLPC   C15 5834   3.698   0.520  10.858  0.6701 -0.2927  0.2620
   69SLPC  H15A 5835   3.795   0.503  10.814  2.0084 -0.9205  3.2313
   69SLPC  H15B 5836   3.623   0.571  10.800  0.0876 -0.3075  0.9865
   69SLPC  H15C 5837   3.709   0.589  10.941 -1.7592 -1.1698  1.4116
   69SLPC   C12 5838   3.622   0.284  10.805 -0.0773  0.1250 -0.1542
   69SLPC  H12A 5839   3.723   0.262  10.772  0.0214  1.2023 -0.6072
   69SLPC  H12B 5840   3.577   0.327  10.716  1.2093 -1.2392 -1.5328
   69SLPC   C11 5841   3.541   0.154  10.827 -0.1792  0.2305 -0.2793
   69SLPC  H11A 5842   3.526   0.105  10.728  0.2682  1.2470 -0.8613
   69SLPC  H11B 5843   3.444   0.190  10.867  0.4402  1.3632  0.2469
   69SLPC     P 5844   3.727  -0.032  10.876  0.6257 -0.0163 -0.0382
   69SLPC   O13 5845   3.841   0.061  10.874  0.6669  0.3447  0.3726
   69SLPC   O14 5846   3.740  -0.141  10.973 -0.3646  0.0761 -0.7936
   69SLPC   O12 5847   3.601   0.049  10.911 -0.2273 -0.0214  0.0855
   69SLPC   O11 5848   3.701  -0.080  10.728 -0.4527 -0.3868  0.2563
   69SLPC    C1 5849   3.671  -0.206  10.673  0.0067  0.7277 -0.2926
   69SLPC    HA 5850   3.744  -0.282  10.708 -1.1120  0.7412  2.3376
   69SLPC    HB 5851   3.569  -0.232  10.709  0.2241  0.0330 -0.1716
   69SLPC    C2 5852   3.670  -0.204  10.516  0.3215 -0.3032 -0.2996
   69SLPC    HS 5853   3.778  -0.201  10.489  0.2071  1.7800 -0.7323
   69SLPC   O21 5854   3.602  -0.085  10.469  0.1542  0.1994 -0.0296
   69SLPC   C21 5855   3.644  -0.045  10.352 -0.3274  0.4427 -0.4340
   69SLPC   O22 5856   3.734  -0.100  10.289  0.1037 -0.0181  0.1582
   69SLPC   C22 5857   3.556   0.071  10.303 -0.2603  0.2123  0.7613
   69SLPC   H2R 5858   3.452   0.033  10.298  0.1096 -0.8839  1.1452
   69SLPC   H2S 5859   3.567   0.157  10.374  2.0725  1.0838 -0.5591
   69SLPC    C3 5860   3.601  -0.332  10.460 -0.0105 -0.3457 -0.5990
   69SLPC    HX 5861   3.493  -0.329  10.488 -0.4336 -1.0452 -2.0368
   69SLPC    HY 5862   3.643  -0.412  10.524  1.2564 -0.5143 -1.6155
   69SLPC   O31 5863   3.610  -0.368  10.324 -0.0371 -0.4777 -0.1004
   69SLPC   C31 5864   3.720  -0.440  10.292 -0.4287 -0.4438 -0.7317
   69SLPC   O32 5865   3.810  -0.472  10.369 -0.0881 -0.0255 -0.6663
   69SLPC   C32 5866   3.717  -0.494  10.148 -0.3118  0.2977 -0.1370
   69SLPC   H2X 5867   3.627  -0.459  10.094 -1.3652 -1.7732  0.1746
   69SLPC   H2Y 5868   3.695  -0.602  10.165 -2.9340  0.8105  0.0381
   69SLPC   C23 5869   3.596   0.131  10.167 -0.5635  0.9115  0.3391
   69SLPC   H3R 5870   3.707   0.135  10.163 -0.5622  0.8669  0.3292
   69SLPC   H3S 5871   3.559   0.236  10.163 -1.7031  0.5355  0.9458
   69SLPC   C24 5872   3.552   0.042  10.051 -0.1760  0.4970 -0.0531
   69SLPC   H4R 5873   3.447   0.012  10.073  0.6158 -3.3194 -0.7515
   69SLPC   H4S 5874   3.620  -0.046  10.052  0.8250  1.2702  0.6208
   69SLPC   C25 5875   3.565   0.112   9.912 -0.0364 -0.6070 -0.6671
   69SLPC   H5R 5876   3.489   0.192   9.901  0.1048 -0.4636 -0.5853
   69SLPC   H5S 5877   3.526   0.040   9.837 -1.4273 -0.8387  0.2396
   69SLPC   C26 5878   3.700   0.159   9.861  0.0579  0.1245  0.3928
   69SLPC   H6R 5879   3.781   0.099   9.909  0.4978  0.5729  0.2217
   69SLPC   H6S 5880   3.711   0.266   9.888 -2.0586  1.0821 -2.1176
   69SLPC   C27 5881   3.726   0.160   9.709 -0.0487 -0.2130 -0.5345
   69SLPC   H7R 5882   3.653   0.225   9.657 -0.1153  2.0212  2.0990
   69SLPC   H7S 5883   3.711   0.054   9.678  1.3459 -1.4651  2.6327
   69SLPC   C28 5884   3.883   0.183   9.679 -0.2976 -0.5463  0.0423
   69SLPC   H8R 5885   3.900   0.148   9.574 -0.7894  2.9314 -1.3477
   69SLPC   H8S 5886   3.937   0.112   9.744 -1.1332 -0.0385  1.3178
   69SLPC   C29 5887   3.936   0.322   9.698 -0.4298 -0.0203  0.5332
   69SLPC   H9R 5888   3.939   0.378   9.793  0.5394  0.1974  0.3910
   69SLPC  C210 5889   4.006   0.373   9.594 -0.1477  0.1867 -0.3704
   69SLPC  H10R 5890   4.041   0.478   9.603  0.0399  0.1557 -0.7110
   69SLPC  C211 5891   4.052   0.319   9.464 -0.2968 -0.3822  0.1886
   69SLPC  H11R 5892   3.981   0.347   9.383 -0.0301 -0.1336  0.0397
   69SLPC  H11S 5893   4.053   0.208   9.468 -1.0267 -0.3730  1.1223
   69SLPC  C212 5894   4.195   0.370   9.449 -0.4028 -1.0979  0.3413
   69SLPC  H12R 5895   4.230   0.446   9.521  0.0527  0.5031 -1.4973
   69SLPC  C213 5896   4.286   0.321   9.363 -0.5472  0.2700 -0.5424
   69SLPC  H13R 5897   4.387   0.366   9.360  1.3865 -3.6642 -1.6488
   69SLPC  C214 5898   4.253   0.212   9.270 -0.9401 -0.6385 -0.8101
   69SLPC  H14R 5899   4.173   0.142   9.302  0.5542 -2.7463 -1.4394
   69SLPC  H14S 5900   4.349   0.158   9.252 -0.7683  0.0716 -2.1276
   69SLPC  C215 5901   4.211   0.262   9.129 -1.2964  0.6972  0.4639
   69SLPC  H15R 5902   4.303   0.286   9.072 -1.4937 -2.9408 -1.6975
   69SLPC  H15S 5903   4.147   0.352   9.136 -2.7519 -0.3639  1.3630
   69SLPC  C216 5904   4.122   0.153   9.061  0.1390  0.3381 -0.4567
   69SLPC  H16R 5905   4.030   0.137   9.120  1.5652  1.2676  2.1670
   69SLPC  H16S 5906   4.176   0.056   9.069  0.0164  0.3955  1.3979
   69SLPC  C217 5907   4.075   0.207   8.917  0.4587 -0.2713  0.6545
   69SLPC  H17R 5908   4.017   0.126   8.869 -0.2385  1.4027 -1.5208
   69SLPC  H17S 5909   4.166   0.225   8.856  0.4074  2.1166  1.1627
   69SLPC  C218 5910   3.981   0.324   8.920 -0.0786  0.4201 -0.1087
   69SLPC  H18R 5911   4.039   0.418   8.932 -0.1128  0.6811 -1.7815
   69SLPC  H18S 5912   3.916   0.315   9.010 -0.3218 -1.9946 -0.4721
   69SLPC  H18T 5913   3.924   0.343   8.827 -1.9341  0.1093  0.9154
   69SLPC   C33 5914   3.849  -0.467  10.058 -0.7880 -0.5425 -0.4791
   69SLPC   H3X 5915   3.921  -0.550  10.077  0.6814  1.2595  2.4320
   69SLPC   H3Y 5916   3.886  -0.370  10.097 -1.1826 -1.8968  3.8015
   69SLPC   C34 5917   3.815  -0.444   9.908 -0.1614  0.0639 -0.2979
   69SLPC   H4X 5918   3.747  -0.527   9.879 -0.7383 -0.1520  1.5101
   69SLPC   H4Y 5919   3.913  -0.439   9.855 -0.5720  0.2745 -1.0479
   69SLPC   C35 5920   3.750  -0.309   9.871  0.4070  1.0393 -0.7746
   69SLPC   H5X 5921   3.818  -0.223   9.891  0.4654  0.9136 -0.4284
   69SLPC   H5Y 5922   3.659  -0.295   9.932  0.9491  2.3744 -0.2370
   69SLPC   C36 5923   3.716  -0.304   9.723 -0.3732 -0.2439 -0.1495
   69SLPC   H6X 5924   3.624  -0.246   9.700  0.3689  1.6945  1.4186
   69SLPC   H6Y 5925   3.691  -0.406   9.687  2.2859 -2.1471  2.8477
   69SLPC   C37 5926   3.817  -0.230   9.630 -0.0909 -0.0050 -0.3716
   69SLPC   H7X 5927   3.918  -0.273   9.648  0.4787  1.3828 -0.1221
   69SLPC   H7Y 5928   3.824  -0.133   9.683  0.6858 -1.0736  1.6497
   69SLPC   C38 5929   3.767  -0.232   9.490  0.5971  0.5196  0.8147
   69SLPC   H8X 5930   3.662  -0.195   9.492 -0.0605 -1.0998 -0.6316
   69SLPC   H8Y 5931   3.764  -0.335   9.448  0.4368  0.6618  0.4689
   69SLPC   C39 5932   3.844  -0.133   9.400  0.7767 -0.2760 -0.1375
   69SLPC   H9X 5933   3.953  -0.153   9.411  1.1272  0.1998 -2.2709
   69SLPC   H9Y 5934   3.825  -0.029   9.434 -0.0544 -0.2584 -0.6262
   69SLPC  C310 5935   3.804  -0.152   9.252 -0.0048 -0.3563  0.5616
   69SLPC  H10X 5936   3.819  -0.260   9.234  2.3423  0.0583 -0.3006
   69SLPC  H10Y 5937   3.886  -0.104   9.196  0.2289 -0.9114  0.4270
   69SLPC  C311 5938   3.668  -0.098   9.202  0.3676 -0.1712  0.0301
   69SLPC  H11X 5939   3.650   0.000   9.251 -2.8033 -1.8921  2.7046
   69SLPC  H11Y 5940   3.586  -0.162   9.240  0.8925 -2.0070 -1.7775
   69SLPC  C312 5941   3.664  -0.093   9.050 -0.4100  0.0892  0.1266
   69SLPC  H12X 5942   3.759  -0.061   9.003 -0.8330  1.2440  0.0308
   69SLPC  H12Y 5943   3.585  -0.019   9.023 -0.8330 -0.0194  1.0415
   69SLPC  C313 5944   3.617  -0.227   8.992  0.5138  0.3736 -0.7458
   69SLPC  H13X 5945   3.507  -0.232   8.980  0.6476 -1.9170 -1.6396
   69SLPC  H13Y 5946   3.642  -0.307   9.065 -2.0706 -0.9467 -1.2055
   69SLPC  C314 5947   3.681  -0.257   8.853 -0.4260 -0.5386 -0.1422
   69SLPC  H14X 5948   3.685  -0.366   8.829  0.3576 -0.2036 -1.6932
   69SLPC  H14Y 5949   3.790  -0.239   8.862 -0.2598 -1.7827  0.5915
   69SLPC  C315 5950   3.614  -0.207   8.727  0.6473 -0.0950  0.3575
   69SLPC  H15X 5951   3.521  -0.264   8.707 -0.9977  1.8426  1.9993
   69SLPC  H15Y 5952   3.678  -0.224   8.638  1.0346  0.9814  0.4132
   69SLPC  C316 5953   3.608  -0.058   8.737  0.3562 -0.7703  1.4193
   69SLPC  H16X 5954   3.706  -0.017   8.771  1.2833 -0.2922 -1.5450
   69SLPC  H16Y 5955   3.535  -0.021   8.812  0.6540  1.2689  0.7722
   69SLPC  C317 5956   3.550   0.022   8.613 -0.3048 -0.6256  0.6100
   69SLPC  H17X 5957   3.553   0.130   8.638 -1.6987  0.4742 -3.2562
   69SLPC  H17Y 5958   3.447  -0.011   8.589  0.2612 -0.8557 -1.7423
   69SLPC  C318 5959   3.641   0.016   8.491 -0.1749  0.4468  0.2223
   69SLPC  H18X 5960   3.734   0.066   8.525  0.1943 -0.6908  0.9676
   69SLPC  H18Y 5961   3.609   0.070   8.400  1.1497 -0.3389 -0.7430
   69SLPC  H18Z 5962   3.652  -0.091   8.463  0.7623  0.9814 -1.5469
   70SLPC     N 5963   6.411   2.197  11.101 -0.5845 -0.0989  0.5000
   70SLPC   C13 5964   6.260   2.196  11.118 -0.3993  0.8741  0.8155
   70SLPC  H13A 5965   6.235   2.177  11.221 -0.6350  2.1775  1.0139
   70SLPC  H13B 5966   6.223   2.294  11.093 -1.1791  0.1744 -0.9478
   70SLPC  H13C 5967   6.214   2.132  11.044  0.7649  1.3604 -0.3747
   70SLPC   C14 5968   6.461   2.068  11.158 -0.2165 -0.1828 -0.4282
   70SLPC  H14A 5969   6.565   2.052  11.133 -0.4096 -1.2605 -0.6225
   70SLPC  H14B 5970   6.449   2.055  11.265  0.9984 -1.2106 -0.3908
   70SLPC  H14C 5971   6.401   1.990  11.113  0.5866 -0.4489 -1.0543
   70SLPC   C15 5972   6.471   2.303  11.188  0.3917 -0.1945 -0.4173
   70SLPC  H15A 5973   6.401   2.385  11.196  0.6263 -0.0340  0.0021
   70SLPC  H15B 5974   6.493   2.266  11.287 -1.9124 -0.4330  0.0740
   70SLPC  H15C 5975   6.566   2.324  11.141  0.2186  0.5224 -0.4567
   70SLPC   C12 5976   6.446   2.209  10.957 -1.0768 -0.0057 -0.2167
   70SLPC  H12A 5977   6.403   2.119  10.915 -1.5298  0.6420 -1.1730
   70SLPC  H12B 5978   6.552   2.190  10.950 -1.1383 -0.1148 -0.8573
   70SLPC   C11 5979   6.393   2.333  10.877 -0.3006  0.0167 -0.2936
   70SLPC  H11A 5980   6.283   2.349  10.881 -0.1725  0.7728  1.7777
   70SLPC  H11B 5981   6.414   2.321  10.769 -1.5323  0.2599 -0.5761
   70SLPC     P 5982   6.405   2.587  10.934  0.5358  0.5611  0.1536
   70SLPC   O13 5983   6.320   2.581  11.060 -0.7253 -0.2185 -0.5586
   70SLPC   O14 5984   6.505   2.696  10.932 -0.5613  0.0978 -0.3868
   70SLPC   O12 5985   6.472   2.451  10.908  0.3037 -0.0675  0.6594
   70SLPC   O11 5986   6.305   2.607  10.817  0.0109 -0.1933  0.1744
   70SLPC    C1 5987   6.333   2.594  10.677 -0.9498  0.2112 -0.4543
   70SLPC    HA 5988   6.418   2.526  10.654 -1.0665 -0.1139  0.0465
   70SLPC    HB 5989   6.240   2.555  10.631 -1.1838 -1.5785  1.3718
   70SLPC    C2 5990   6.330   2.729  10.597  0.0587  0.4485  0.3528
   70SLPC    HS 5991   6.424   2.786  10.614  0.8456 -0.7757  0.2038
   70SLPC   O21 5992   6.222   2.813  10.628 -0.0825  0.0428  0.3858
   70SLPC   C21 5993   6.238   2.938  10.599 -0.4511  0.8272 -0.6086
   70SLPC   O22 5994   6.349   2.992  10.582 -0.5185  0.0986 -0.0071
   70SLPC   C22 5995   6.111   3.012  10.591  0.5620  0.7325 -0.2513
   70SLPC   H2R 5996   6.041   2.968  10.517  2.6594 -0.9277 -1.3394
   70SLPC   H2S 5997   6.057   2.998  10.688  1.2972 -1.0392 -0.0623
   70SLPC    C3 5998   6.330   2.696  10.446 -0.0147  0.1530 -0.6180
   70SLPC    HX 5999   6.225   2.667  10.425 -0.3811  0.4127  0.7133
   70SLPC    HY 6000   6.384   2.602  10.423  0.0879 -0.2971  1.2664
   70SLPC   O31 6001   6.370   2.804  10.359  0.8920  0.7457  0.2650
   70SLPC   C31 6002   6.495   2.820  10.340  0.3760  0.4143 -0.1352
   70SLPC   O32 6003   6.578   2.732  10.362 -0.1613 -0.6285 -0.6617
   70SLPC   C32 6004   6.527   2.964  10.299 -0.3072 -0.3375 -0.2127
   70SLPC   H2X 6005   6.592   3.024  10.366 -0.4203  0.0767 -0.4684
   70SLPC   H2Y 6006   6.430   3.018  10.295 -0.3305 -0.4127 -2.7116
   70SLPC   C23 6007   6.133   3.161  10.567  0.2395  0.0857 -1.2904
   70SLPC   H3R 6008   6.200   3.192  10.650  0.1680  0.2952 -1.3116
   70SLPC   H3S 6009   6.033   3.210  10.570 -1.8977 -3.8787  0.6940
   70SLPC   C24 6010   6.192   3.187  10.433  0.4956 -0.1849  0.3940
   70SLPC   H4R 6011   6.300   3.159  10.438  1.0038  1.8130  2.0312
   70SLPC   H4S 6012   6.201   3.297  10.418  0.2203 -0.2031  0.0877
   70SLPC   C25 6013   6.106   3.133  10.316 -0.4808  0.0835  0.4582
   70SLPC   H5R 6014   6.013   3.189  10.342  1.2821  3.0857  0.7797
   70SLPC   H5S 6015   6.100   3.022  10.313  1.3617 -0.0735 -3.3447
   70SLPC   C26 6016   6.149   3.182  10.170  0.7762  0.5621 -0.2763
   70SLPC   H6R 6017   6.251   3.143  10.149  0.1152 -1.3637 -0.1171
   70SLPC   H6S 6018   6.155   3.293  10.172 -2.2873  0.7953  0.2414
   70SLPC   C27 6019   6.042   3.151  10.067 -0.1765  0.2898 -0.2085
   70SLPC   H7R 6020   5.952   3.208  10.096 -1.8513 -2.0742 -0.4611
   70SLPC   H7S 6021   6.008   3.047  10.085 -0.2236  0.5411  1.2718
   70SLPC   C28 6022   6.093   3.147   9.916  0.2715 -0.4150 -1.2945
   70SLPC   H8R 6023   6.007   3.142   9.846 -0.4001 -1.6049 -0.4236
   70SLPC   H8S 6024   6.170   3.069   9.897 -0.0547 -1.0011 -0.2826
   70SLPC   C29 6025   6.155   3.285   9.889  0.0714  0.1406 -0.1201
   70SLPC   H9R 6026   6.095   3.367   9.932  1.3342  0.5061  1.0332
   70SLPC  C210 6027   6.258   3.321   9.810 -0.3230 -0.1618 -0.0765
   70SLPC  H10R 6028   6.293   3.425   9.804  2.7860 -0.8880  2.4614
   70SLPC  C211 6029   6.340   3.222   9.733  1.0635 -0.2693 -0.1963
   70SLPC  H11R 6030   6.351   3.129   9.793  1.7621 -1.1508 -1.6284
   70SLPC  H11S 6031   6.445   3.259   9.727  0.7284  0.7958  0.1865
   70SLPC  C212 6032   6.273   3.172   9.606  0.1946 -0.1448  0.9953
   70SLPC  H12R 6033   6.186   3.110   9.629  0.0708 -0.7276 -0.9015
   70SLPC  C213 6034   6.323   3.198   9.481 -0.6237 -1.2615 -0.8187
   70SLPC  H13R 6035   6.262   3.182   9.390 -0.7601  0.2246 -1.0214
   70SLPC  C214 6036   6.449   3.277   9.459 -0.2463 -0.1059  0.0314
   70SLPC  H14R 6037   6.529   3.202   9.440 -1.0212 -0.4427 -2.3159
   70SLPC  H14S 6038   6.475   3.341   9.546 -0.5226  2.4078 -1.6467
   70SLPC  C215 6039   6.448   3.374   9.337 -0.0280 -0.0619 -0.7183
   70SLPC  H15R 6040   6.424   3.320   9.244  0.8598  0.3377 -1.1908
   70SLPC  H15S 6041   6.547   3.422   9.327  0.1901 -0.6724 -1.5717
   70SLPC  C216 6042   6.352   3.479   9.354 -0.5926 -0.1683  0.4680
   70SLPC  H16R 6043   6.363   3.533   9.450 -0.7082  0.9480 -0.1231
   70SLPC  H16S 6044   6.245   3.449   9.353 -0.4214 -0.7985  0.5533
   70SLPC  C217 6045   6.365   3.592   9.251  0.2172  0.5151  1.2252
   70SLPC  H17R 6046   6.378   3.534   9.156  1.9421  1.5734  0.7668
   70SLPC  H17S 6047   6.463   3.641   9.271  0.5365  1.9163 -2.8525
   70SLPC  C218 6048   6.242   3.681   9.243  0.2282 -0.2624  0.3614
   70SLPC  H18R 6049   6.172   3.633   9.171  0.8996  0.7199 -0.9672
   70SLPC  H18S 6050   6.263   3.781   9.200 -0.8299 -0.7766 -1.4418
   70SLPC  H18T 6051   6.189   3.686   9.341  0.1732  1.0606  0.2744
   70SLPC   C33 6052   6.589   2.967  10.163 -0.4443 -0.3393 -0.3113
   70SLPC   H3X 6053   6.675   2.897  10.152 -0.4866 -0.1049 -2.4648
   70SLPC   H3Y 6054   6.618   3.073  10.148  2.1512 -0.8306  0.7366
   70SLPC   C34 6055   6.501   2.931  10.044 -0.4404  0.4236  0.5216
   70SLPC   H4X 6056   6.415   3.001  10.042 -0.0686  0.9065 -2.4510
   70SLPC   H4Y 6057   6.464   2.828  10.063  0.6727 -0.5388 -2.0444
   70SLPC   C35 6058   6.571   2.929   9.902  0.6366 -0.1419 -0.0333
   70SLPC   H5X 6059   6.674   2.887   9.899 -0.4851 -3.1291 -2.6488
   70SLPC   H5Y 6060   6.585   3.037   9.878 -1.5311  0.4929  1.2407
   70SLPC   C36 6061   6.495   2.859   9.786  0.0078  0.4981 -0.3628
   70SLPC   H6X 6062   6.390   2.895   9.786 -0.5460 -0.8256 -3.2521
   70SLPC   H6Y 6063   6.496   2.749   9.803  3.6243  0.5904  0.8122
   70SLPC   C37 6064   6.572   2.889   9.663  0.3160  0.0891  1.2199
   70SLPC   H7X 6065   6.675   2.848   9.674 -0.3390 -2.2290 -0.3379
   70SLPC   H7Y 6066   6.587   2.999   9.659  0.3450  0.1107 -3.1161
   70SLPC   C38 6067   6.495   2.839   9.530  0.5769  0.3869  0.0757
   70SLPC   H8X 6068   6.399   2.893   9.529  1.4559  1.9957 -1.0284
   70SLPC   H8Y 6069   6.467   2.731   9.530 -2.5249  1.1037  1.5342
   70SLPC   C39 6070   6.559   2.879   9.402  0.4021  0.0476 -0.1713
   70SLPC   H9X 6071   6.647   2.816   9.381 -0.6347 -0.9253 -1.8036
   70SLPC   H9Y 6072   6.578   2.988   9.395 -1.9690  0.5358 -0.0154
   70SLPC  C310 6073   6.456   2.849   9.292 -0.4055  0.2485  0.0472
   70SLPC  H10X 6074   6.371   2.913   9.324 -1.9817 -2.0878  0.7530
   70SLPC  H10Y 6075   6.436   2.741   9.304  0.5405 -0.0397 -0.8805
   70SLPC  C311 6076   6.495   2.891   9.145  0.1536  0.6829  0.2613
   70SLPC  H11X 6077   6.598   2.860   9.119  0.2435  1.2252 -0.0429
   70SLPC  H11Y 6078   6.495   3.002   9.135  1.5559  0.6544 -0.3123
   70SLPC  C312 6079   6.402   2.837   9.037  0.2218 -0.0875 -0.1376
   70SLPC  H12X 6080   6.306   2.804   9.082  0.7616 -0.7430  0.5627
   70SLPC  H12Y 6081   6.449   2.750   8.985 -0.7410 -1.1471  0.7082
   70SLPC  C313 6082   6.365   2.914   8.910  0.5425 -0.0514 -0.7877
   70SLPC  H13X 6083   6.304   2.847   8.847 -1.5707 -0.5635  1.6126
   70SLPC  H13Y 6084   6.459   2.948   8.860  0.1641  3.6532  0.6350
   70SLPC  C314 6085   6.270   3.034   8.941  0.3248 -0.0252 -0.0813
   70SLPC  H14X 6086   6.314   3.094   9.023  2.3722 -0.1575 -1.0149
   70SLPC  H14Y 6087   6.168   3.002   8.971  0.2103  0.1733 -0.2552
   70SLPC  C315 6088   6.257   3.134   8.826 -0.0041 -0.4569  0.7932
   70SLPC  H15X 6089   6.254   3.069   8.736 -0.4618  1.2067 -0.4332
   70SLPC  H15Y 6090   6.343   3.204   8.825 -1.2534  1.1773 -1.4143
   70SLPC  C316 6091   6.125   3.206   8.845 -0.0248  0.2409 -0.1283
   70SLPC  H16X 6092   6.041   3.138   8.870  0.3861 -0.7870 -1.3922
   70SLPC  H16Y 6093   6.106   3.253   8.746  0.5010  1.5925  0.3926
   70SLPC  C317 6094   6.130   3.324   8.944  0.2998  0.1485 -0.5553
   70SLPC  H17X 6095   6.223   3.376   8.913 -0.8626  1.8316 -1.3400
   70SLPC  H17Y 6096   6.141   3.282   9.047  0.5494 -0.0925 -0.6797
   70SLPC  C318 6097   6.004   3.422   8.949  0.4663  1.0244  0.5286
   70SLPC  H18X 6098   5.913   3.361   8.964 -0.9632  2.1827 -2.6972
   70SLPC  H18Y 6099   5.983   3.476   8.855 -0.9212 -1.2509 -0.5519
   70SLPC  H18Z 6100   6.028   3.489   9.035 -1.7875  1.4677  0.8523
   71SLPC     N 6101   5.651   1.322  10.916  1.2967  0.1737  0.3453
   71SLPC   C13 6102   5.577   1.207  10.850  0.1655  0.7814 -0.0042
   71SLPC  H13A 6103   5.477   1.240  10.824 -0.8058 -2.4591 -0.9387
   71SLPC  H13B 6104   5.608   1.202  10.747 -1.7844 -0.5239 -0.5908
   71SLPC  H13C 6105   5.581   1.112  10.902  2.2301 -0.0338 -1.5108
   71SLPC   C14 6106   5.794   1.301  10.876  0.8681  0.2561  0.4108
   71SLPC  H14A 6107   5.828   1.200  10.892  1.9053  0.0792 -2.3209
   71SLPC  H14B 6108   5.792   1.307  10.768 -1.8294  0.4924  0.4009
   71SLPC  H14C 6109   5.859   1.369  10.929 -0.3471  1.9119 -0.1102
   71SLPC   C15 6110   5.638   1.327  11.062  0.3186 -0.0803 -0.4274
   71SLPC  H15A 6111   5.710   1.397  11.103  0.6429  0.2630 -1.5450
   71SLPC  H15B 6112   5.538   1.359  11.084 -0.9796 -2.0631 -2.9100
   71SLPC  H15C 6113   5.645   1.230  11.109 -1.8739 -0.1872 -0.2201
   71SLPC   C12 6114   5.612   1.453  10.853 -0.1253 -1.2104  0.4390
   71SLPC  H12A 6115   5.672   1.534  10.889 -0.3249 -0.6592 -0.4285
   71SLPC  H12B 6116   5.519   1.473  10.905  0.2664 -2.1659  1.5454
   71SLPC   C11 6117   5.583   1.475  10.700 -0.0742  0.8834 -0.1372
   71SLPC  H11A 6118   5.655   1.424  10.632 -0.4078  1.1523 -0.7010
   71SLPC  H11B 6119   5.600   1.584  10.684  0.6630  0.9393  0.9722
   71SLPC     P 6120   5.324   1.508  10.705 -0.2597  0.1552 -0.4985
   71SLPC   O13 6121   5.212   1.438  10.652  0.0722  0.2139 -0.1987
   71SLPC   O14 6122   5.333   1.522  10.853 -0.1772 -0.0086 -0.4253
   71SLPC   O12 6123   5.455   1.425  10.655  0.5617 -0.4035 -0.0562
   71SLPC   O11 6124   5.354   1.643  10.642 -0.3515 -0.0138  0.2689
   71SLPC    C1 6125   5.333   1.663  10.499  1.1680 -0.5457  0.0247
   71SLPC    HA 6126   5.383   1.582  10.440  1.3009 -1.8675  1.8727
   71SLPC    HB 6127   5.224   1.656  10.479  1.4054 -1.6939 -1.0189
   71SLPC    C2 6128   5.398   1.789  10.443 -0.2166 -0.5227 -0.1179
   71SLPC    HS 6129   5.335   1.875  10.474  2.2097  1.2486  0.1437
   71SLPC   O21 6130   5.406   1.787  10.301  0.0021  0.1774 -0.2152
   71SLPC   C21 6131   5.298   1.825  10.223  0.4085  0.4207 -0.4515
   71SLPC   O22 6132   5.199   1.879  10.269  0.2676  0.2609  0.6333
   71SLPC   C22 6133   5.325   1.799  10.074  0.2911 -0.0202 -0.8968
   71SLPC   H2R 6134   5.378   1.888  10.036 -1.3398  0.0872 -3.1331
   71SLPC   H2S 6135   5.386   1.706  10.080 -0.4674 -0.5035 -0.5226
   71SLPC    C3 6136   5.534   1.811  10.516 -0.1855  0.3648 -0.2737
   71SLPC    HX 6137   5.594   1.718  10.498 -0.4210 -0.0619  1.0539
   71SLPC    HY 6138   5.512   1.824  10.624 -1.0544 -0.0812 -0.3922
   71SLPC   O31 6139   5.613   1.921  10.471  0.0407 -0.4067  0.3594
   71SLPC   C31 6140   5.577   2.041  10.517 -0.3451  0.3531  0.5982
   71SLPC   O32 6141   5.469   2.058  10.570 -0.0348  0.3368 -0.0783
   71SLPC   C32 6142   5.686   2.149  10.481  0.3952 -0.5065  0.7174
   71SLPC   H2X 6143   5.754   2.156  10.568  1.3118  0.7254 -0.0503
   71SLPC   H2Y 6144   5.646   2.251  10.461  2.2413 -0.0080 -0.7560
   71SLPC   C23 6145   5.190   1.794   9.990 -0.6263 -0.4498  0.3407
   71SLPC   H3R 6146   5.159   1.900   9.980  0.9729  0.0282  0.1905
   71SLPC   H3S 6147   5.111   1.727  10.030 -0.9502  0.3711  1.0816
   71SLPC   C24 6148   5.218   1.736   9.850 -0.4258  0.2102  0.2636
   71SLPC   H4R 6149   5.279   1.645   9.868 -0.8369  0.2879  2.3470
   71SLPC   H4S 6150   5.287   1.804   9.796  0.9366 -0.7208  0.8016
   71SLPC   C25 6151   5.086   1.716   9.775 -0.4233  0.4038 -0.1948
   71SLPC   H5R 6152   5.014   1.800   9.775  2.0578  2.6735  0.4494
   71SLPC   H5S 6153   5.044   1.629   9.831  3.6877 -0.6106  1.6803
   71SLPC   C26 6154   5.111   1.665   9.627  0.1537 -0.4841  0.6639
   71SLPC   H6R 6155   5.157   1.564   9.623  2.3980  0.5031 -1.0018
   71SLPC   H6S 6156   5.170   1.739   9.568  0.2587 -0.7484  0.4364
   71SLPC   C27 6157   4.976   1.656   9.553  0.5547  0.0629 -0.0157
   71SLPC   H7R 6158   4.904   1.731   9.592  1.2200  0.9008 -0.3601
   71SLPC   H7S 6159   4.930   1.556   9.570  2.9801 -1.1347 -0.0332
   71SLPC   C28 6160   4.993   1.670   9.395 -0.3728 -0.2630  0.1512
   71SLPC   H8R 6161   5.047   1.765   9.374 -1.2578  0.6394  1.6919
   71SLPC   H8S 6162   4.892   1.671   9.350 -0.6150 -0.4666  0.6868
   71SLPC   C29 6163   5.071   1.560   9.335  0.3656  0.6051  0.0555
   71SLPC   H9R 6164   5.116   1.482   9.400 -1.4964 -1.4366 -0.9641
   71SLPC  C210 6165   5.095   1.548   9.204 -0.0092 -0.0231 -0.6780
   71SLPC  H10R 6166   5.142   1.457   9.164 -0.1210  0.9214 -3.0775
   71SLPC  C211 6167   5.057   1.652   9.100  0.2801  0.4742 -0.0148
   71SLPC  H11R 6168   4.985   1.724   9.145 -0.4501 -0.2575  0.0031
   71SLPC  H11S 6169   4.999   1.586   9.032 -1.4906  1.6102  0.3170
   71SLPC  C212 6170   5.177   1.712   9.030 -0.8666 -0.0984 -0.2834
   71SLPC  H12R 6171   5.204   1.814   9.061  2.2836 -0.4272 -1.5677
   71SLPC  C213 6172   5.253   1.661   8.930  0.1287  0.1889  0.3825
   71SLPC  H13R 6173   5.346   1.712   8.899  0.6026 -0.4283  0.7826
   71SLPC  C214 6174   5.237   1.525   8.862 -0.1063 -0.6401  0.0993
   71SLPC  H14R 6175   5.165   1.459   8.914  1.5883 -2.2370  0.5079
   71SLPC  H14S 6176   5.337   1.477   8.864  0.6242  0.7331 -1.0805
   71SLPC  C215 6177   5.197   1.547   8.714  0.6740 -0.6666  0.3197
   71SLPC  H15R 6178   5.196   1.445   8.668  0.3450  0.2521 -1.8538
   71SLPC  H15S 6179   5.270   1.598   8.647 -0.4578 -0.9035 -1.1655
   71SLPC  C216 6180   5.048   1.596   8.700  0.3911 -0.5437 -0.2558
   71SLPC  H16R 6181   5.036   1.704   8.726 -1.2423 -0.9253  0.6722
   71SLPC  H16S 6182   4.985   1.536   8.767  2.0612 -0.7646  1.1841
   71SLPC  C217 6183   4.986   1.573   8.558  0.0842  0.1571 -0.2943
   71SLPC  H17R 6184   4.975   1.462   8.551  0.9611 -0.1927  2.6040
   71SLPC  H17S 6185   5.053   1.615   8.479  0.2124 -0.3976 -0.4867
   71SLPC  C218 6186   4.849   1.635   8.539 -0.1489  0.4275 -0.0129
   71SLPC  H18R 6187   4.853   1.738   8.580 -2.6408  0.1142  1.1886
   71SLPC  H18S 6188   4.768   1.589   8.599  0.5196 -0.1267  0.4862
   71SLPC  H18T 6189   4.810   1.623   8.436 -1.2303 -0.6214  0.4943
   71SLPC   C33 6190   5.763   2.104  10.350 -0.2100 -0.7540  0.0715
   71SLPC   H3X 6191   5.709   2.088  10.254 -0.7034 -0.9216  0.3741
   71SLPC   H3Y 6192   5.813   2.009  10.375  4.2856  1.8031  2.0525
   71SLPC   C34 6193   5.895   2.190  10.327  0.0855 -0.4478  0.2693
   71SLPC   H4X 6194   5.957   2.184  10.419 -0.1711  0.0665  0.4821
   71SLPC   H4Y 6195   5.879   2.299  10.315  1.0288 -0.2691  0.5612
   71SLPC   C35 6196   5.979   2.144  10.213 -0.5624 -0.0092  0.6895
   71SLPC   H5X 6197   5.997   2.034  10.203 -1.0755 -0.3904  3.3379
   71SLPC   H5Y 6198   6.079   2.192  10.207 -0.2053 -0.8572 -0.6970
   71SLPC   C36 6199   5.909   2.178  10.071  0.3702 -0.7175 -0.1210
   71SLPC   H6X 6200   5.888   2.287  10.066 -0.6686 -0.7750  1.8570
   71SLPC   H6Y 6201   5.816   2.120  10.054  0.0253 -0.0236 -0.6961
   71SLPC   C37 6202   6.000   2.149   9.950 -0.1542 -0.2940  1.3066
   71SLPC   H7X 6203   6.024   2.041   9.949 -1.8021 -0.6949  2.2958
   71SLPC   H7Y 6204   6.094   2.204   9.975 -0.7080  1.0103  0.6333
   71SLPC   C38 6205   5.935   2.193   9.819 -0.3475  0.2619 -0.1462
   71SLPC   H8X 6206   5.947   2.303   9.834  2.8004  0.0527 -0.4791
   71SLPC   H8Y 6207   5.828   2.167   9.826 -1.0672  3.2084  1.7381
   71SLPC   C39 6208   5.997   2.133   9.691  0.5415  0.0024 -1.0474
   71SLPC   H9X 6209   5.932   2.159   9.605  0.4012  2.0466 -0.3696
   71SLPC   H9Y 6210   6.002   2.022   9.702  1.1463  0.1471  0.4535
   71SLPC  C310 6211   6.132   2.188   9.652  0.4083 -0.2373  0.2054
   71SLPC  H10X 6212   6.207   2.140   9.718  0.4063  0.7101  0.9316
   71SLPC  H10Y 6213   6.136   2.299   9.657 -0.2535 -0.2247  0.5779
   71SLPC  C311 6214   6.173   2.143   9.509 -0.1220  0.1863 -0.8941
   71SLPC  H11X 6215   6.095   2.070   9.475 -0.7961  0.1127  0.7311
   71SLPC  H11Y 6216   6.274   2.097   9.498 -0.6912 -1.1359 -0.7956
   71SLPC  C312 6217   6.174   2.249   9.394  0.5264  0.1206 -0.1006
   71SLPC  H12X 6218   6.241   2.332   9.425  0.3429  0.3659 -0.3594
   71SLPC  H12Y 6219   6.073   2.294   9.394  1.2031  1.7075 -0.8822
   71SLPC  C313 6220   6.217   2.190   9.259  0.3213  0.3285  0.5260
   71SLPC  H13X 6221   6.146   2.107   9.240 -0.1801  1.3260 -2.4964
   71SLPC  H13Y 6222   6.318   2.145   9.272  1.2028  2.3872  1.2047
   71SLPC  C314 6223   6.206   2.286   9.145  0.3720  0.4704  0.1420
   71SLPC  H14X 6224   6.273   2.368   9.178  2.0382 -1.3216  1.4669
   71SLPC  H14Y 6225   6.101   2.322   9.136  0.6998  0.9034 -2.5035
   71SLPC  C315 6226   6.258   2.250   9.011 -0.0651  0.0967  0.7976
   71SLPC  H15X 6227   6.201   2.164   8.970 -1.1609  0.1736  2.0957
   71SLPC  H15Y 6228   6.366   2.221   9.015  0.4138  1.7545  0.5292
   71SLPC  C316 6229   6.241   2.358   8.907 -0.1833 -0.4807  0.7867
   71SLPC  H16X 6230   6.213   2.445   8.969  1.7162  0.0418  0.9550
   71SLPC  H16Y 6231   6.162   2.335   8.832 -2.0694 -2.5849  3.2227
   71SLPC  C317 6232   6.382   2.377   8.852 -0.1057  0.1837 -0.0093
   71SLPC  H17X 6233   6.418   2.280   8.810  0.0311 -0.3375  1.2658
   71SLPC  H17Y 6234   6.452   2.396   8.936 -0.4287 -2.1002  0.8665
   71SLPC  C318 6235   6.372   2.475   8.736 -0.0815 -0.1055  0.5817
   71SLPC  H18X 6236   6.421   2.452   8.639  0.5654 -0.2760  0.9366
   71SLPC  H18Y 6237   6.432   2.565   8.761  1.6040 -1.5358  2.0008
   71SLPC  H18Z 6238   6.271   2.519   8.723  0.7129  1.5459 -0.2642
   72SLPC     N 6239   6.399   0.333  10.831  0.6324  0.0205  0.3257
   72SLPC   C13 6240   6.397   0.425  10.952  0.0448 -0.6204 -0.1480
   72SLPC  H13A 6241   6.493   0.469  10.974 -0.8083  1.9395 -1.2557
   72SLPC  H13B 6242   6.337   0.511  10.929 -0.5671 -0.3613  2.2162
   72SLPC  H13C 6243   6.358   0.380  11.041 -1.7149  1.1199  0.0014
   72SLPC   C14 6244   6.261   0.324  10.779 -0.0656 -0.2256  0.4303
   72SLPC  H14A 6245   6.268   0.282  10.680  1.0675  2.2918 -0.6210
   72SLPC  H14B 6246   6.197   0.269  10.848  0.9201 -1.2402  0.5725
   72SLPC  H14C 6247   6.216   0.421  10.766 -0.9336 -0.7562 -0.7228
   72SLPC   C15 6248   6.437   0.205  10.875 -0.2463  0.1718 -0.2824
   72SLPC  H15A 6249   6.452   0.135  10.794  1.8360 -0.5970  0.6815
   72SLPC  H15B 6250   6.535   0.205  10.920 -0.0942 -0.4349 -0.6083
   72SLPC  H15C 6251   6.375   0.158  10.949  0.8796 -0.0180  0.5593
   72SLPC   C12 6252   6.506   0.386  10.729 -0.7413  0.4351 -0.4472
   72SLPC  H12A 6253   6.511   0.312  10.651 -1.6015 -0.3771  0.2338
   72SLPC  H12B 6254   6.602   0.373  10.776  0.0943 -1.6950 -2.5199
   72SLPC   C11 6255   6.503   0.527  10.676 -0.0800 -0.2697  0.1004
   72SLPC  H11A 6256   6.580   0.524  10.596  0.8751 -0.3824  1.0103
   72SLPC  H11B 6257   6.537   0.600  10.752 -2.7454  2.1380 -0.8383
   72SLPC     P 6258   6.272   0.659  10.658  0.1435 -0.2382  0.0237
   72SLPC   O13 6259   6.217   0.637  10.793 -0.3203 -0.1413  0.0123
   72SLPC   O14 6260   6.339   0.788  10.632  0.1856  0.4275 -0.0011
   72SLPC   O12 6261   6.375   0.547  10.619  0.2514  0.0644 -0.1817
   72SLPC   O11 6262   6.158   0.643  10.553  0.3867 -0.6130  0.0831
   72SLPC    C1 6263   6.116   0.522  10.506 -0.0320  0.8267  0.3195
   72SLPC    HA 6264   6.197   0.454  10.472 -1.5882  0.0797 -2.1561
   72SLPC    HB 6265   6.058   0.477  10.589 -0.7935 -1.0906 -1.1760
   72SLPC    C2 6266   5.993   0.522  10.406  0.6859 -0.0225  0.1195
   72SLPC    HS 6267   5.946   0.425  10.381 -0.8016  0.4476  0.9325
   72SLPC   O21 6268   6.043   0.577  10.279 -1.0187  0.5983  0.2413
   72SLPC   C21 6269   6.133   0.495  10.216 -0.2508  0.7124 -0.6595
   72SLPC   O22 6270   6.153   0.377  10.259 -0.0555  0.2426 -0.0209
   72SLPC   C22 6271   6.198   0.568  10.104 -0.4283  0.0006  0.1859
   72SLPC   H2R 6272   6.126   0.642  10.063 -0.3328  0.7429  1.3352
   72SLPC   H2S 6273   6.280   0.620  10.158 -0.2834  0.7227 -0.6977
   72SLPC    C3 6274   5.889   0.628  10.459  0.1586  0.5629 -0.2239
   72SLPC    HX 6275   5.945   0.723  10.471 -0.0733  0.9065 -1.6688
   72SLPC    HY 6276   5.851   0.593  10.557 -0.7465  1.5472 -0.2044
   72SLPC   O31 6277   5.783   0.651  10.360  0.1279  0.4301  0.6016
   72SLPC   C31 6278   5.727   0.763  10.362 -0.4787 -0.2811  0.0178
   72SLPC   O32 6279   5.759   0.856  10.435  0.2768 -0.7510 -0.6332
   72SLPC   C32 6280   5.623   0.781  10.261 -0.5735  0.1036 -0.5109
   72SLPC   H2X 6281   5.557   0.856  10.309 -0.5358  0.0733 -0.4109
   72SLPC   H2Y 6282   5.558   0.691  10.252 -0.6255  0.1008 -0.1358
   72SLPC   C23 6283   6.249   0.484   9.983  0.8073  0.4008 -0.2351
   72SLPC   H3R 6284   6.168   0.412   9.960 -0.3838  1.4363  0.5446
   72SLPC   H3S 6285   6.333   0.415  10.006  0.0819 -0.1569  0.8548
   72SLPC   C24 6286   6.271   0.563   9.852 -0.2735 -0.1386  0.3572
   72SLPC   H4R 6287   6.349   0.639   9.873 -1.7223  1.2408  0.9063
   72SLPC   H4S 6288   6.182   0.621   9.821  0.7230  0.3155 -1.9426
   72SLPC   C25 6289   6.322   0.467   9.744  0.1755 -0.4177  0.0641
   72SLPC   H5R 6290   6.238   0.405   9.705  0.3146  1.0032 -2.6628
   72SLPC   H5S 6291   6.403   0.411   9.795  1.3937  0.8847 -0.3751
   72SLPC   C26 6292   6.389   0.545   9.638 -0.0578  0.0595 -0.3381
   72SLPC   H6R 6293   6.445   0.470   9.578  0.2348 -0.0268  0.0358
   72SLPC   H6S 6294   6.453   0.627   9.678  0.1719  0.1947 -0.9717
   72SLPC   C27 6295   6.289   0.618   9.537 -0.1499  0.6146 -0.5646
   72SLPC   H7R 6296   6.230   0.698   9.587  0.8318  0.3683  1.0615
   72SLPC   H7S 6297   6.221   0.541   9.497  1.3991 -1.3247  0.3784
   72SLPC   C28 6298   6.373   0.680   9.424 -0.3311  0.9825  0.2555
   72SLPC   H8R 6299   6.458   0.722   9.482 -1.0830  1.1213  1.2974
   72SLPC   H8S 6300   6.311   0.762   9.381 -0.8396  0.0210 -0.9248
   72SLPC   C29 6301   6.427   0.587   9.317 -0.0895  0.1101 -0.0460
   72SLPC   H9R 6302   6.486   0.506   9.364 -1.8866 -0.7965  0.7517
   72SLPC  C210 6303   6.397   0.589   9.183  0.2237  0.3168  0.4004
   72SLPC  H10R 6304   6.435   0.509   9.118  0.5240  1.4011 -0.7927
   72SLPC  C211 6305   6.306   0.676   9.104 -0.0565 -1.0425  0.2477
   72SLPC  H11R 6306   6.235   0.727   9.174 -0.7299 -1.0980 -0.3869
   72SLPC  H11S 6307   6.249   0.614   9.032  0.4098 -3.6633  2.0096
   72SLPC  C212 6308   6.387   0.787   9.038 -0.1193 -0.9773 -0.0249
   72SLPC  H12R 6309   6.427   0.863   9.107 -1.0438 -0.1954 -0.3332
   72SLPC  C213 6310   6.402   0.793   8.900 -0.3016  0.0453 -0.8543
   72SLPC  H13R 6311   6.449   0.883   8.859 -1.2075  1.2372  0.6568
   72SLPC  C214 6312   6.345   0.688   8.804  0.1450  0.4957  0.8993
   72SLPC  H14R 6313   6.301   0.597   8.850  0.4682 -0.1258 -0.0121
   72SLPC  H14S 6314   6.422   0.651   8.733 -1.1970 -0.1380 -0.2774
   72SLPC  C215 6315   6.237   0.753   8.715 -0.4286  0.1845 -0.4548
   72SLPC  H15R 6316   6.166   0.818   8.771 -0.4526 -1.5174  1.6233
   72SLPC  H15S 6317   6.179   0.676   8.660 -0.7900  0.0547  0.0968
   72SLPC  C216 6318   6.287   0.839   8.602 -0.4414 -0.9664  0.4629
   72SLPC  H16R 6319   6.368   0.776   8.557  0.2430 -0.5560  1.0984
   72SLPC  H16S 6320   6.335   0.929   8.645 -2.6873  0.8249 -0.5964
   72SLPC  C217 6321   6.182   0.877   8.498 -0.8941 -0.2764  0.0156
   72SLPC  H17R 6322   6.117   0.787   8.488  1.8046 -2.3274 -0.3667
   72SLPC  H17S 6323   6.236   0.901   8.404 -0.9290  2.8028  0.7046
   72SLPC  C218 6324   6.098   0.992   8.532 -0.8759  0.0144  0.0783
   72SLPC  H18R 6325   6.087   0.994   8.642 -0.0113 -0.7880  0.1883
   72SLPC  H18S 6326   5.999   0.996   8.482 -0.2177  2.8771 -1.2445
   72SLPC  H18T 6327   6.155   1.088   8.524 -0.2338 -0.3028  0.7790
   72SLPC   C33 6328   5.678   0.824  10.125  0.3248  0.0746 -0.4728
   72SLPC   H3X 6329   5.744   0.910  10.146  0.4623 -0.1913  0.2219
   72SLPC   H3Y 6330   5.585   0.855  10.073 -0.7983  1.3058  2.0569
   72SLPC   C34 6331   5.747   0.719  10.035 -0.7817 -0.1069 -0.3802
   72SLPC   H4X 6332   5.695   0.621  10.027 -0.5609 -0.5343  2.3552
   72SLPC   H4Y 6333   5.838   0.687  10.090 -0.4023 -0.6201 -1.3003
   72SLPC   C35 6334   5.773   0.785   9.894 -0.4969 -0.5210  0.0542
   72SLPC   H5X 6335   5.799   0.893   9.900 -3.4888  0.1784  3.9744
   72SLPC   H5Y 6336   5.680   0.784   9.833 -1.6091 -1.2941  1.7003
   72SLPC   C36 6337   5.880   0.702   9.830 -0.5920  0.8499  0.4427
   72SLPC   H6X 6338   5.829   0.606   9.806 -1.0853  1.1178  0.3950
   72SLPC   H6Y 6339   5.965   0.679   9.897 -0.2007 -0.7637 -0.5558
   72SLPC   C37 6340   5.933   0.767   9.703 -0.5879  0.4499 -0.0071
   72SLPC   H7X 6341   6.020   0.714   9.660 -1.2363  1.2300 -2.4311
   72SLPC   H7Y 6342   5.975   0.865   9.735  0.4526 -0.3110  1.0201
   72SLPC   C38 6343   5.825   0.787   9.591  0.0413  0.1136  0.1819
   72SLPC   H8X 6344   5.731   0.834   9.628 -1.1757 -2.8208  1.1324
   72SLPC   H8Y 6345   5.791   0.683   9.568  0.6273 -0.3424  1.3056
   72SLPC   C39 6346   5.879   0.853   9.464  0.6902  0.3945 -0.0347
   72SLPC   H9X 6347   5.987   0.831   9.450  0.1756 -1.2558 -1.8643
   72SLPC   H9Y 6348   5.853   0.960   9.475  0.3715  0.2982  0.1607
   72SLPC  C310 6349   5.816   0.808   9.333  0.3106 -0.3472 -0.0304
   72SLPC  H10X 6350   5.708   0.832   9.318  0.3740  1.7917  2.3474
   72SLPC  H10Y 6351   5.813   0.697   9.330 -0.9352 -0.3237 -1.8662
   72SLPC  C311 6352   5.898   0.867   9.213  0.1235 -0.4752  0.3301
   72SLPC  H11X 6353   5.998   0.818   9.218  0.1616 -0.3847  0.4780
   72SLPC  H11Y 6354   5.898   0.977   9.224 -1.0008 -0.3587 -0.6301
   72SLPC  C312 6355   5.828   0.838   9.082 -0.4798 -0.0997 -0.9818
   72SLPC  H12X 6356   5.725   0.875   9.097 -0.0284  0.9879 -0.4362
   72SLPC  H12Y 6357   5.832   0.729   9.064 -0.5305 -0.5786  1.6056
   72SLPC  C313 6358   5.875   0.930   8.964 -0.4999 -0.4284  0.7553
   72SLPC  H13X 6359   5.977   0.893   8.944 -0.3387  0.2748  0.2386
   72SLPC  H13Y 6360   5.885   1.029   9.014  1.6771 -0.6728  0.8710
   72SLPC  C314 6361   5.788   0.930   8.840  0.4766  0.1933 -0.5752
   72SLPC  H14X 6362   5.815   1.017   8.778  0.5491  1.3191  0.9866
   72SLPC  H14Y 6363   5.681   0.927   8.870  0.6448  2.1955  0.3991
   72SLPC  C315 6364   5.819   0.799   8.758 -0.6411  0.7337  0.1852
   72SLPC  H15X 6365   5.805   0.716   8.830  1.0824  0.5119  0.3044
   72SLPC  H15Y 6366   5.926   0.802   8.726 -0.9187  1.5823 -0.6900
   72SLPC  C316 6367   5.737   0.778   8.634 -1.2864 -0.0250 -0.5107
   72SLPC  H16X 6368   5.809   0.734   8.562 -0.9501 -0.0231 -0.1789
   72SLPC  H16Y 6369   5.697   0.877   8.602  1.1601  1.8211  1.6944
   72SLPC  C317 6370   5.616   0.690   8.659 -0.2787  0.1850 -0.0342
   72SLPC  H17X 6371   5.573   0.731   8.753  0.7541  3.0151 -0.6971
   72SLPC  H17Y 6372   5.649   0.588   8.689  0.1218 -0.3335 -2.1138
   72SLPC  C318 6373   5.514   0.679   8.554  0.6813 -0.4520 -0.5807
   72SLPC  H18X 6374   5.465   0.772   8.518  0.3533  0.0622  1.0970
   72SLPC  H18Y 6375   5.433   0.604   8.566 -0.7325  0.9939 -0.7039
   72SLPC  H18Z 6376   5.570   0.642   8.466  0.3628  0.8157 -1.3329
   73SLPC     N 6377   4.630   5.644  10.857  0.2486  0.4093 -0.3554
   73SLPC   C13 6378   4.564   5.722  10.963  1.4361 -0.4562 -1.0801
   73SLPC  H13A 6379   4.468   5.675  10.977  2.0002 -0.9328  2.0584
   73SLPC  H13B 6380   4.618   5.700  11.054 -0.6040 -1.1959  0.0227
   73SLPC  H13C 6381   4.554   5.828  10.945 -1.7601 -0.3180  0.6656
   73SLPC   C14 6382   4.652   5.507  10.895  0.0869  1.3553 -0.2924
   73SLPC  H14A 6383   4.691   5.454  10.810  2.3632  2.3792  0.0572
   73SLPC  H14B 6384   4.721   5.489  10.975  0.6029 -3.0956 -1.4767
   73SLPC  H14C 6385   4.569   5.449  10.932  0.1628  0.6368 -1.2190
   73SLPC   C15 6386   4.759   5.692  10.821  0.0210 -0.1642  0.0226
   73SLPC  H15A 6387   4.793   5.670  10.721 -2.4463 -1.7134 -0.5745
   73SLPC  H15B 6388   4.750   5.799  10.820 -0.4905 -0.1899  1.0559
   73SLPC  H15C 6389   4.841   5.673  10.889  1.7856 -1.1083 -2.2098
   73SLPC   C12 6390   4.540   5.639  10.733  0.1727  0.2998  0.2516
   73SLPC  H12A 6391   4.448   5.592  10.762  0.9050 -1.0154  0.5202
   73SLPC  H12B 6392   4.587   5.571  10.664 -0.2592 -0.3564  0.6035
   73SLPC   C11 6393   4.527   5.769  10.651 -0.1322 -0.6558 -0.3645
   73SLPC  H11A 6394   4.475   5.756  10.554  1.1168 -0.1156 -1.1261
   73SLPC  H11B 6395   4.628   5.791  10.610  0.5647  0.5120  1.7962
   73SLPC     P 6396   4.314   5.884  10.744 -0.1227 -0.0336 -0.0650
   73SLPC   O13 6397   4.265   5.767  10.824  0.0247 -0.1486  0.4252
   73SLPC   O14 6398   4.265   6.014  10.792  0.2386 -0.2161 -0.4112
   73SLPC   O12 6399   4.470   5.873  10.735  0.3980 -0.2121  0.4606
   73SLPC   O11 6400   4.264   5.868  10.593 -0.0273  0.2149 -0.1824
   73SLPC    C1 6401   4.314   5.966  10.493 -0.0537  0.2062 -0.5934
   73SLPC    HA 6402   4.336   6.067  10.534  1.4281 -0.6026  0.7171
   73SLPC    HB 6403   4.414   5.937  10.456  0.7506  0.9649  0.9117
   73SLPC    C2 6404   4.220   5.970  10.368 -0.1256  0.3526 -0.3391
   73SLPC    HS 6405   4.223   5.866  10.331 -0.1951 -0.6800  2.3104
   73SLPC   O21 6406   4.275   6.072  10.277 -0.3370 -0.1881  0.3370
   73SLPC   C21 6407   4.340   6.026  10.170 -0.3095 -0.4314 -0.6875
   73SLPC   O22 6408   4.358   5.909  10.146  0.0421  0.6818 -0.4937
   73SLPC   C22 6409   4.396   6.150  10.102  0.4833  0.2201  0.1806
   73SLPC   H2R 6410   4.308   6.195  10.051  0.3638  0.7364  0.8327
   73SLPC   H2S 6411   4.451   6.212  10.175  0.3012  1.6280 -0.8394
   73SLPC    C3 6412   4.073   6.001  10.406  0.8804 -0.5042 -0.0638
   73SLPC    HX 6413   4.073   6.102  10.453 -2.1173  0.0119 -0.9719
   73SLPC    HY 6414   4.048   5.925  10.484  1.3838 -0.4431  0.1594
   73SLPC   O31 6415   3.981   5.997  10.287 -0.2212  0.1630 -0.2093
   73SLPC   C31 6416   3.953   5.875  10.248  0.5156  1.6368  0.5094
   73SLPC   O32 6417   3.970   5.766  10.305 -0.4910 -0.1228 -0.5722
   73SLPC   C32 6418   3.885   5.879  10.114 -0.3266  0.5926 -0.3009
   73SLPC   H2X 6419   3.808   5.958  10.114  0.3190  1.2773  1.5439
   73SLPC   H2Y 6420   3.841   5.779  10.092  2.1891 -0.9173  0.9512
   73SLPC   C23 6421   4.487   6.101   9.990  0.2493 -0.4567  0.5082
   73SLPC   H3R 6422   4.550   6.015  10.020  0.6101  0.4250  2.4768
   73SLPC   H3S 6423   4.559   6.183   9.968 -0.3419  0.1975  0.9629
   73SLPC   C24 6424   4.414   6.068   9.860  0.5977  0.4813  0.0930
   73SLPC   H4R 6425   4.353   6.151   9.820  0.9504  0.0598 -1.3960
   73SLPC   H4S 6426   4.358   5.974   9.877 -0.6862  1.3975  1.1041
   73SLPC   C25 6427   4.517   6.036   9.746  0.5484 -0.5355 -0.1606
   73SLPC   H5R 6428   4.589   5.963   9.790  1.5417  0.8287  0.5395
   73SLPC   H5S 6429   4.563   6.136   9.734 -0.6726  0.0504 -0.0795
   73SLPC   C26 6430   4.451   5.990   9.615 -0.1715 -0.4281  0.1762
   73SLPC   H6R 6431   4.390   6.072   9.572  1.2779 -0.4869 -2.1787
   73SLPC   H6S 6432   4.380   5.910   9.644 -0.7298 -0.3610 -0.9633
   73SLPC   C27 6433   4.561   5.950   9.515  0.0821 -0.5505  0.4660
   73SLPC   H7R 6434   4.594   5.847   9.542 -2.8815 -0.9074  3.2756
   73SLPC   H7S 6435   4.639   6.025   9.541 -1.8369  1.3977  0.8786
   73SLPC   C28 6436   4.525   5.965   9.365  0.8440 -1.0324  0.1635
   73SLPC   H8R 6437   4.620   5.925   9.324  2.1998  0.0523  2.1050
   73SLPC   H8S 6438   4.523   6.073   9.338 -1.1705 -1.3070 -0.9769
   73SLPC   C29 6439   4.393   5.896   9.328  0.3110  0.6358 -0.0071
   73SLPC   H9R 6440   4.313   5.918   9.401  0.3803  1.4649 -0.1646
   73SLPC  C210 6441   4.345   5.834   9.214  0.1558  0.5376 -0.4053
   73SLPC  H10R 6442   4.239   5.804   9.212  0.6161 -1.2415  0.0925
   73SLPC  C211 6443   4.427   5.810   9.088  0.2680 -0.4513 -0.6033
   73SLPC  H11R 6444   4.419   5.708   9.043 -0.6256 -0.4513 -0.4434
   73SLPC  H11S 6445   4.537   5.816   9.104  0.2774 -0.3688 -0.6984
   73SLPC  C212 6446   4.403   5.912   8.980 -0.6940 -0.4535 -0.0220
   73SLPC  H12R 6447   4.426   6.016   9.008 -0.3722  0.4610 -3.2017
   73SLPC  C213 6448   4.378   5.896   8.849 -0.7085 -0.6713  0.6586
   73SLPC  H13R 6449   4.368   5.995   8.802  3.4813  0.7872  2.3337
   73SLPC  C214 6450   4.358   5.777   8.767  0.1085 -0.0462 -0.5983
   73SLPC  H14R 6451   4.393   5.688   8.825  0.1965  0.8192  0.7164
   73SLPC  H14S 6452   4.417   5.770   8.672  0.0529 -5.2998 -0.5841
   73SLPC  C215 6453   4.214   5.756   8.713 -0.1641  0.0970  0.4170
   73SLPC  H15R 6454   4.197   5.824   8.626  0.0649 -1.0531 -0.5623
   73SLPC  H15S 6455   4.144   5.775   8.797 -0.7793 -1.3584  0.2683
   73SLPC  C216 6456   4.178   5.618   8.677  0.1985 -0.9683  0.0213
   73SLPC  H16R 6457   4.201   5.546   8.757  0.8178 -0.3214  0.4334
   73SLPC  H16S 6458   4.235   5.582   8.589  0.7154  0.6409 -0.3389
   73SLPC  C217 6459   4.030   5.608   8.638  0.6605  0.2855  0.5397
   73SLPC  H17R 6460   4.002   5.695   8.575  0.0005  1.1401  1.9553
   73SLPC  H17S 6461   3.971   5.612   8.732 -1.3571 -1.8993 -0.5430
   73SLPC  C218 6462   3.999   5.480   8.566  0.4231 -0.6993  0.7669
   73SLPC  H18R 6463   4.078   5.451   8.493  0.7646 -1.1436  1.2945
   73SLPC  H18S 6464   3.906   5.484   8.506  0.2556  0.8079  1.0882
   73SLPC  H18T 6465   3.996   5.395   8.638  0.4471 -0.0789  1.5167
   73SLPC   C33 6466   3.992   5.915  10.012 -0.1625  0.0197 -0.5984
   73SLPC   H3X 6467   4.084   5.856  10.026  0.3960  1.1199  0.6671
   73SLPC   H3Y 6468   4.019   6.023  10.012  2.5555 -0.5924 -0.5457
   73SLPC   C34 6469   3.944   5.875   9.874  0.5487 -0.2579  0.3683
   73SLPC   H4X 6470   3.840   5.836   9.879  1.0528 -1.5378  1.9356
   73SLPC   H4Y 6471   4.011   5.802   9.825  0.2894 -0.0967 -0.2276
   73SLPC   C35 6472   3.949   5.992   9.772  0.1230 -0.0877  0.1620
   73SLPC   H5X 6473   3.870   6.068   9.795 -0.9027  0.5492 -4.4960
   73SLPC   H5Y 6474   3.902   5.964   9.675  2.2727  1.6530 -1.5021
   73SLPC   C36 6475   4.083   6.066   9.755 -0.0325  0.0979  0.5590
   73SLPC   H6X 6476   4.152   5.989   9.714 -0.0185  0.4912 -0.1779
   73SLPC   H6Y 6477   4.111   6.107   9.854  0.2374 -0.9624  0.9345
   73SLPC   C37 6478   4.066   6.180   9.648 -0.6012  0.7574  0.4924
   73SLPC   H7X 6479   4.170   6.215   9.630  0.4781 -3.0004 -1.9015
   73SLPC   H7Y 6480   3.996   6.256   9.688 -1.8601 -0.0990 -0.0245
   73SLPC   C38 6481   4.005   6.147   9.517  0.1470  0.4764  0.3227
   73SLPC   H8X 6482   3.895   6.130   9.516  0.0289  1.1816  0.3814
   73SLPC   H8Y 6483   4.064   6.058   9.487  0.2623 -0.2088  2.4465
   73SLPC   C39 6484   4.032   6.267   9.421 -0.1945  0.2211 -0.1363
   73SLPC   H9X 6485   4.142   6.280   9.418 -0.0418 -0.5564 -4.2481
   73SLPC   H9Y 6486   3.985   6.360   9.458  2.2577  1.0309  1.1787
   73SLPC  C310 6487   3.992   6.246   9.276  0.2680 -0.5280  0.5341
   73SLPC  H10X 6488   4.023   6.336   9.220  0.5447  0.2126  1.8493
   73SLPC  H10Y 6489   3.882   6.235   9.263  0.2505  0.7074 -0.4544
   73SLPC  C311 6490   4.063   6.122   9.210 -0.1277  0.5306  0.0304
   73SLPC  H11X 6491   4.025   6.030   9.259 -2.4245  0.7635 -1.1726
   73SLPC  H11Y 6492   4.173   6.135   9.217  0.0573 -0.9432  0.0502
   73SLPC  C312 6493   4.044   6.107   9.057  0.3515 -0.0147  0.0490
   73SLPC  H12X 6494   4.086   6.015   9.012 -1.1405 -0.4948 -0.4200
   73SLPC  H12Y 6495   4.076   6.203   9.011  0.6236 -0.4672 -0.7234
   73SLPC  C313 6496   3.895   6.101   9.021  1.0261 -0.4615  0.7223
   73SLPC  H13X 6497   3.848   6.198   9.047  0.3850 -1.0515  1.8254
   73SLPC  H13Y 6498   3.840   6.029   9.086 -2.9688  0.9894 -0.7290
   73SLPC  C314 6499   3.871   6.065   8.874  0.6833  0.5396 -0.2726
   73SLPC  H14X 6500   3.763   6.062   8.848  0.4824 -2.8569  0.4180
   73SLPC  H14Y 6501   3.906   5.961   8.853 -2.1822 -0.5988  0.1370
   73SLPC  C315 6502   3.937   6.166   8.774 -0.4416  0.4410  0.1206
   73SLPC  H15X 6503   4.045   6.176   8.794  0.3684 -3.7364 -1.2397
   73SLPC  H15Y 6504   3.897   6.269   8.791  0.1731  0.5889  0.7141
   73SLPC  C316 6505   3.919   6.133   8.624  0.0224  0.4671  0.2686
   73SLPC  H16X 6506   3.990   6.201   8.571 -0.6984  0.1688 -1.1315
   73SLPC  H16Y 6507   3.812   6.156   8.604  0.0929 -0.9522 -2.1322
   73SLPC  C317 6508   3.935   5.988   8.592  0.2789  0.0813  0.0577
   73SLPC  H17X 6509   3.866   5.932   8.659 -1.3399  1.7066 -0.1894
   73SLPC  H17Y 6510   4.041   5.959   8.608 -0.1702 -1.8670 -0.1955
   73SLPC  C318 6511   3.900   5.961   8.443  0.1680  0.5206  0.2130
   73SLPC  H18X 6512   3.974   6.009   8.376  0.6322  0.4603  0.6815
   73SLPC  H18Y 6513   3.795   5.990   8.421 -1.4635 -2.2658  3.3895
   73SLPC  H18Z 6514   3.908   5.851   8.426  0.4519  0.1792  2.2240
   74SLPC     N 6515   1.895   1.268  10.971  0.9422 -0.0612 -0.1214
   74SLPC   C13 6516   1.785   1.366  11.020 -0.3554 -0.1391 -0.3453
   74SLPC  H13A 6517   1.811   1.465  10.986 -2.2030  0.7476  0.6776
   74SLPC  H13B 6518   1.687   1.337  10.984  0.1570  0.9609 -2.8209
   74SLPC  H13C 6519   1.788   1.368  11.128  1.2421 -2.4029 -0.2671
   74SLPC   C14 6520   1.855   1.128  10.996  0.3739 -0.0018  0.0179
   74SLPC  H14A 6521   1.933   1.059  10.969  0.4348 -0.0602  0.3422
   74SLPC  H14B 6522   1.836   1.124  11.102 -1.9944  4.6737  0.0225
   74SLPC  H14C 6523   1.763   1.100  10.947  0.5556 -1.2789  0.3814
   74SLPC   C15 6524   2.022   1.285  11.054 -0.4627 -0.6413 -0.5106
   74SLPC  H15A 6525   2.015   1.282  11.161 -0.1439 -0.6697 -0.4898
   74SLPC  H15B 6526   2.095   1.213  11.018 -1.5500 -2.4950  0.8458
   74SLPC  H15C 6527   2.053   1.387  11.035 -0.5824 -0.9337 -2.5231
   74SLPC   C12 6528   1.915   1.300  10.819  0.0633  0.9717  0.5942
   74SLPC  H12A 6529   1.822   1.283  10.767  1.2824 -1.5423 -0.9491
   74SLPC  H12B 6530   1.996   1.241  10.780 -1.9372 -1.2254 -0.5136
   74SLPC   C11 6531   1.961   1.446  10.792  0.8094  0.2140  0.2665
   74SLPC  H11A 6532   1.988   1.446  10.684 -2.4200  0.2532 -0.6465
   74SLPC  H11B 6533   2.046   1.467  10.861  0.7372  0.7498  0.2000
   74SLPC     P 6534   1.740   1.573  10.722 -0.4745  0.2652 -0.1919
   74SLPC   O13 6535   1.693   1.452  10.652  0.5978  0.3396 -0.9515
   74SLPC   O14 6536   1.640   1.648  10.797 -0.4154  0.2277  0.2440
   74SLPC   O12 6537   1.861   1.540  10.823 -0.1895 -0.1900  0.3229
   74SLPC   O11 6538   1.804   1.659  10.609 -0.0104 -0.3534  0.4521
   74SLPC    C1 6539   1.883   1.778  10.638  0.4800 -0.2398 -0.7437
   74SLPC    HA 6540   1.826   1.870  10.665 -0.1821 -2.1242  5.9245
   74SLPC    HB 6541   1.958   1.749  10.713 -0.4846 -2.2657 -0.4817
   74SLPC    C2 6542   1.972   1.812  10.519  0.2160  0.3560 -0.3284
   74SLPC    HS 6543   2.069   1.861  10.542  0.3895  0.0874 -0.4765
   74SLPC   O21 6544   1.894   1.885  10.421 -0.4471 -0.4605 -0.8535
   74SLPC   C21 6545   1.906   2.021  10.430  0.1730  0.4403  0.4437
   74SLPC   O22 6546   1.967   2.081  10.519 -0.4453  0.4169 -0.0149
   74SLPC   C22 6547   1.842   2.079  10.300  0.0869 -0.2963  0.2085
   74SLPC   H2R 6548   1.800   1.990  10.248  0.0571 -0.3031  0.2447
   74SLPC   H2S 6549   1.761   2.152  10.322 -0.3893 -1.1988  1.5138
   74SLPC    C3 6550   2.025   1.688  10.445 -0.1480  0.1185 -0.5498
   74SLPC    HX 6551   1.940   1.619  10.426  0.9492 -1.8683  1.3193
   74SLPC    HY 6552   2.091   1.629  10.512 -2.4852 -0.7899  1.0942
   74SLPC   O31 6553   2.086   1.736  10.316  0.0914 -0.2650  0.5271
   74SLPC   C31 6554   2.154   1.629  10.257 -0.2549 -0.4553  0.5034
   74SLPC   O32 6555   2.152   1.518  10.292  0.1442  0.6390  0.0471
   74SLPC   C32 6556   2.236   1.678  10.132  0.1483 -0.4069 -0.1140
   74SLPC   H2X 6557   2.345   1.662  10.149  0.6522  0.3609 -2.2669
   74SLPC   H2Y 6558   2.227   1.788  10.134  1.5453 -0.2664  1.8664
   74SLPC   C23 6559   1.938   2.165  10.227  0.4641  0.5976  0.9279
   74SLPC   H3R 6560   1.940   2.274  10.246 -0.1426  0.6571  0.6558
   74SLPC   H3S 6561   1.890   2.170  10.127  0.4518 -0.2359  0.8825
   74SLPC   C24 6562   2.083   2.121  10.217 -0.4611 -0.3392 -0.5558
   74SLPC   H4R 6563   2.086   2.014  10.189 -1.3128 -0.4271 -0.3307
   74SLPC   H4S 6564   2.152   2.136  10.303 -0.1768 -0.5226 -0.7512
   74SLPC   C25 6565   2.145   2.207  10.104 -0.2225 -0.2543  0.7868
   74SLPC   H5R 6566   2.130   2.315  10.129  0.1347 -0.3261  1.3418
   74SLPC   H5S 6567   2.083   2.183  10.015  1.8228 -1.1689 -0.4557
   74SLPC   C26 6568   2.295   2.181  10.080  0.0580  0.6932  0.2860
   74SLPC   H6R 6569   2.314   2.080  10.037 -1.7634  0.5184 -0.1734
   74SLPC   H6S 6570   2.348   2.185  10.178 -2.0710  2.6856  1.4731
   74SLPC   C27 6571   2.358   2.284   9.985 -0.9480 -0.8457 -0.5677
   74SLPC   H7R 6572   2.355   2.388  10.022 -0.2681 -0.3410 -1.8736
   74SLPC   H7S 6573   2.310   2.278   9.884 -1.9011  0.7848 -0.2460
   74SLPC   C28 6574   2.513   2.262   9.965 -0.2906  0.6174  0.1648
   74SLPC   H8R 6575   2.515   2.158   9.927 -0.4027  1.1428 -1.3701
   74SLPC   H8S 6576   2.573   2.271  10.058  1.1147  0.9040 -0.7355
   74SLPC   C29 6577   2.573   2.367   9.870 -0.1414  0.5506 -0.7830
   74SLPC   H9R 6578   2.542   2.470   9.894  0.6063  0.9560 -1.4822
   74SLPC  C210 6579   2.678   2.342   9.779 -0.3348  0.2449 -0.4449
   74SLPC  H10R 6580   2.707   2.424   9.711  3.3848  1.6017  2.4501
   74SLPC  C211 6581   2.736   2.205   9.745 -0.3505 -0.4855  0.4736
   74SLPC  H11R 6582   2.697   2.188   9.643  0.5983  0.6972 -0.1154
   74SLPC  H11S 6583   2.691   2.135   9.818 -0.9744  0.5882  1.1432
   74SLPC  C212 6584   2.886   2.210   9.755  0.4872  0.2398 -0.3640
   74SLPC  H12R 6585   2.919   2.195   9.859  0.0808  0.9528 -0.1249
   74SLPC  C213 6586   2.976   2.204   9.650 -0.1581 -0.5382  0.8885
   74SLPC  H13R 6587   3.085   2.210   9.666  0.3491 -2.5542 -1.2101
   74SLPC  C214 6588   2.954   2.195   9.502  0.0496  0.2121 -0.2273
   74SLPC  H14R 6589   2.846   2.221   9.493 -0.0487  1.3028  2.8733
   74SLPC  H14S 6590   2.979   2.093   9.465  1.1127 -0.1908  1.4632
   74SLPC  C215 6591   3.033   2.312   9.439  0.1717 -0.2011  0.1851
   74SLPC  H15R 6592   3.143   2.300   9.440  0.3637  1.3787  0.5964
   74SLPC  H15S 6593   3.016   2.408   9.493  3.3278  0.3830  0.3192
   74SLPC  C216 6594   3.000   2.335   9.293 -0.6721  0.3065 -0.7629
   74SLPC  H16R 6595   3.074   2.409   9.254 -0.8582  1.1288  0.3822
   74SLPC  H16S 6596   2.900   2.382   9.278  0.2327  2.4400 -0.5304
   74SLPC  C217 6597   3.028   2.211   9.211 -0.7283 -0.0076 -0.6347
   74SLPC  H17R 6598   2.947   2.138   9.234 -0.5844  0.2986  0.9385
   74SLPC  H17S 6599   3.121   2.174   9.260 -0.6924  1.9631  0.9098
   74SLPC  C218 6600   3.043   2.222   9.060 -0.5085 -0.0470 -0.6483
   74SLPC  H18R 6601   2.954   2.268   9.012 -0.4936  1.6668  0.8522
   74SLPC  H18S 6602   3.066   2.126   9.008 -1.1286 -0.6156  0.1105
   74SLPC  H18T 6603   3.120   2.299   9.036 -1.1869  0.9525  0.3075
   74SLPC   C33 6604   2.202   1.630   9.989 -0.5321 -0.2646  0.9817
   74SLPC   H3X 6605   2.106   1.682   9.972 -0.4523  0.0310  1.4024
   74SLPC   H3Y 6606   2.183   1.520   9.989  0.9906 -0.5602  0.6865
   74SLPC   C34 6607   2.313   1.668   9.892 -0.1655  0.2696  1.1346
   74SLPC   H4X 6608   2.307   1.611   9.797  1.7877  0.1279  1.0497
   74SLPC   H4Y 6609   2.412   1.641   9.935  0.6572  2.2848  0.6210
   74SLPC   C35 6610   2.309   1.822   9.867  0.1983  0.3402 -0.0214
   74SLPC   H5X 6611   2.392   1.858   9.803 -0.0404  3.3728  1.2042
   74SLPC   H5Y 6612   2.316   1.884   9.959 -1.3682 -2.3099  2.0622
   74SLPC   C36 6613   2.178   1.861   9.788  0.3377  0.8710 -0.8563
   74SLPC   H6X 6614   2.091   1.840   9.853  0.7709 -3.3816 -1.3740
   74SLPC   H6Y 6615   2.165   1.784   9.709  0.8794  1.8321 -1.9167
   74SLPC   C37 6616   2.187   2.004   9.739 -0.0292  0.0456 -0.4072
   74SLPC   H7X 6617   2.280   2.021   9.679  1.4904  0.1392  1.8430
   74SLPC   H7Y 6618   2.186   2.072   9.828 -1.2589 -1.4096  0.7361
   74SLPC   C38 6619   2.070   2.048   9.644  0.0833 -0.7856  0.0882
   74SLPC   H8X 6620   1.995   2.094   9.712 -0.1947  0.0594 -0.7785
   74SLPC   H8Y 6621   2.021   1.960   9.597  1.4380 -1.8990  0.7061
   74SLPC   C39 6622   2.118   2.152   9.536  0.4066 -0.4360  0.0377
   74SLPC   H9X 6623   2.197   2.093   9.483  0.5244 -1.2302  1.0725
   74SLPC   H9Y 6624   2.159   2.240   9.589 -1.1770  0.0499  0.5083
   74SLPC  C310 6625   2.005   2.190   9.441 -0.3345  0.6851  0.1358
   74SLPC  H10X 6626   1.911   2.198   9.499  0.7669 -1.0731  2.3372
   74SLPC  H10Y 6627   1.992   2.104   9.371  2.7283  0.8074 -0.7280
   74SLPC  C311 6628   2.018   2.334   9.384  0.2117  0.0385  0.3327
   74SLPC  H11X 6629   2.015   2.403   9.471 -0.4752  4.8000 -3.0419
   74SLPC  H11Y 6630   1.933   2.360   9.317  0.6597  0.4577 -0.0790
   74SLPC  C312 6631   2.145   2.367   9.300 -0.0148 -0.1014  0.0009
   74SLPC  H12X 6632   2.239   2.335   9.351  1.2338  0.9574 -1.5302
   74SLPC  H12Y 6633   2.167   2.475   9.283  3.7707 -0.4086  1.8442
   74SLPC  C313 6634   2.138   2.304   9.159  0.1953  1.1324  0.7766
   74SLPC  H13X 6635   2.043   2.330   9.109 -0.1900  0.2608  1.0228
   74SLPC  H13Y 6636   2.122   2.195   9.176  0.9436  0.7575 -0.7188
   74SLPC  C314 6637   2.263   2.331   9.072  0.6533 -0.5672  0.3666
   74SLPC  H14X 6638   2.353   2.307   9.131  0.7768 -0.5947  0.1665
   74SLPC  H14Y 6639   2.265   2.441   9.057 -1.0651 -0.3585  1.3047
   74SLPC  C315 6640   2.262   2.246   8.935  0.4306 -0.2247  0.3128
   74SLPC  H15X 6641   2.284   2.141   8.964  0.1449 -1.0010 -2.0512
   74SLPC  H15Y 6642   2.353   2.282   8.883 -0.0364  0.4433 -0.0665
   74SLPC  C316 6643   2.140   2.278   8.847  0.6154 -0.2817 -0.0442
   74SLPC  H16X 6644   2.141   2.385   8.820 -1.1441 -0.7874 -2.4651
   74SLPC  H16Y 6645   2.044   2.257   8.899  1.1078 -1.4073  0.4475
   74SLPC  C317 6646   2.148   2.190   8.723 -0.3833  0.9359  0.1111
   74SLPC  H17X 6647   2.147   2.084   8.756 -1.0277  1.2146  1.0312
   74SLPC  H17Y 6648   2.249   2.209   8.682  0.2619 -1.6937  0.2816
   74SLPC  C318 6649   2.046   2.231   8.614  0.1193  0.1414  0.0001
   74SLPC  H18X 6650   2.031   2.154   8.536  2.3248 -0.4827  0.1219
   74SLPC  H18Y 6651   2.092   2.322   8.570 -0.6390  0.3890 -0.3114
   74SLPC  H18Z 6652   1.947   2.244   8.663  0.4658  1.1486  0.4418
   75SLPC     N 6653   3.953   2.161   6.345 -0.0631 -0.5018  0.5070
   75SLPC   C13 6654   3.902   2.219   6.469 -0.0191  0.4895  1.3718
   75SLPC  H13A 6655   3.883   2.138   6.538  0.4765 -1.9090 -1.1269
   75SLPC  H13B 6656   3.977   2.277   6.521  0.2479  0.1450  1.3697
   75SLPC  H13C 6657   3.813   2.280   6.463  0.9634  1.8946  0.5454
   75SLPC   C14 6658   4.025   2.265   6.272 -0.0794 -0.3357 -0.2287
   75SLPC  H14A 6659   4.078   2.332   6.338  1.5806  0.4352 -2.2510
   75SLPC  H14B 6660   4.093   2.215   6.205 -1.1505 -1.0788 -0.7838
   75SLPC  H14C 6661   3.951   2.329   6.225 -0.0258  1.4965  1.9533
   75SLPC   C15 6662   3.853   2.097   6.249 -0.3918 -0.5686 -0.8503
   75SLPC  H15A 6663   3.802   2.025   6.312 -1.7656  1.6345  0.7056
   75SLPC  H15B 6664   3.773   2.167   6.229  0.3864  1.1040  1.4120
   75SLPC  H15C 6665   3.894   2.052   6.160  0.1442  0.2937 -1.0530
   75SLPC   C12 6666   4.067   2.055   6.372  0.4413  0.3743  0.7238
   75SLPC  H12A 6667   4.154   2.105   6.411  1.3007 -0.0732 -0.5456
   75SLPC  H12B 6668   4.104   2.038   6.272 -1.5082  0.1736 -0.0102
   75SLPC   C11 6669   4.025   1.917   6.432 -0.2508  0.2488 -0.4456
   75SLPC  H11A 6670   4.111   1.847   6.420 -0.8889 -0.3500 -1.7367
   75SLPC  H11B 6671   3.940   1.878   6.372  0.0414 -2.0020  0.4984
   75SLPC     P 6672   3.909   1.791   6.627 -0.1590 -0.5163  0.3017
   75SLPC   O13 6673   3.790   1.773   6.539  0.1308 -0.1058  0.0480
   75SLPC   O14 6674   3.996   1.677   6.652 -0.1588 -0.1817  0.5941
   75SLPC   O12 6675   3.992   1.916   6.568  0.5539 -0.1255  0.8163
   75SLPC   O11 6676   3.876   1.847   6.771  0.3801  0.2325 -0.2924
   75SLPC    C1 6677   3.836   1.978   6.806 -0.2249  0.3948 -0.0079
   75SLPC    HA 6678   3.904   2.020   6.884 -0.7385  1.9643 -0.3556
   75SLPC    HB 6679   3.831   2.040   6.714  1.4156 -0.5116 -0.7511
   75SLPC    C2 6680   3.699   1.970   6.880  0.4505 -0.3568 -0.9277
   75SLPC    HS 6681   3.648   2.068   6.871  0.6012 -0.2426 -0.5607
   75SLPC   O21 6682   3.715   1.936   7.027 -0.1906  0.6338  0.2158
   75SLPC   C21 6683   3.736   2.046   7.103  0.2814  0.4913  0.3263
   75SLPC   O22 6684   3.720   2.159   7.058 -0.1111 -0.2325 -0.7975
   75SLPC   C22 6685   3.757   2.003   7.244  0.0940  0.5354 -0.4181
   75SLPC   H2R 6686   3.696   1.914   7.272  1.9857 -0.1670  1.6943
   75SLPC   H2S 6687   3.863   1.978   7.262 -0.0293 -1.0074 -1.6092
   75SLPC    C3 6688   3.607   1.853   6.825 -0.2000 -0.5672  0.8959
   75SLPC    HX 6689   3.661   1.756   6.820 -2.3520 -1.8214  0.9924
   75SLPC    HY 6690   3.574   1.893   6.727 -3.0072  0.3075  2.0857
   75SLPC   O31 6691   3.484   1.846   6.901 -0.3019 -0.1627 -0.7306
   75SLPC   C31 6692   3.411   1.743   6.853  0.2023  0.9803 -0.5441
   75SLPC   O32 6693   3.436   1.679   6.753 -0.5822 -0.5598  0.1508
   75SLPC   C32 6694   3.286   1.729   6.927  0.3426  0.0223 -0.7753
   75SLPC   H2X 6695   3.212   1.671   6.867 -0.3028  0.0654 -0.0434
   75SLPC   H2Y 6696   3.242   1.829   6.950  1.9090  0.0448  2.6598
   75SLPC   C23 6697   3.723   2.111   7.356  0.4581  0.5478  0.1214
   75SLPC   H3R 6698   3.613   2.121   7.364  0.2445  0.7765 -2.2229
   75SLPC   H3S 6699   3.770   2.208   7.329 -1.4631  1.8951  1.4125
   75SLPC   C24 6700   3.787   2.070   7.488 -0.4128  0.2446  0.8820
   75SLPC   H4R 6701   3.895   2.061   7.464 -0.0982 -0.4600  2.4309
   75SLPC   H4S 6702   3.751   1.968   7.514  1.8177 -0.4637  1.3972
   75SLPC   C25 6703   3.762   2.161   7.606 -0.0951  0.1986  0.3257
   75SLPC   H5R 6704   3.665   2.136   7.654  0.6574  0.3083  1.9841
   75SLPC   H5S 6705   3.746   2.265   7.571 -0.2456  0.8312  2.1541
   75SLPC   C26 6706   3.865   2.156   7.720 -0.3831  0.0565 -0.6900
   75SLPC   H6R 6707   3.838   2.237   7.791 -0.0945  1.6346 -2.2897
   75SLPC   H6S 6708   3.962   2.192   7.678 -0.7873  0.4883 -1.2886
   75SLPC   C27 6709   3.886   2.026   7.794 -0.0328  0.7604  1.4044
   75SLPC   H7R 6710   3.986   2.030   7.843 -0.2385 -2.9600  2.3971
   75SLPC   H7S 6711   3.881   1.949   7.714  0.3200  1.5685  0.5822
   75SLPC   C28 6712   3.767   1.999   7.892 -0.1421 -0.4231 -0.1805
   75SLPC   H8R 6713   3.674   2.017   7.834  0.3631  0.3512 -0.7537
   75SLPC   H8S 6714   3.758   2.080   7.967  0.7898 -0.7992  0.3639
   75SLPC   C29 6715   3.770   1.863   7.952 -0.3723  0.2709 -0.0509
   75SLPC   H9R 6716   3.750   1.787   7.875 -0.6167  0.2365  0.0449
   75SLPC  C210 6717   3.794   1.825   8.079  0.5338 -0.2364  0.1938
   75SLPC  H10R 6718   3.790   1.718   8.105  2.3605 -0.6529 -1.0539
   75SLPC  C211 6719   3.827   1.901   8.198 -0.2218 -0.2016  0.0974
   75SLPC  H11R 6720   3.873   2.001   8.177  2.8422 -1.8975 -2.0448
   75SLPC  H11S 6721   3.916   1.862   8.253 -2.6278 -0.6435  4.0252
   75SLPC  C212 6722   3.709   1.908   8.294  0.0647  0.0917 -0.5600
   75SLPC  H12R 6723   3.608   1.916   8.250  0.0151 -1.1954 -0.7329
   75SLPC  C213 6724   3.711   1.882   8.427  0.4069  0.8207 -0.3002
   75SLPC  H13R 6725   3.616   1.873   8.480 -0.4686  1.9720 -1.5904
   75SLPC  C214 6726   3.835   1.842   8.504 -0.2060 -0.4349  0.0225
   75SLPC  H14R 6727   3.878   1.931   8.556  0.0857 -0.4305 -0.2162
   75SLPC  H14S 6728   3.920   1.796   8.449  0.7987  1.1059  0.2054
   75SLPC  C215 6729   3.790   1.735   8.599  0.1485 -0.4468 -0.7689
   75SLPC  H15R 6730   3.735   1.652   8.551  0.3902 -0.0548 -1.7520
   75SLPC  H15S 6731   3.723   1.786   8.672 -1.3310 -0.7133 -1.9038
   75SLPC  C216 6732   3.902   1.663   8.681  0.6914 -0.7996  0.1457
   75SLPC  H16R 6733   3.951   1.738   8.747 -1.0160 -1.6770  2.5311
   75SLPC  H16S 6734   3.970   1.623   8.603  1.3526  0.2023  0.1881
   75SLPC  C217 6735   3.849   1.549   8.770  0.2706  0.4768  0.5200
   75SLPC  H17R 6736   3.942   1.521   8.825  0.3356 -1.0290 -0.3034
   75SLPC  H17S 6737   3.826   1.457   8.712  2.0628  0.6884 -0.5984
   75SLPC  C218 6738   3.733   1.586   8.867  0.4160  0.0555 -0.7221
   75SLPC  H18R 6739   3.641   1.610   8.810  0.1295 -0.6897 -0.5926
   75SLPC  H18S 6740   3.767   1.668   8.934  0.3669 -0.2914 -0.2648
   75SLPC  H18T 6741   3.697   1.511   8.941 -2.1123  4.1291  2.6794
   75SLPC   C33 6742   3.308   1.653   7.056  0.4299  0.5682 -0.1145
   75SLPC   H3X 6743   3.357   1.557   7.026  0.3272  1.1850 -2.4232
   75SLPC   H3Y 6744   3.384   1.694   7.126  1.5347  0.7981 -1.3872
   75SLPC   C34 6745   3.186   1.604   7.138 -0.4870 -0.3885 -0.4092
   75SLPC   H4X 6746   3.109   1.568   7.066 -0.2304  0.6663 -1.2355
   75SLPC   H4Y 6747   3.153   1.697   7.189  2.0980 -1.1018  2.9180
   75SLPC   C35 6748   3.239   1.501   7.236  0.0861  0.9304  0.3808
   75SLPC   H5X 6749   3.316   1.552   7.298 -1.1989  1.6442  1.4494
   75SLPC   H5Y 6750   3.276   1.424   7.166  2.0092  2.6055 -0.5266
   75SLPC   C36 6751   3.134   1.435   7.331 -0.3952 -1.0083  0.2037
   75SLPC   H6X 6752   3.191   1.354   7.381 -0.1022  1.0807  3.5662
   75SLPC   H6Y 6753   3.042   1.389   7.288  0.2850 -1.8316 -0.3990
   75SLPC   C37 6754   3.101   1.519   7.457  0.2669 -0.6646 -0.0129
   75SLPC   H7X 6755   3.053   1.611   7.417  1.3226  0.8189  1.9051
   75SLPC   H7Y 6756   3.187   1.563   7.513 -2.3939  2.7800  1.7506
   75SLPC   C38 6757   2.987   1.459   7.546 -0.2671  0.3002  0.3097
   75SLPC   H8X 6758   3.011   1.352   7.562  2.6474  0.6071 -1.2471
   75SLPC   H8Y 6759   2.888   1.470   7.498 -0.3969  1.7912  0.8427
   75SLPC   C39 6760   2.978   1.521   7.686  0.3746 -0.6351 -0.1696
   75SLPC   H9X 6761   2.939   1.623   7.664  2.0152  0.4034  1.3818
   75SLPC   H9Y 6762   3.075   1.525   7.740  0.0971 -3.5820  0.7322
   75SLPC  C310 6763   2.862   1.464   7.774 -0.1111  0.2117  0.1542
   75SLPC  H10X 6764   2.890   1.361   7.801 -0.7299 -0.6381 -2.2022
   75SLPC  H10Y 6765   2.768   1.474   7.715 -0.3602  2.0744  0.7735
   75SLPC  C311 6766   2.825   1.534   7.905  0.0640  0.3211  0.3972
   75SLPC  H11X 6767   2.914   1.544   7.971  0.6442 -0.1586 -0.2848
   75SLPC  H11Y 6768   2.744   1.478   7.956 -0.5754  1.9053  1.1981
   75SLPC  C312 6769   2.763   1.671   7.876 -0.0018 -0.2208  0.0539
   75SLPC  H12X 6770   2.670   1.649   7.819 -1.2873 -0.2522  2.0612
   75SLPC  H12Y 6771   2.824   1.746   7.821  0.1037 -1.7517 -2.0190
   75SLPC  C313 6772   2.729   1.737   8.008 -0.4593 -0.1865 -0.4064
   75SLPC  H13X 6773   2.697   1.661   8.083  1.1979 -0.1340  0.3935
   75SLPC  H13Y 6774   2.643   1.806   7.995 -0.7397 -0.0195  1.9817
   75SLPC  C314 6775   2.847   1.817   8.069 -0.3775  0.3299  0.0647
   75SLPC  H14X 6776   2.881   1.911   8.021 -1.1771  1.6504  1.9640
   75SLPC  H14Y 6777   2.930   1.743   8.067 -0.3662  0.3646 -1.5888
   75SLPC  C315 6778   2.836   1.854   8.217 -0.6428  0.9786  0.0520
   75SLPC  H15X 6779   2.941   1.872   8.249 -0.1528 -0.4965 -0.6472
   75SLPC  H15Y 6780   2.806   1.761   8.270  0.7034 -0.6694 -1.9110
   75SLPC  C316 6781   2.747   1.978   8.226 -0.5791 -0.3957 -0.4525
   75SLPC  H16X 6782   2.645   1.964   8.184 -0.5259  0.4320 -0.8732
   75SLPC  H16Y 6783   2.803   2.045   8.157 -0.4032  0.9736  0.9658
   75SLPC  C317 6784   2.738   2.045   8.368  0.3294 -0.0172 -0.9812
   75SLPC  H17X 6785   2.681   1.967   8.424 -0.4463  1.7008  0.7222
   75SLPC  H17Y 6786   2.675   2.134   8.347  2.2526  1.5584 -0.3425
   75SLPC  C318 6787   2.861   2.094   8.432  0.2010  0.0572 -0.0591
   75SLPC  H18X 6788   2.947   2.024   8.432 -0.5340 -0.8536  0.1118
   75SLPC  H18Y 6789   2.847   2.123   8.538  0.4309 -1.4666  0.3995
   75SLPC  H18Z 6790   2.899   2.182   8.375  0.1853  1.7001  2.3101
   76SLPC     N 6791   2.365   0.600   6.078 -0.2215  0.6238 -0.6640
   76SLPC   C13 6792   2.344   0.452   6.099  0.1162 -0.5447  0.0984
   76SLPC  H13A 6793   2.245   0.423   6.067  0.9834 -2.2587 -1.2110
   76SLPC  H13B 6794   2.411   0.406   6.028  2.1642  2.9995 -0.4814
   76SLPC  H13C 6795   2.370   0.419   6.199  0.4001 -1.7508 -0.3576
   76SLPC   C14 6796   2.327   0.651   5.944 -0.3151  0.7574 -0.9640
   76SLPC  H14A 6797   2.231   0.620   5.905 -0.2395 -2.4415  1.0959
   76SLPC  H14B 6798   2.313   0.758   5.941 -1.3565  0.6392 -0.8899
   76SLPC  H14C 6799   2.394   0.602   5.875 -0.7617 -2.2367  0.5642
   76SLPC   C15 6800   2.510   0.618   6.102  0.2135 -0.0647 -0.2449
   76SLPC  H15A 6801   2.538   0.712   6.058  0.1950  0.7467  1.3752
   76SLPC  H15B 6802   2.538   0.627   6.206  1.8839 -1.1036 -0.5583
   76SLPC  H15C 6803   2.568   0.533   6.069  3.9186  1.5189  1.5900
   76SLPC   C12 6804   2.279   0.665   6.182  0.5221 -0.2947 -0.1731
   76SLPC  H12A 6805   2.174   0.661   6.161  0.7155  0.1641 -1.2512
   76SLPC  H12B 6806   2.299   0.770   6.168 -1.4263 -0.0679 -1.4696
   76SLPC   C11 6807   2.292   0.620   6.323  0.1165 -0.4087 -0.2044
   76SLPC  H11A 6808   2.256   0.515   6.330 -2.2690  0.1615 -2.3987
   76SLPC  H11B 6809   2.219   0.687   6.374 -2.5178 -1.8583 -1.8348
   76SLPC     P 6810   2.477   0.773   6.434 -0.1096  0.1342 -0.0004
   76SLPC   O13 6811   2.607   0.741   6.502  0.4665  0.0749 -0.1716
   76SLPC   O14 6812   2.468   0.872   6.323  0.4970 -0.4274 -0.1498
   76SLPC   O12 6813   2.430   0.638   6.373  0.5108 -0.5869  0.2036
   76SLPC   O11 6814   2.371   0.805   6.546  0.0227  0.0847  0.9327
   76SLPC    C1 6815   2.349   0.705   6.641  0.6852 -0.2623  0.2331
   76SLPC    HA 6816   2.367   0.606   6.592 -3.0607 -0.4017 -1.2122
   76SLPC    HB 6817   2.419   0.707   6.726  0.4301  1.0180  0.4255
   76SLPC    C2 6818   2.201   0.699   6.682 -0.4069  0.7287  0.0276
   76SLPC    HS 6819   2.141   0.702   6.588  2.2742  2.5175 -1.7653
   76SLPC   O21 6820   2.170   0.810   6.771  0.4504 -0.2803  0.0846
   76SLPC   C21 6821   2.040   0.845   6.773 -0.3923  0.1713 -0.1274
   76SLPC   O22 6822   1.950   0.787   6.709  0.1329  0.1312  0.3343
   76SLPC   C22 6823   2.020   0.964   6.864  0.1494  0.0416 -0.3049
   76SLPC   H2R 6824   2.116   1.020   6.866 -0.8160  1.7613  1.9457
   76SLPC   H2S 6825   1.944   1.036   6.828  1.2038  0.8234 -1.0236
   76SLPC    C3 6826   2.159   0.561   6.741 -0.4785  0.5600 -0.2868
   76SLPC    HX 6827   2.175   0.498   6.651  0.9706  2.0963 -1.1716
   76SLPC    HY 6828   2.054   0.547   6.773 -0.9858  0.7721 -1.7859
   76SLPC   O31 6829   2.266   0.525   6.839  0.4618 -0.0215  0.0315
   76SLPC   C31 6830   2.215   0.563   6.962 -0.4946 -0.2247  0.1247
   76SLPC   O32 6831   2.121   0.633   6.986 -0.2082  0.2037  0.5295
   76SLPC   C32 6832   2.297   0.497   7.071  0.2668  0.1025  0.8911
   76SLPC   H2X 6833   2.408   0.500   7.063  0.4191 -2.7868  0.8933
   76SLPC   H2Y 6834   2.269   0.390   7.067  0.4287  0.0829  0.0761
   76SLPC   C23 6835   1.966   0.914   7.008  0.5741  0.3879 -0.0037
   76SLPC   H3R 6836   1.976   0.804   7.023  0.6221  0.7153  2.9216
   76SLPC   H3S 6837   1.856   0.931   7.013  0.3909 -0.1950 -1.3991
   76SLPC   C24 6838   2.030   0.993   7.124  0.0010  0.1795  0.2565
   76SLPC   H4R 6839   1.990   1.096   7.125 -0.7095  0.0998 -3.5171
   76SLPC   H4S 6840   2.139   0.992   7.104  0.4836  1.1493  2.5691
   76SLPC   C25 6841   2.015   0.922   7.264 -0.0973 -0.4782  0.1007
   76SLPC   H5R 6842   2.085   0.836   7.260  4.1372  2.6254 -0.1992
   76SLPC   H5S 6843   1.910   0.888   7.278 -0.1396 -0.1682  0.5416
   76SLPC   C26 6844   2.066   1.011   7.385  0.0981  0.2166  0.6620
   76SLPC   H6R 6845   2.000   1.100   7.393 -1.4880 -0.3732 -3.3969
   76SLPC   H6S 6846   2.162   1.062   7.361 -0.5922  0.6064 -1.5816
   76SLPC   C27 6847   2.083   0.930   7.513  0.0392  0.7083 -0.1240
   76SLPC   H7R 6848   2.139   0.837   7.490 -1.4510  0.4152 -3.0285
   76SLPC   H7S 6849   1.988   0.900   7.563 -0.1363 -0.2365 -0.9944
   76SLPC   C28 6850   2.169   1.007   7.617  0.4267  0.3438  0.3786
   76SLPC   H8R 6851   2.198   0.936   7.698 -0.2042 -0.0033  0.3081
   76SLPC   H8S 6852   2.259   1.030   7.557  0.1085 -0.9860 -0.6427
   76SLPC   C29 6853   2.094   1.127   7.677 -1.1209  0.0147 -0.5016
   76SLPC   H9R 6854   2.042   1.189   7.602  0.1507  1.5233 -0.1693
   76SLPC  C210 6855   2.085   1.152   7.808  0.7001 -0.3240  0.5208
   76SLPC  H10R 6856   2.022   1.239   7.830 -1.7128 -1.5470 -1.0502
   76SLPC  C211 6857   2.137   1.074   7.918 -0.1071  0.1407 -0.4564
   76SLPC  H11R 6858   2.246   1.098   7.919 -0.5304  2.3402 -1.9693
   76SLPC  H11S 6859   2.126   0.964   7.908 -0.9029  0.2872 -1.2539
   76SLPC  C212 6860   2.073   1.124   8.046 -0.7387  0.3307  0.3204
   76SLPC  H12R 6861   1.972   1.167   8.038 -1.6243 -1.6425  0.4639
   76SLPC  C213 6862   2.116   1.102   8.169 -0.3708  0.1489 -0.0633
   76SLPC  H13R 6863   2.057   1.145   8.251 -2.0459 -1.9957 -0.0529
   76SLPC  C214 6864   2.237   1.034   8.224 -0.3818 -0.1316 -0.0591
   76SLPC  H14R 6865   2.304   1.092   8.291 -0.2091 -1.7777  1.2551
   76SLPC  H14S 6866   2.316   1.016   8.148 -1.0852 -1.0294 -0.6050
   76SLPC  C215 6867   2.190   0.903   8.290 -0.2605  0.0598  0.2350
   76SLPC  H15R 6868   2.152   0.828   8.217  0.1879 -0.8229  0.8921
   76SLPC  H15S 6869   2.111   0.924   8.365  1.4218  2.4591  1.4662
   76SLPC  C216 6870   2.308   0.837   8.358 -0.0654 -0.4534 -0.3924
   76SLPC  H16R 6871   2.330   0.911   8.438 -0.6252  1.6387 -2.0596
   76SLPC  H16S 6872   2.388   0.833   8.281 -0.9704  0.2862 -1.4034
   76SLPC  C217 6873   2.299   0.693   8.397  0.6387  0.3838 -0.3342
   76SLPC  H17R 6874   2.397   0.642   8.409 -0.8183 -2.4728  0.2402
   76SLPC  H17S 6875   2.247   0.644   8.312  0.0034 -1.5080  1.0629
   76SLPC  C218 6876   2.218   0.671   8.528  0.9931 -0.3793 -0.1897
   76SLPC  H18R 6877   2.275   0.711   8.615  1.8603 -0.2176 -0.8154
   76SLPC  H18S 6878   2.205   0.562   8.546  1.2266 -0.1732  1.3611
   76SLPC  H18T 6879   2.127   0.733   8.516  2.2263  1.1219 -2.6857
   76SLPC   C33 6880   2.253   0.549   7.214  0.1343 -1.0275 -0.1965
   76SLPC   H3X 6881   2.148   0.519   7.233  0.1876  0.5296  3.1530
   76SLPC   H3Y 6882   2.237   0.659   7.219  1.1571 -0.9259  2.3145
   76SLPC   C34 6883   2.354   0.504   7.317  0.3787  0.5580  0.3744
   76SLPC   H4X 6884   2.457   0.540   7.295 -0.1221  1.4794 -0.5894
   76SLPC   H4Y 6885   2.352   0.393   7.321  1.8644  0.5135  0.5440
   76SLPC   C35 6886   2.327   0.567   7.460 -0.3240 -0.1316  0.6718
   76SLPC   H5X 6887   2.216   0.570   7.464 -0.3213  1.1087  0.2368
   76SLPC   H5Y 6888   2.367   0.668   7.478  0.9982 -0.4391 -0.3627
   76SLPC   C36 6889   2.376   0.476   7.574 -0.2680  0.7284  0.5047
   76SLPC   H6X 6890   2.475   0.437   7.540 -1.6350 -1.7175 -0.9047
   76SLPC   H6Y 6891   2.308   0.391   7.595  0.5401 -0.3355 -0.9651
   76SLPC   C37 6892   2.402   0.557   7.698  0.2694 -0.1655  0.1186
   76SLPC   H7X 6893   2.309   0.615   7.717 -0.4849 -0.9276 -1.0582
   76SLPC   H7Y 6894   2.480   0.629   7.665 -0.3624  0.6110  0.2795
   76SLPC   C38 6895   2.445   0.482   7.824  0.3931 -1.0574 -0.1971
   76SLPC   H8X 6896   2.520   0.402   7.803 -0.9339 -2.6021  0.6797
   76SLPC   H8Y 6897   2.365   0.419   7.868 -0.0335 -0.9926 -0.8613
   76SLPC   C39 6898   2.504   0.572   7.942 -0.1373 -0.3851  0.3592
   76SLPC   H9X 6899   2.436   0.655   7.972  0.7786  1.1136 -1.4907
   76SLPC   H9Y 6900   2.593   0.628   7.907  0.1175 -0.8181  0.3095
   76SLPC  C310 6901   2.563   0.492   8.061  0.5343 -0.3857 -0.0322
   76SLPC  H10X 6902   2.615   0.554   8.137 -0.3148 -1.2097  1.2807
   76SLPC  H10Y 6903   2.621   0.407   8.020 -0.0880 -0.8018 -0.0707
   76SLPC  C311 6904   2.438   0.442   8.139 -0.8117  0.0423 -0.1877
   76SLPC  H11X 6905   2.393   0.366   8.071  0.7212  1.0588 -2.4612
   76SLPC  H11Y 6906   2.361   0.522   8.144 -0.9397  0.0921 -2.0618
   76SLPC  C312 6907   2.461   0.388   8.279 -0.0081 -0.3969  0.4400
   76SLPC  H12X 6908   2.491   0.472   8.344  2.3724 -0.1536 -0.8586
   76SLPC  H12Y 6909   2.544   0.314   8.275  0.2176 -0.1341  0.2599
   76SLPC  C313 6910   2.333   0.333   8.325  0.4649 -0.6819 -0.1885
   76SLPC  H13X 6911   2.295   0.255   8.255 -1.6831  0.7745 -0.7217
   76SLPC  H13Y 6912   2.258   0.414   8.333  0.9869 -0.2784  0.7195
   76SLPC  C314 6913   2.359   0.261   8.465 -0.4997  0.5682  0.0067
   76SLPC  H14X 6914   2.258   0.241   8.506 -0.0972 -2.4819 -0.2595
   76SLPC  H14Y 6915   2.416   0.320   8.539  1.3511  0.1203 -0.9741
   76SLPC  C315 6916   2.430   0.124   8.445  0.3838 -0.4776  0.5517
   76SLPC  H15X 6917   2.519   0.145   8.382  0.1142  1.1115  0.6597
   76SLPC  H15Y 6918   2.370   0.056   8.381 -1.5164  2.3421 -0.8338
   76SLPC  C316 6919   2.485   0.059   8.574 -0.7361 -0.6510 -0.9713
   76SLPC  H16X 6920   2.394   0.044   8.637  0.6457  0.5740  1.4512
   76SLPC  H16Y 6921   2.550   0.135   8.623 -0.5804 -0.3933 -1.5776
   76SLPC  C317 6922   2.573  -0.066   8.567  0.3348  0.1876  0.3349
   76SLPC  H17X 6923   2.525  -0.129   8.489  0.8963 -1.6976  1.4278
   76SLPC  H17Y 6924   2.580  -0.126   8.660  3.8767 -3.9938 -2.2192
   76SLPC  C318 6925   2.712  -0.028   8.514  0.2485  0.8075 -0.6995
   76SLPC  H18X 6926   2.768  -0.122   8.493 -2.0606 -0.1331 -3.2246
   76SLPC  H18Y 6927   2.768   0.028   8.592 -1.9041 -0.3294  1.8186
   76SLPC  H18Z 6928   2.710   0.032   8.421 -0.5123  0.5345 -0.8686
   77SLPC     N 6929   5.514   2.639   6.239 -0.8281 -0.0937  0.2111
   77SLPC   C13 6930   5.567   2.557   6.117  0.2058  0.0692  0.1056
   77SLPC  H13A 6931   5.488   2.511   6.059 -0.0592  0.8632 -0.1833
   77SLPC  H13B 6932   5.612   2.621   6.042  2.3436  0.4152  1.6052
   77SLPC  H13C 6933   5.648   2.487   6.134 -0.5908 -0.9974 -0.3568
   77SLPC   C14 6934   5.405   2.721   6.202  0.1012  0.1789  0.2210
   77SLPC  H14A 6935   5.342   2.666   6.133  0.6303 -0.7830  0.4842
   77SLPC  H14B 6936   5.340   2.740   6.286  1.4530 -0.1947  1.3828
   77SLPC  H14C 6937   5.437   2.810   6.150 -1.9777 -0.5122 -2.5157
   77SLPC   C15 6938   5.632   2.728   6.284  0.0245  0.1574  0.3019
   77SLPC  H15A 6939   5.678   2.787   6.207 -0.2035  0.4964  0.4257
   77SLPC  H15B 6940   5.600   2.791   6.365  0.2649  2.0395 -1.0081
   77SLPC  H15C 6941   5.704   2.657   6.323 -1.5784 -2.1085 -0.6642
   77SLPC   C12 6942   5.468   2.532   6.339 -0.0693  0.1315  1.2692
   77SLPC  H12A 6943   5.551   2.465   6.357 -1.0992 -1.0798  1.6183
   77SLPC  H12B 6944   5.393   2.464   6.301  0.3947 -0.6812  1.7879
   77SLPC   C11 6945   5.395   2.584   6.466  1.2139 -0.0686  0.0432
   77SLPC  H11A 6946   5.447   2.669   6.514 -2.2388  1.7534  0.8494
   77SLPC  H11B 6947   5.396   2.499   6.537  2.5941  0.4532  0.6873
   77SLPC     P 6948   5.174   2.675   6.552  0.2080 -0.4972  0.4029
   77SLPC   O13 6949   5.220   2.814   6.583  0.4688  0.2357  0.5310
   77SLPC   O14 6950   5.034   2.670   6.503 -0.6130  0.1952  0.0306
   77SLPC   O12 6951   5.263   2.628   6.430 -0.1975  0.1871 -0.6331
   77SLPC   O11 6952   5.194   2.570   6.673 -0.4464  0.0029 -0.5294
   77SLPC    C1 6953   5.125   2.440   6.676 -0.1665 -0.1562 -0.2943
   77SLPC    HA 6954   5.020   2.465   6.699 -0.3720  0.2777 -1.5875
   77SLPC    HB 6955   5.105   2.392   6.577 -0.2395  0.9160 -0.8154
   77SLPC    C2 6956   5.188   2.338   6.773 -0.4334  0.3965  0.0187
   77SLPC    HS 6957   5.159   2.232   6.752  3.4553 -1.1776  1.7185
   77SLPC   O21 6958   5.145   2.383   6.908 -0.6770  0.2567  0.0485
   77SLPC   C21 6959   5.018   2.343   6.946  0.2923  0.3449  0.3896
   77SLPC   O22 6960   4.940   2.270   6.889 -0.3604 -0.2133 -0.2805
   77SLPC   C22 6961   4.982   2.410   7.080  0.2555  0.5069 -0.5482
   77SLPC   H2R 6962   5.032   2.509   7.085  0.8564  0.1491  0.9399
   77SLPC   H2S 6963   4.872   2.426   7.075  0.5579  2.5424 -1.4540
   77SLPC    C3 6964   5.342   2.343   6.755  0.1934  0.5534  0.2064
   77SLPC    HX 6965   5.374   2.449   6.767 -1.0680  1.0310 -0.5205
   77SLPC    HY 6966   5.362   2.300   6.655 -1.1091 -0.3192  0.3000
   77SLPC   O31 6967   5.400   2.263   6.856 -0.2410 -0.1851 -0.4214
   77SLPC   C31 6968   5.393   2.133   6.834  0.4082 -0.2373  0.0411
   77SLPC   O32 6969   5.368   2.081   6.728  0.0884 -0.0075  0.6207
   77SLPC   C32 6970   5.421   2.051   6.969 -0.5087 -0.4716  0.2407
   77SLPC   H2X 6971   5.366   2.114   7.042 -0.3422  0.2469 -0.2383
   77SLPC   H2Y 6972   5.528   2.054   6.998 -0.4702 -1.0463  0.1622
   77SLPC   C23 6973   5.017   2.315   7.194 -0.5117 -0.2213  0.1592
   77SLPC   H3R 6974   5.125   2.290   7.193 -0.1938  0.8938  1.7869
   77SLPC   H3S 6975   4.958   2.221   7.183 -1.6740  0.6686 -1.6401
   77SLPC   C24 6976   4.991   2.389   7.327  0.2910  0.1043  0.4020
   77SLPC   H4R 6977   5.054   2.481   7.331 -1.0816  1.0736  0.8828
   77SLPC   H4S 6978   5.030   2.319   7.404  1.7387  0.1595 -0.2501
   77SLPC   C25 6979   4.846   2.429   7.358  0.6069 -1.4471 -0.4025
   77SLPC   H5R 6980   4.820   2.505   7.281 -1.7835 -1.0593  0.6906
   77SLPC   H5S 6981   4.851   2.495   7.447  3.0956  0.0204 -1.5439
   77SLPC   C26 6982   4.741   2.325   7.382 -0.5058 -0.0748 -0.1956
   77SLPC   H6R 6983   4.766   2.257   7.467 -1.9913 -0.4874 -0.0692
   77SLPC   H6S 6984   4.746   2.271   7.286 -0.0257  0.3027 -0.3907
   77SLPC   C27 6985   4.601   2.389   7.424  0.0569  0.3789 -0.4590
   77SLPC   H7R 6986   4.521   2.312   7.419  2.4891 -2.3035 -1.7677
   77SLPC   H7S 6987   4.579   2.472   7.354 -3.1551  0.0709  0.0323
   77SLPC   C28 6988   4.600   2.442   7.569 -0.6610  0.4110  0.4217
   77SLPC   H8R 6989   4.505   2.491   7.600 -0.3357  0.3104  1.6228
   77SLPC   H8S 6990   4.676   2.523   7.579 -0.7038  0.5815 -0.4735
   77SLPC   C29 6991   4.631   2.345   7.674 -0.4321  0.7542 -0.2679
   77SLPC   H9R 6992   4.577   2.249   7.671  2.1544 -0.8409  1.1748
   77SLPC  C210 6993   4.719   2.353   7.774 -0.3908  0.5201 -0.2384
   77SLPC  H10R 6994   4.732   2.265   7.839 -0.4403 -0.5556 -1.6272
   77SLPC  C211 6995   4.819   2.464   7.795  0.0283 -0.1754  0.1521
   77SLPC  H11R 6996   4.754   2.551   7.819 -0.3629  0.3559 -2.5592
   77SLPC  H11S 6997   4.882   2.494   7.709  1.1446  0.6695  1.2381
   77SLPC  C212 6998   4.910   2.452   7.912  0.1419 -0.0936 -0.6110
   77SLPC  H12R 6999   5.003   2.398   7.889  1.0696 -0.4737  3.3467
   77SLPC  C213 7000   4.911   2.505   8.030  0.3402  0.5828  0.0318
   77SLPC  H13R 7001   4.999   2.480   8.090  1.2549  1.2731 -0.9991
   77SLPC  C214 7002   4.794   2.578   8.090  0.5922 -0.5047 -0.6944
   77SLPC  H14R 7003   4.709   2.596   8.020 -0.2308 -0.7622  0.2213
   77SLPC  H14S 7004   4.826   2.685   8.093 -0.9028 -0.0148 -1.2842
   77SLPC  C215 7005   4.739   2.531   8.224 -0.0300  0.2295 -0.3999
   77SLPC  H15R 7006   4.635   2.567   8.238  0.2360  1.0538 -0.5420
   77SLPC  H15S 7007   4.806   2.581   8.297 -0.0058 -1.0548  0.5176
   77SLPC  C216 7008   4.740   2.379   8.242 -0.1003 -0.5278  0.1472
   77SLPC  H16R 7009   4.736   2.353   8.350 -0.3464 -1.3249 -0.0522
   77SLPC  H16S 7010   4.836   2.340   8.203  0.6784  0.6687  0.7780
   77SLPC  C217 7011   4.614   2.321   8.175 -0.4586  0.3073 -0.2401
   77SLPC  H17R 7012   4.637   2.338   8.068 -0.3479 -2.1161 -0.6406
   77SLPC  H17S 7013   4.527   2.380   8.210  0.6127  1.4239  0.6476
   77SLPC  C218 7014   4.600   2.168   8.202 -0.1467 -0.2493 -0.1399
   77SLPC  H18R 7015   4.690   2.110   8.171 -0.0290 -1.2208  1.8212
   77SLPC  H18S 7016   4.518   2.111   8.153 -0.2399 -0.0584 -0.2028
   77SLPC  H18T 7017   4.589   2.149   8.311 -0.9956 -0.8812 -0.3240
   77SLPC   C33 7018   5.356   1.918   6.954  0.5225 -0.5252 -0.3950
   77SLPC   H3X 7019   5.381   1.869   6.857 -0.4707  0.2493 -1.0532
   77SLPC   H3Y 7020   5.246   1.922   6.966  0.3755 -1.2045 -1.4402
   77SLPC   C34 7021   5.397   1.825   7.073  0.3969  0.5107  0.0983
   77SLPC   H4X 7022   5.503   1.795   7.061 -0.0125 -0.1506 -2.4106
   77SLPC   H4Y 7023   5.347   1.727   7.055  0.3918  0.7340 -1.2115
   77SLPC   C35 7024   5.363   1.872   7.215 -0.1234 -0.2469 -0.4446
   77SLPC   H5X 7025   5.255   1.895   7.226  0.1006 -0.0303  1.8151
   77SLPC   H5Y 7026   5.396   1.978   7.223 -1.4396  0.1267  0.3943
   77SLPC   C36 7027   5.411   1.787   7.327  0.0338  0.0405 -0.7688
   77SLPC   H6X 7028   5.519   1.771   7.304  0.1015 -1.6046  0.4890
   77SLPC   H6Y 7029   5.364   1.686   7.320  0.5221 -0.7431  3.8801
   77SLPC   C37 7030   5.412   1.852   7.465 -0.6943  0.1705 -0.6413
   77SLPC   H7X 7031   5.310   1.860   7.507 -0.4221  0.3294  0.0112
   77SLPC   H7Y 7032   5.448   1.957   7.459  2.2453 -0.6298  0.7411
   77SLPC   C38 7033   5.505   1.777   7.569 -0.3542 -0.0950 -0.2600
   77SLPC   H8X 7034   5.598   1.754   7.513 -0.5005 -0.8077 -0.2166
   77SLPC   H8Y 7035   5.462   1.678   7.595  2.3861 -1.8671 -2.0115
   77SLPC   C39 7036   5.539   1.852   7.697  0.0407 -0.9853 -0.7993
   77SLPC   H9X 7037   5.557   1.959   7.673 -0.9305 -0.6678 -0.1578
   77SLPC   H9Y 7038   5.631   1.807   7.741  0.8118 -0.2810 -1.6475
   77SLPC  C310 7039   5.421   1.844   7.795 -0.0817 -0.0044 -0.4385
   77SLPC  H10X 7040   5.415   1.740   7.835 -0.6842 -0.6633 -2.1273
   77SLPC  H10Y 7041   5.323   1.864   7.746 -1.3245  0.4442  2.0908
   77SLPC  C311 7042   5.446   1.928   7.924  1.0436 -0.9095  0.0852
   77SLPC  H11X 7043   5.352   1.959   7.976  2.1904 -0.7260  2.1709
   77SLPC  H11Y 7044   5.492   2.024   7.895 -1.4713  1.3469  2.8720
   77SLPC  C312 7045   5.531   1.861   8.031 -0.0862 -0.3511  0.4433
   77SLPC  H12X 7046   5.551   1.937   8.110  0.3976  0.3082 -0.3023
   77SLPC  H12Y 7047   5.633   1.839   7.992  0.4481  0.2400  1.4535
   77SLPC  C313 7048   5.477   1.741   8.107  0.5065 -0.4019  0.4140
   77SLPC  H13X 7049   5.457   1.663   8.031 -3.2285  0.7456  0.0113
   77SLPC  H13Y 7050   5.375   1.759   8.147 -0.4174 -1.6605 -1.2339
   77SLPC  C314 7051   5.554   1.690   8.223 -0.3542  0.0167  0.5060
   77SLPC  H14X 7052   5.569   1.777   8.291  2.8223 -1.7341  2.2684
   77SLPC  H14Y 7053   5.657   1.662   8.192  0.1616  0.1402  2.0369
   77SLPC  C315 7054   5.495   1.562   8.295 -0.4150 -0.5838 -0.1622
   77SLPC  H15X 7055   5.532   1.476   8.235  0.5428  0.3111 -0.8742
   77SLPC  H15Y 7056   5.384   1.572   8.303 -0.7450 -1.4278 -2.6696
   77SLPC  C316 7057   5.557   1.548   8.435 -0.2833  0.6334 -0.3759
   77SLPC  H16X 7058   5.541   1.639   8.497 -1.3629  0.3744 -0.2565
   77SLPC  H16Y 7059   5.667   1.547   8.417  0.1714 -1.6474  1.8794
   77SLPC  C317 7060   5.533   1.419   8.517  0.2104  0.2800  0.0403
   77SLPC  H17X 7061   5.425   1.407   8.539  0.4229 -0.4657  0.7234
   77SLPC  H17Y 7062   5.600   1.424   8.606 -0.1791  0.4560  0.3260
   77SLPC  C318 7063   5.567   1.294   8.440  0.2601  0.4016 -0.0566
   77SLPC  H18X 7064   5.559   1.209   8.512 -2.0392  1.3342  0.9056
   77SLPC  H18Y 7065   5.658   1.297   8.377  0.4083 -0.1905  0.1240
   77SLPC  H18Z 7066   5.475   1.276   8.380 -0.2668 -1.2516  1.1685
   78SLPC     N 7067   5.241   1.225   6.288 -0.4028  0.4928  0.0817
   78SLPC   C13 7068   5.163   1.133   6.193 -0.0132 -0.1286 -0.0097
   78SLPC  H13A 7069   5.076   1.103   6.249  0.8331  0.2543  1.5548
   78SLPC  H13B 7070   5.132   1.190   6.106  2.1528  3.4262  1.3378
   78SLPC  H13C 7071   5.228   1.052   6.164  2.5590  1.8585 -0.1005
   78SLPC   C14 7072   5.350   1.290   6.205  0.2229  0.9580  0.1118
   78SLPC  H14A 7073   5.315   1.341   6.117  1.6779 -1.8077 -2.2563
   78SLPC  H14B 7074   5.414   1.358   6.259  1.9222  0.7266 -1.4947
   78SLPC  H14C 7075   5.421   1.214   6.174 -0.9942 -0.1005 -0.1764
   78SLPC   C15 7076   5.320   1.150   6.398 -0.5379 -0.4597 -0.1924
   78SLPC  H15A 7077   5.370   1.223   6.459 -1.3983  0.4285 -0.5319
   78SLPC  H15B 7078   5.252   1.097   6.463 -0.9739 -0.8941 -0.9785
   78SLPC  H15C 7079   5.389   1.076   6.360 -0.7343 -1.5763  1.5312
   78SLPC   C12 7080   5.153   1.333   6.343  0.9004 -0.0478 -0.1669
   78SLPC  H12A 7081   5.086   1.284   6.412 -0.3974 -0.8209 -1.8879
   78SLPC  H12B 7082   5.091   1.366   6.260  0.0644 -0.9996  0.0516
   78SLPC   C11 7083   5.217   1.452   6.402 -0.3845 -0.2960  1.0062
   78SLPC  H11A 7084   5.297   1.426   6.474  1.4681 -1.7099 -1.4057
   78SLPC  H11B 7085   5.138   1.492   6.470  1.1020  3.3353  0.8435
   78SLPC     P 7086   5.164   1.661   6.254 -0.3341 -0.3271  0.0651
   78SLPC   O13 7087   5.247   1.761   6.186 -0.1700 -0.2841  0.4941
   78SLPC   O14 7088   5.051   1.603   6.179 -0.2760 -0.2513 -0.6160
   78SLPC   O12 7089   5.266   1.549   6.305 -0.3964  0.8864  0.1927
   78SLPC   O11 7090   5.105   1.723   6.383 -0.4803  0.0263  0.1583
   78SLPC    C1 7091   5.192   1.791   6.478  0.4111  0.1467  0.5564
   78SLPC    HA 7092   5.266   1.714   6.510  0.1884 -1.4219 -2.3479
   78SLPC    HB 7093   5.244   1.877   6.432 -0.7814 -0.1676 -1.5219
   78SLPC    C2 7094   5.112   1.841   6.603 -0.2469  0.0612 -0.3180
   78SLPC    HS 7095   5.200   1.864   6.667  1.1903 -0.0937 -2.1309
   78SLPC   O21 7096   5.041   1.729   6.652 -0.7324  0.3543 -0.1743
   78SLPC   C21 7097   5.114   1.650   6.728  0.4928 -0.3176  0.1952
   78SLPC   O22 7098   5.231   1.657   6.760  0.2095 -0.9275  0.2684
   78SLPC   C22 7099   5.016   1.535   6.765  0.8111  0.0985  0.2052
   78SLPC   H2R 7100   4.946   1.583   6.838  1.1951  1.4697 -0.2988
   78SLPC   H2S 7101   4.953   1.500   6.681  1.0501  1.3033 -0.4963
   78SLPC    C3 7102   5.024   1.965   6.582 -0.1105 -0.4012  0.1908
   78SLPC    HX 7103   4.953   1.942   6.500  0.4524  2.2493 -1.1456
   78SLPC    HY 7104   5.096   2.042   6.546 -0.0684  0.6217  2.2748
   78SLPC   O31 7105   4.967   2.006   6.705  0.3163 -0.4305 -0.6169
   78SLPC   C31 7106   4.848   1.960   6.735  0.8661  0.2824 -0.0331
   78SLPC   O32 7107   4.770   1.900   6.661 -0.3538 -0.0931 -0.2604
   78SLPC   C32 7108   4.824   1.981   6.891  0.7368  0.3981  0.2038
   78SLPC   H2X 7109   4.745   2.056   6.910  0.0316 -0.7526  2.0320
   78SLPC   H2Y 7110   4.924   2.024   6.917  1.3102  0.8474 -2.3857
   78SLPC   C23 7111   5.085   1.414   6.838 -0.0247  0.4985 -0.1977
   78SLPC   H3R 7112   5.167   1.381   6.770  1.0879  1.7911  0.4588
   78SLPC   H3S 7113   5.020   1.327   6.858  0.5330  0.3142  0.8608
   78SLPC   C24 7114   5.143   1.443   6.979 -0.7173  0.1561 -0.0271
   78SLPC   H4R 7115   5.225   1.517   6.969  0.9106 -1.5507  0.0746
   78SLPC   H4S 7116   5.185   1.348   7.018 -2.1231  0.0896  1.4619
   78SLPC   C25 7117   5.051   1.485   7.097 -0.1339 -0.0201  0.3831
   78SLPC   H5R 7118   4.973   1.407   7.108  1.7889 -2.1800 -0.2550
   78SLPC   H5S 7119   5.003   1.575   7.055  1.0429  0.2250 -0.4840
   78SLPC   C26 7120   5.120   1.511   7.232 -0.5333 -0.1734  0.0230
   78SLPC   H6R 7121   5.189   1.596   7.216 -0.3447 -0.6996 -2.4580
   78SLPC   H6S 7122   5.185   1.424   7.255 -0.5373  0.3955  2.4055
   78SLPC   C27 7123   5.018   1.526   7.346 -1.1772  0.3772 -0.5564
   78SLPC   H7R 7124   4.963   1.429   7.344 -2.2079  0.9489 -1.2145
   78SLPC   H7S 7125   4.964   1.622   7.327  2.8303  3.1681  0.8945
   78SLPC   C28 7126   5.084   1.555   7.484  0.1229 -0.0279  0.4539
   78SLPC   H8R 7127   5.129   1.656   7.476  0.8257 -0.2989  0.8955
   78SLPC   H8S 7128   5.175   1.495   7.504  0.2492 -0.4455 -1.2647
   78SLPC   C29 7129   4.986   1.555   7.597  0.7039  0.3730  0.1504
   78SLPC   H9R 7130   4.878   1.542   7.579  1.1460 -2.1493 -1.1377
   78SLPC  C210 7131   5.010   1.557   7.728 -0.2337  0.0683 -0.0608
   78SLPC  H10R 7132   4.919   1.546   7.789 -0.1473  0.9697  0.2430
   78SLPC  C211 7133   5.145   1.566   7.798  0.4753 -0.3038  0.1486
   78SLPC  H11R 7134   5.216   1.606   7.722  0.0665 -0.1144 -0.1374
   78SLPC  H11S 7135   5.185   1.464   7.818  0.8002 -0.2964 -0.4233
   78SLPC  C212 7136   5.147   1.653   7.925 -0.8616  0.4919 -0.9077
   78SLPC  H12R 7137   5.204   1.746   7.938  0.1375 -0.3658  1.6902
   78SLPC  C213 7138   5.090   1.618   8.041 -0.7226  0.0806 -0.0759
   78SLPC  H13R 7139   5.103   1.690   8.123 -2.9308 -0.5533  0.9089
   78SLPC  C214 7140   5.005   1.498   8.069  0.0834  0.2295  0.4287
   78SLPC  H14R 7141   4.970   1.442   7.980  0.9641  1.4165 -0.6831
   78SLPC  H14S 7142   4.917   1.533   8.128 -0.8238 -2.4175  0.8263
   78SLPC  C215 7143   5.062   1.388   8.166 -0.4471 -0.3737 -0.4331
   78SLPC  H15R 7144   5.094   1.438   8.260  0.9790 -1.3797 -0.3552
   78SLPC  H15S 7145   5.155   1.352   8.117 -1.0326  0.2221 -2.0682
   78SLPC  C216 7146   4.960   1.282   8.214 -0.3890  0.3337  0.1194
   78SLPC  H16R 7147   4.915   1.253   8.116 -1.4293 -0.6074  0.8394
   78SLPC  H16S 7148   4.878   1.333   8.269 -0.6202 -0.5918  0.6635
   78SLPC  C217 7149   5.027   1.154   8.273  0.0529 -0.4471 -0.1695
   78SLPC  H17R 7150   5.112   1.111   8.216  1.1247 -2.5042  2.7461
   78SLPC  H17S 7151   4.959   1.067   8.274 -1.3021  0.5583  1.7704
   78SLPC  C218 7152   5.085   1.175   8.416  0.1697  0.0378  0.1901
   78SLPC  H18R 7153   5.010   1.221   8.484  1.0987  0.5293  0.9193
   78SLPC  H18S 7154   5.170   1.246   8.404  2.4931 -2.7293 -1.0033
   78SLPC  H18T 7155   5.122   1.076   8.450 -0.2265 -0.1668  0.0266
   78SLPC   C33 7156   4.790   1.852   6.970 -0.0905 -0.0664  0.0911
   78SLPC   H3X 7157   4.871   1.781   6.941  2.3970  2.9950 -1.1056
   78SLPC   H3Y 7158   4.700   1.795   6.940  0.6768 -0.4080 -1.7140
   78SLPC   C34 7159   4.790   1.867   7.124  0.4062  0.1427  0.1140
   78SLPC   H4X 7160   4.778   1.765   7.166  1.4770  0.3080  0.8572
   78SLPC   H4Y 7161   4.710   1.937   7.157  0.6175  0.3460  0.2027
   78SLPC   C35 7162   4.921   1.920   7.186 -0.1832 -0.1419 -0.1666
   78SLPC   H5X 7163   4.960   2.009   7.133 -2.1484  0.0486 -1.4111
   78SLPC   H5Y 7164   4.994   1.839   7.164  0.9640  1.0222 -0.7976
   78SLPC   C36 7165   4.899   1.940   7.337  0.1271 -0.4010  0.1117
   78SLPC   H6X 7166   4.867   1.848   7.390  2.6768 -3.3167 -2.9786
   78SLPC   H6Y 7167   4.825   2.022   7.351 -0.4187 -1.2724  2.7380
   78SLPC   C37 7168   5.036   1.957   7.404 -0.4093  0.3125 -0.2354
   78SLPC   H7X 7169   5.096   2.030   7.345  1.0589 -1.3426 -0.8802
   78SLPC   H7Y 7170   5.085   1.857   7.403  2.3538  1.5400  0.5776
   78SLPC   C38 7171   5.011   2.009   7.544 -0.1033  0.4852 -0.1592
   78SLPC   H8X 7172   4.936   2.089   7.528  1.4843  1.9053 -0.8616
   78SLPC   H8Y 7173   5.097   2.061   7.592  0.4183 -0.0881 -0.4506
   78SLPC   C39 7174   4.962   1.912   7.656  0.1141 -0.8840  0.3981
   78SLPC   H9X 7175   5.054   1.855   7.679  0.1125 -0.9695  0.1985
   78SLPC   H9Y 7176   4.885   1.851   7.603  1.1211 -0.9912 -0.9971
   78SLPC  C310 7177   4.917   1.997   7.773  0.5051 -0.7067  0.1397
   78SLPC  H10X 7178   4.824   1.947   7.808 -0.1712  0.2933 -0.1728
   78SLPC  H10Y 7179   4.876   2.094   7.736  0.4137 -0.4647  0.8464
   78SLPC  C311 7180   5.013   2.021   7.892  0.3835 -0.3639 -0.4373
   78SLPC  H11X 7181   5.077   2.108   7.865  1.7976 -1.2148  0.0415
   78SLPC  H11Y 7182   5.086   1.937   7.892  2.8462  1.4642 -4.3141
   78SLPC  C312 7183   4.951   2.044   8.028 -0.0719  0.4593  0.3867
   78SLPC  H12X 7184   4.869   1.970   8.041  1.0179 -0.6214  1.3820
   78SLPC  H12Y 7185   4.911   2.148   8.026 -0.1029  0.4610 -2.6066
   78SLPC  C313 7186   5.043   2.022   8.147  0.0406 -0.1789  0.5525
   78SLPC  H13X 7187   5.125   2.093   8.121 -1.5772  0.4139 -3.7903
   78SLPC  H13Y 7188   5.081   1.918   8.140  0.1062 -0.0829 -0.6927
   78SLPC  C314 7189   4.984   2.056   8.286  0.1216  0.2587  0.3079
   78SLPC  H14X 7190   4.907   1.979   8.308  0.5401  0.1719  1.5868
   78SLPC  H14Y 7191   4.948   2.160   8.298  1.8194  1.1908 -2.0227
   78SLPC  C315 7192   5.100   2.046   8.395 -0.7566 -0.3522  0.0333
   78SLPC  H15X 7193   5.054   2.067   8.494  2.8156  1.2730  1.5589
   78SLPC  H15Y 7194   5.159   2.141   8.399 -2.3931  0.6983  3.1906
   78SLPC  C316 7195   5.184   1.922   8.405  0.3584  1.0909 -0.2603
   78SLPC  H16X 7196   5.233   1.910   8.306  3.9116  2.2578  1.1861
   78SLPC  H16Y 7197   5.135   1.827   8.436  2.0412 -0.5829 -2.4280
   78SLPC  C317 7198   5.295   1.925   8.514  0.2530  0.1109 -0.3045
   78SLPC  H17X 7199   5.361   2.013   8.493  1.3566 -0.9199 -1.3479
   78SLPC  H17Y 7200   5.359   1.835   8.500  0.2880 -0.3978  2.4822
   78SLPC  C318 7201   5.251   1.926   8.658 -0.4119 -0.3584  0.2312
   78SLPC  H18X 7202   5.200   2.019   8.689 -1.2405 -0.5967 -0.3836
   78SLPC  H18Y 7203   5.341   1.899   8.718  0.2199 -0.1617 -0.6059
   78SLPC  H18Z 7204   5.173   1.848   8.665 -1.1319  0.3831  0.5764
   79SLPC     N 7205   3.199   3.292   6.174 -0.4832  0.2412 -0.0063
   79SLPC   C13 7206   3.190   3.437   6.224  0.6659  0.0796  0.1992
   79SLPC  H13A 7207   3.148   3.496   6.143 -3.6893 -1.0096  1.3699
   79SLPC  H13B 7208   3.119   3.436   6.305  1.4262 -1.8497  0.8854
   79SLPC  H13C 7209   3.287   3.471   6.256  1.8813 -1.9137 -1.1096
   79SLPC   C14 7210   3.298   3.292   6.063 -0.5907 -0.0954  1.0674
   79SLPC  H14A 7211   3.387   3.349   6.084 -0.1677 -1.1672  2.2779
   79SLPC  H14B 7212   3.337   3.192   6.052 -0.0574  0.2081  0.0595
   79SLPC  H14C 7213   3.250   3.316   5.969  0.4211 -1.4331  0.1670
   79SLPC   C15 7214   3.061   3.255   6.119 -0.3300 -0.3966 -0.4030
   79SLPC  H15A 7215   3.028   3.345   6.069  2.8334  2.2981  1.8757
   79SLPC  H15B 7216   3.073   3.160   6.069 -0.6325 -2.9403  3.8291
   79SLPC  H15C 7217   2.991   3.246   6.201 -0.3350  1.3089 -0.1726
   79SLPC   C12 7218   3.249   3.207   6.294 -0.1719  0.4884  0.0008
   79SLPC  H12A 7219   3.349   3.227   6.330  0.1271 -1.1746  0.1393
   79SLPC  H12B 7220   3.267   3.106   6.261  1.3526  0.4878  0.7375
   79SLPC   C11 7221   3.159   3.201   6.412  0.9368 -0.0600  0.6818
   79SLPC  H11A 7222   3.144   3.305   6.447 -0.6127 -0.2196  0.5625
   79SLPC  H11B 7223   3.203   3.138   6.492 -0.2237 -1.1199  0.5114
   79SLPC     P 7224   2.989   3.009   6.341  0.1577  0.1843 -0.1728
   79SLPC   O13 7225   2.862   3.004   6.255 -0.1027 -0.0194 -0.1093
   79SLPC   O14 7226   3.103   2.936   6.278 -1.0799 -0.5080  0.2860
   79SLPC   O12 7227   3.027   3.161   6.375  0.0652 -0.5839 -0.2904
   79SLPC   O11 7228   2.951   2.946   6.483  0.2081 -0.4365  0.3806
   79SLPC    C1 7229   3.033   2.906   6.588 -0.3087  0.3475  0.4836
   79SLPC    HA 7230   3.010   2.799   6.607  0.5397  0.0232 -0.2813
   79SLPC    HB 7231   3.140   2.908   6.558  0.0653  0.9940  1.7910
   79SLPC    C2 7232   3.009   3.003   6.707 -0.5114 -0.3360  0.1085
   79SLPC    HS 7233   3.026   3.106   6.669  2.4927  0.0040  2.0463
   79SLPC   O21 7234   3.098   2.959   6.807 -0.0491  0.3389 -0.2720
   79SLPC   C21 7235   3.190   3.045   6.845 -0.0313  0.6703 -0.2515
   79SLPC   O22 7236   3.198   3.162   6.823  0.3881 -0.4788 -0.5868
   79SLPC   C22 7237   3.288   2.968   6.936  0.6153 -0.2585 -0.1927
   79SLPC   H2R 7238   3.277   2.859   6.915  0.2631 -0.4870  1.0906
   79SLPC   H2S 7239   3.387   3.002   6.899  0.5885  0.5436  0.4566
   79SLPC    C3 7240   2.861   3.002   6.772 -0.0493  0.0769  0.0689
   79SLPC    HX 7241   2.837   2.894   6.785 -1.3445  0.4680  1.2391
   79SLPC    HY 7242   2.775   3.033   6.708 -0.8018 -2.0117 -0.0172
   79SLPC   O31 7243   2.862   3.056   6.908 -0.2525  0.3152  0.7837
   79SLPC   C31 7244   2.825   3.182   6.915 -0.4079  0.2477  0.0458
   79SLPC   O32 7245   2.797   3.253   6.823 -0.2555  0.0991 -0.0175
   79SLPC   C32 7246   2.804   3.216   7.063  1.0932 -0.0377 -0.4015
   79SLPC   H2X 7247   2.774   3.123   7.115 -4.7937  1.2759 -0.7561
   79SLPC   H2Y 7248   2.715   3.283   7.069  0.3994 -1.0319  0.6407
   79SLPC   C23 7249   3.260   2.998   7.090 -0.2418  0.0840 -0.2404
   79SLPC   H3R 7250   3.167   2.940   7.109 -0.5328  0.3161 -0.9325
   79SLPC   H3S 7251   3.242   3.104   7.117  1.0338  0.1326  0.4891
   79SLPC   C24 7252   3.370   2.923   7.173 -0.5165 -0.1019 -0.3564
   79SLPC   H4R 7253   3.474   2.955   7.150  0.2353 -0.5778  2.1582
   79SLPC   H4S 7254   3.367   2.815   7.149 -1.6674 -0.1611 -0.0214
   79SLPC   C25 7255   3.332   2.938   7.319 -0.0830  0.0611  0.0224
   79SLPC   H5R 7256   3.360   2.848   7.379 -2.0009 -0.4240  0.2595
   79SLPC   H5S 7257   3.221   2.932   7.328 -0.0765  0.8703  0.8057
   79SLPC   C26 7258   3.389   3.060   7.392 -0.1336  0.1711 -0.0992
   79SLPC   H6R 7259   3.381   3.147   7.324 -0.8187  0.4354  0.3040
   79SLPC   H6S 7260   3.496   3.044   7.414 -0.4350  0.2045  1.4807
   79SLPC   C27 7261   3.310   3.106   7.523 -0.3025  0.2018  0.2640
   79SLPC   H7R 7262   3.210   3.143   7.490 -0.9884 -0.9711  0.9826
   79SLPC   H7S 7263   3.367   3.199   7.545  0.7437 -0.6919  1.4461
   79SLPC   C28 7264   3.319   2.997   7.630 -0.2886  0.4219  0.3732
   79SLPC   H8R 7265   3.417   2.946   7.641 -1.1121 -1.1567  0.6724
   79SLPC   H8S 7266   3.247   2.917   7.604 -1.9407  1.0243  2.7396
   79SLPC   C29 7267   3.296   3.064   7.765 -0.3490  0.2577 -0.4287
   79SLPC   H9R 7268   3.347   3.159   7.787 -4.3523  2.2802  1.0338
   79SLPC  C210 7269   3.232   3.014   7.871 -0.6172  0.1042 -0.1145
   79SLPC  H10R 7270   3.234   3.079   7.959 -1.8417 -0.3795  0.2836
   79SLPC  C211 7271   3.151   2.887   7.891  0.4581 -0.1623 -0.0570
   79SLPC  H11R 7272   3.137   2.843   7.789  0.6497 -0.2230 -0.0571
   79SLPC  H11S 7273   3.048   2.908   7.928  0.5613 -2.4222  1.7640
   79SLPC  C212 7274   3.208   2.793   8.001 -0.3569  0.6245  0.4306
   79SLPC  H12R 7275   3.152   2.776   8.095  0.3847 -0.1598  0.7473
   79SLPC  C213 7276   3.319   2.723   7.981  0.1466  0.6827 -0.2834
   79SLPC  H13R 7277   3.359   2.656   8.059  1.8378  3.2588  1.2031
   79SLPC  C214 7278   3.392   2.725   7.856  0.2653  0.4022  0.1200
   79SLPC  H14R 7279   3.499   2.743   7.877  0.6345 -0.1056 -1.2690
   79SLPC  H14S 7280   3.359   2.805   7.786 -1.3573 -0.3188 -0.0000
   79SLPC  C215 7281   3.377   2.587   7.791  0.0084 -0.1382  0.1681
   79SLPC  H15R 7282   3.377   2.511   7.872  0.5409  1.4813  1.7780
   79SLPC  H15S 7283   3.466   2.575   7.725  1.5273  2.0438  1.6606
   79SLPC  C216 7284   3.262   2.577   7.693 -0.2107  0.0694 -0.2805
   79SLPC  H16R 7285   3.273   2.643   7.605 -0.0541  0.6758  0.1834
   79SLPC  H16S 7286   3.166   2.606   7.741  0.5194  3.1308 -0.4503
   79SLPC  C217 7287   3.247   2.433   7.641  0.3241 -0.8627 -0.5714
   79SLPC  H17R 7288   3.247   2.367   7.730  2.5345  0.8250  0.7629
   79SLPC  H17S 7289   3.334   2.401   7.580  1.7375  1.3946  0.1379
   79SLPC  C218 7290   3.118   2.405   7.569  0.2547  0.0064  0.0568
   79SLPC  H18R 7291   3.033   2.403   7.640  1.0333 -2.4221  1.0286
   79SLPC  H18S 7292   3.105   2.304   7.524 -2.1819 -0.9752  2.6705
   79SLPC  H18T 7293   3.098   2.471   7.482 -2.4398 -0.9571 -0.1602
   79SLPC   C33 7294   2.935   3.292   7.119 -0.1124  0.0623  0.6135
   79SLPC   H3X 7295   2.965   3.381   7.059  0.3121 -0.1069  0.5660
   79SLPC   H3Y 7296   3.014   3.215   7.131  0.7161  0.9979  1.3614
   79SLPC   C34 7297   2.900   3.334   7.263 -0.6128  0.6508  0.6925
   79SLPC   H4X 7298   2.811   3.400   7.272 -0.2284  1.3289 -0.3695
   79SLPC   H4Y 7299   2.985   3.398   7.295  1.3686 -0.9579 -1.0478
   79SLPC   C35 7300   2.901   3.226   7.368 -0.4034 -0.3193 -0.5595
   79SLPC   H5X 7301   3.000   3.177   7.360 -0.0765  0.2239  0.0798
   79SLPC   H5Y 7302   2.820   3.154   7.341 -0.4065 -0.2722 -0.6752
   79SLPC   C36 7303   2.880   3.280   7.507 -0.2971 -0.2781 -0.6095
   79SLPC   H6X 7304   2.814   3.369   7.494 -0.3089  0.2022  2.0160
   79SLPC   H6Y 7305   2.973   3.324   7.548 -1.9734  1.4437  1.6707
   79SLPC   C37 7306   2.833   3.185   7.608  0.5599  0.1618  0.3618
   79SLPC   H7X 7307   2.908   3.105   7.625  1.8900  1.0039 -1.1860
   79SLPC   H7Y 7308   2.737   3.133   7.587  0.8052 -0.7179  1.3599
   79SLPC   C38 7309   2.809   3.249   7.745  0.2008  0.0546  0.0516
   79SLPC   H8X 7310   2.751   3.343   7.733  1.2955  0.6815 -0.4586
   79SLPC   H8Y 7311   2.903   3.282   7.794 -0.0591 -0.6958  1.0788
   79SLPC   C39 7312   2.730   3.157   7.842 -0.0826 -0.8042 -0.3827
   79SLPC   H9X 7313   2.762   3.052   7.825  0.7923 -0.5478 -0.3472
   79SLPC   H9Y 7314   2.623   3.169   7.815 -0.4706  0.2746  1.4674
   79SLPC  C310 7315   2.741   3.190   7.992  0.0523 -0.5353 -0.2997
   79SLPC  H10X 7316   2.654   3.161   8.056  0.0921 -1.1925 -0.5354
   79SLPC  H10Y 7317   2.745   3.301   7.997  2.3334 -0.6009  0.5336
   79SLPC  C311 7318   2.873   3.142   8.064  0.0185 -0.6701  0.1314
   79SLPC  H11X 7319   2.958   3.173   8.000 -0.5749 -0.2415 -0.4619
   79SLPC  H11Y 7320   2.869   3.031   8.064  0.1981 -0.6772  0.3871
   79SLPC  C312 7321   2.883   3.199   8.205  0.4874 -0.1657  0.0263
   79SLPC  H12X 7322   2.805   3.161   8.274 -1.3963  2.7983 -0.2864
   79SLPC  H12Y 7323   2.877   3.309   8.194 -0.6889 -0.3143 -1.1549
   79SLPC  C313 7324   3.009   3.157   8.281  0.5850 -0.3299 -0.5283
   79SLPC  H13X 7325   3.012   3.225   8.369 -1.7926 -0.3340 -0.3797
   79SLPC  H13Y 7326   3.093   3.178   8.211  0.8042  1.8511  0.2953
   79SLPC  C314 7327   3.028   3.006   8.311 -0.3418 -0.3980 -0.1570
   79SLPC  H14X 7328   3.024   2.955   8.212 -0.0580  2.0485 -1.4957
   79SLPC  H14Y 7329   2.948   2.959   8.372  0.5429 -3.4358 -1.1547
   79SLPC  C315 7330   3.163   2.967   8.369 -0.4139  0.0201 -0.0092
   79SLPC  H15X 7331   3.242   2.990   8.295  0.5776 -1.2954  0.6002
   79SLPC  H15Y 7332   3.172   2.858   8.387 -3.3748 -0.1462  1.0161
   79SLPC  C316 7333   3.198   3.034   8.502  0.4857  0.0553 -0.7456
   79SLPC  H16X 7334   3.184   3.144   8.493 -1.9451 -0.0789  0.3735
   79SLPC  H16Y 7335   3.301   3.010   8.536 -0.1905  0.3315  1.6833
   79SLPC  C317 7336   3.098   2.992   8.614  0.3053 -1.0407  0.4780
   79SLPC  H17X 7337   3.087   2.882   8.624  1.8846 -1.2159  0.5805
   79SLPC  H17Y 7338   3.000   3.038   8.591 -0.0473 -1.6236  0.7667
   79SLPC  C318 7339   3.155   3.046   8.741 -0.2574 -0.2314 -1.0087
   79SLPC  H18X 7340   3.258   3.008   8.756 -0.7951 -0.7194  2.2498
   79SLPC  H18Y 7341   3.085   3.024   8.824 -0.1754 -0.6424 -1.0487
   79SLPC  H18Z 7342   3.155   3.157   8.730 -1.3264 -0.3134 -2.0499
   80SLPC     N 7343   2.854   1.969   6.029  0.3032  0.5528  0.6841
   80SLPC   C13 7344   2.757   1.956   5.911  0.2611 -0.0539  0.1139
   80SLPC  H13A 7345   2.775   2.012   5.821 -0.0834 -1.3957 -0.8154
   80SLPC  H13B 7346   2.750   1.852   5.882  1.8841 -0.1312 -0.1057
   80SLPC  H13C 7347   2.659   1.981   5.949  0.1521 -0.6134  0.2171
   80SLPC   C14 7348   2.875   2.111   6.060 -0.0411 -0.2424 -0.8222
   80SLPC  H14A 7349   2.969   2.131   6.109  0.4079 -0.6858 -1.4762
   80SLPC  H14B 7350   2.880   2.159   5.963 -1.5972  0.3498 -0.6328
   80SLPC  H14C 7351   2.801   2.151   6.128  1.5879  0.2524  0.7196
   80SLPC   C15 7352   2.981   1.907   5.989  0.0954  0.2275 -0.7985
   80SLPC  H15A 7353   3.049   1.888   6.070 -0.1704  2.6276  0.0519
   80SLPC  H15B 7354   2.965   1.808   5.948 -0.2085 -0.7602  1.5770
   80SLPC  H15C 7355   3.029   1.971   5.917 -2.9953 -0.4778 -3.7602
   80SLPC   C12 7356   2.795   1.889   6.154 -0.0980  0.0252 -0.3146
   80SLPC  H12A 7357   2.802   1.785   6.127  5.3984  0.5768 -2.4296
   80SLPC  H12B 7358   2.693   1.913   6.180  0.0583 -1.1695  1.5293
   80SLPC   C11 7359   2.871   1.902   6.288  0.2971  0.4907  0.0955
   80SLPC  H11A 7360   2.966   1.845   6.271  0.3451 -0.1381  2.1723
   80SLPC  H11B 7361   2.808   1.853   6.365 -2.0808  1.0231 -1.3999
   80SLPC     P 7362   3.027   2.089   6.392 -0.2451  0.0982 -0.1328
   80SLPC   O13 7363   3.120   1.973   6.389 -0.2349 -0.3523  0.2868
   80SLPC   O14 7364   3.075   2.217   6.332 -0.9419 -0.3116 -0.2227
   80SLPC   O12 7365   2.892   2.042   6.328  0.2674  0.1119  0.0955
   80SLPC   O11 7366   2.994   2.122   6.543 -0.2644  0.3170 -0.5667
   80SLPC    C1 7367   2.894   2.211   6.586  0.1367 -0.5183  0.3217
   80SLPC    HA 7368   2.946   2.299   6.630  2.0059 -1.7194  0.6025
   80SLPC    HB 7369   2.837   2.242   6.496 -0.1634 -1.4330  0.1882
   80SLPC    C2 7370   2.795   2.135   6.680 -0.8867 -0.0491 -0.0779
   80SLPC    HS 7371   2.703   2.196   6.666 -0.8076  0.5968  1.8501
   80SLPC   O21 7372   2.841   2.156   6.813 -0.3600  0.2997 -0.6144
   80SLPC   C21 7373   2.749   2.190   6.902 -0.5270 -0.8132 -0.4038
   80SLPC   O22 7374   2.628   2.178   6.896 -0.6844  0.4602  0.2757
   80SLPC   C22 7375   2.823   2.238   7.021 -0.0342 -0.9712 -0.0968
   80SLPC   H2R 7376   2.898   2.159   7.043  2.6074  0.9895 -1.5331
   80SLPC   H2S 7377   2.886   2.324   6.990 -0.4589 -1.4220 -2.4049
   80SLPC    C3 7378   2.775   1.988   6.644  0.2207 -0.2607  0.0381
   80SLPC    HX 7379   2.874   1.941   6.659  1.8005  2.8704  0.1156
   80SLPC    HY 7380   2.751   1.970   6.537  1.1789  0.9542 -0.3957
   80SLPC   O31 7381   2.681   1.927   6.732 -0.1370 -0.1177  0.0504
   80SLPC   C31 7382   2.562   1.912   6.683 -0.1438  0.0406  0.1658
   80SLPC   O32 7383   2.513   1.991   6.596  0.3155 -0.1722 -0.5276
   80SLPC   C32 7384   2.498   1.798   6.750 -0.4061  0.1576  0.6088
   80SLPC   H2X 7385   2.548   1.757   6.841 -1.5079 -1.4613  0.5138
   80SLPC   H2Y 7386   2.512   1.714   6.680  0.4216  1.1004 -0.3912
   80SLPC   C23 7387   2.726   2.268   7.137 -0.4423  0.7873 -0.0984
   80SLPC   H3R 7388   2.675   2.174   7.166  1.2629 -0.2415 -0.3330
   80SLPC   H3S 7389   2.654   2.348   7.107 -0.3714  1.5107  1.5622
   80SLPC   C24 7390   2.791   2.313   7.272  0.3180  0.8849  0.3087
   80SLPC   H4R 7391   2.867   2.393   7.260 -0.4038  1.6594  0.7724
   80SLPC   H4S 7392   2.830   2.225   7.326 -1.7769 -0.6441 -0.5436
   80SLPC   C25 7393   2.686   2.366   7.371  0.0583 -0.2160  0.1149
   80SLPC   H5R 7394   2.660   2.472   7.352  1.2821 -0.1309 -1.2706
   80SLPC   H5S 7395   2.745   2.376   7.465  2.7530  3.5007 -1.6979
   80SLPC   C26 7396   2.556   2.282   7.394  0.2570  0.1482  0.7984
   80SLPC   H6R 7397   2.586   2.178   7.420  2.9799  0.4571 -0.7664
   80SLPC   H6S 7398   2.507   2.288   7.295  0.8855  1.6486  0.5640
   80SLPC   C27 7399   2.457   2.341   7.498 -0.1233 -0.1045  0.6753
   80SLPC   H7R 7400   2.355   2.298   7.484 -0.7394  1.7909 -1.2826
   80SLPC   H7S 7401   2.441   2.449   7.476 -1.5812 -0.4954 -0.3178
   80SLPC   C28 7402   2.495   2.317   7.646 -0.3671 -0.0907  0.3253
   80SLPC   H8R 7403   2.591   2.367   7.671  0.0048 -0.6978  0.1324
   80SLPC   H8S 7404   2.509   2.207   7.650 -2.0724 -0.4037 -1.1306
   80SLPC   C29 7405   2.393   2.361   7.742  0.5722 -0.3662 -0.6518
   80SLPC   H9R 7406   2.287   2.366   7.712 -0.2576  0.8485  2.1426
   80SLPC  C210 7407   2.422   2.390   7.872  0.0370  0.0133 -0.1022
   80SLPC  H10R 7408   2.337   2.425   7.933 -0.0095  1.5129 -0.9856
   80SLPC  C211 7409   2.547   2.382   7.952  0.2139 -0.1084 -0.1597
   80SLPC  H11R 7410   2.575   2.479   7.998 -0.2433  0.3234 -0.7802
   80SLPC  H11S 7411   2.630   2.352   7.884 -0.6215 -2.2997 -0.2913
   80SLPC  C212 7412   2.538   2.275   8.056 -0.4522  0.4947  0.2081
   80SLPC  H12R 7413   2.596   2.184   8.036  0.6597  1.2823 -0.2533
   80SLPC  C213 7414   2.477   2.290   8.174  0.0137 -0.3316 -0.3310
   80SLPC  H13R 7415   2.471   2.206   8.245 -0.1515  1.2222  1.5497
   80SLPC  C214 7416   2.397   2.412   8.217 -1.3169  0.9034 -0.6167
   80SLPC  H14R 7417   2.289   2.389   8.228 -1.2112  0.2572 -0.9038
   80SLPC  H14S 7418   2.401   2.499   8.148 -2.5109  1.6630  0.2269
   80SLPC  C215 7419   2.447   2.459   8.355 -0.0225 -0.1383  0.3468
   80SLPC  H15R 7420   2.392   2.552   8.379  0.5690  0.5881 -0.9500
   80SLPC  H15S 7421   2.556   2.483   8.345  0.0264 -0.6909 -0.5384
   80SLPC  C216 7422   2.415   2.364   8.472 -0.4116  0.6348  0.2811
   80SLPC  H16R 7423   2.474   2.271   8.459  0.3879  1.1736  0.0018
   80SLPC  H16S 7424   2.307   2.336   8.465  0.0096 -1.1919  0.6426
   80SLPC  C217 7425   2.433   2.421   8.609  0.3918 -0.5080 -0.7945
   80SLPC  H17R 7426   2.402   2.351   8.689  1.6825 -1.1305 -0.8125
   80SLPC  H17S 7427   2.367   2.511   8.601  0.5365 -0.1909  1.2043
   80SLPC  C218 7428   2.574   2.462   8.652 -0.1618  0.4709  0.1292
   80SLPC  H18R 7429   2.639   2.374   8.673  2.4860  2.3430  0.3970
   80SLPC  H18S 7430   2.568   2.518   8.747 -0.3071  0.0729  0.3579
   80SLPC  H18T 7431   2.624   2.518   8.570 -1.0800 -2.5058 -2.6475
   80SLPC   C33 7432   2.351   1.809   6.766  0.2290 -0.2468 -0.5112
   80SLPC   H3X 7433   2.303   1.719   6.810  2.1121 -1.2307 -0.3851
   80SLPC   H3Y 7434   2.314   1.820   6.661  1.2647 -0.8327 -0.9500
   80SLPC   C34 7435   2.308   1.934   6.845 -0.1927  0.2501  0.7785
   80SLPC   H4X 7436   2.222   1.967   6.784  0.1304  0.4821  0.4458
   80SLPC   H4Y 7437   2.378   2.020   6.835  0.4467 -0.1790  1.4750
   80SLPC   C35 7438   2.297   1.915   6.997  0.2217 -0.6006  0.2005
   80SLPC   H5X 7439   2.259   1.811   7.003 -1.5431 -0.5644 -5.0694
   80SLPC   H5Y 7440   2.212   1.975   7.035  2.5903  2.7229  0.6763
   80SLPC   C36 7441   2.414   1.951   7.079  0.8681  0.2279 -0.8765
   80SLPC   H6X 7442   2.437   2.058   7.060 -1.0768  0.5912 -1.3615
   80SLPC   H6Y 7443   2.501   1.883   7.061  1.0238 -0.5240  2.1578
   80SLPC   C37 7444   2.379   1.960   7.229  0.1475  0.1124  0.3981
   80SLPC   H7X 7445   2.312   2.049   7.235  1.5243  1.2068  0.1722
   80SLPC   H7Y 7446   2.476   1.992   7.271  0.2763  1.5250 -0.8816
   80SLPC   C38 7447   2.299   1.851   7.293 -0.2766 -0.0662 -0.4335
   80SLPC   H8X 7448   2.364   1.763   7.310 -0.1890 -0.3581 -2.0532
   80SLPC   H8Y 7449   2.226   1.813   7.218  0.5969  0.3114 -1.5020
   80SLPC   C39 7450   2.230   1.910   7.414  0.3219  0.6643 -0.6980
   80SLPC   H9X 7451   2.162   1.830   7.450 -0.1387  1.1508 -0.4666
   80SLPC   H9Y 7452   2.184   2.009   7.391  1.9354  1.2537 -1.5326
   80SLPC  C310 7453   2.320   1.950   7.534  0.2670  0.0389  0.2602
   80SLPC  H10X 7454   2.399   2.019   7.496  1.0723  1.4018  3.9284
   80SLPC  H10Y 7455   2.371   1.857   7.567 -0.4514 -0.1983  0.7204
   80SLPC  C311 7456   2.227   2.004   7.644  0.0658  0.1795  0.7288
   80SLPC  H11X 7457   2.131   1.948   7.642 -1.4972  2.6792 -1.3151
   80SLPC  H11Y 7458   2.205   2.109   7.615 -0.5169 -0.3368 -0.7738
   80SLPC  C312 7459   2.280   2.008   7.787  0.1864  0.0077  0.5058
   80SLPC  H12X 7460   2.351   2.091   7.805 -1.1764  1.9639 -2.3199
   80SLPC  H12Y 7461   2.332   1.910   7.793 -2.7128 -1.6868 -0.1488
   80SLPC  C313 7462   2.169   2.011   7.891  0.4289  0.1729 -0.5224
   80SLPC  H13X 7463   2.120   1.914   7.869 -1.9122  0.5835  2.2502
   80SLPC  H13Y 7464   2.090   2.082   7.858 -0.2893 -0.6817 -0.6796
   80SLPC  C314 7465   2.219   2.017   8.038  0.1191 -0.0320 -0.3333
   80SLPC  H14X 7466   2.290   2.102   8.052 -1.1372  1.1823 -0.9941
   80SLPC  H14Y 7467   2.263   1.918   8.061  0.7978  0.0255 -1.3109
   80SLPC  C315 7468   2.103   2.052   8.132  0.8369 -0.5208  0.5892
   80SLPC  H15X 7469   2.008   2.024   8.080  0.8195 -0.9257  0.8379
   80SLPC  H15Y 7470   2.097   2.162   8.145  0.3661 -0.4791  0.0896
   80SLPC  C316 7471   2.107   1.985   8.267  0.3822 -0.1625  0.1451
   80SLPC  H16X 7472   2.143   1.882   8.247  1.9368  0.3502  0.1237
   80SLPC  H16Y 7473   2.014   1.988   8.327  0.7591 -2.6939  1.0109
   80SLPC  C317 7474   2.221   2.038   8.368  0.0952 -0.4566  0.2127
   80SLPC  H17X 7475   2.204   2.148   8.381 -1.3120 -0.8255  1.9416
   80SLPC  H17Y 7476   2.315   2.028   8.309 -0.5398 -2.3133 -0.5470
   80SLPC  C318 7477   2.234   1.961   8.501 -0.2191 -0.8930 -0.0628
   80SLPC  H18X 7478   2.262   1.858   8.472  1.9460 -0.3479 -0.1053
   80SLPC  H18Y 7479   2.134   1.970   8.550  0.8038  1.8073  1.7675
   80SLPC  H18Z 7480   2.313   1.999   8.569 -0.5450 -1.9500  0.9477
   81SAPS     N 7481   5.875   4.237  11.286  0.3989 -0.2577 -0.2217
   81SAPS   HN1 7482   5.781   4.233  11.243 -1.0246  2.2687  2.3348
   81SAPS   HN2 7483   5.945   4.218  11.211  2.3250  0.9947  1.1515
   81SAPS   HN3 7484   5.880   4.168  11.363 -0.7953  0.4528  0.5104
   81SAPS   C12 7485   5.915   4.364  11.337 -0.2619 -0.4273  0.2734
   81SAPS  H12A 7486   5.844   4.396  11.412 -0.7717  1.8898 -1.1052
   81SAPS   C13 7487   6.058   4.368  11.391 -0.7239 -0.1974 -0.5721
   81SAPS  O13A 7488   6.143   4.278  11.357 -0.1055  0.0292  0.4083
   81SAPS  O13B 7489   6.098   4.474  11.458 -0.3483  0.2278  0.0945
   81SAPS   C11 7490   5.919   4.471  11.223  0.1173 -0.1701 -1.0101
   81SAPS  H11A 7491   5.824   4.460  11.167 -0.4508 -0.3153 -0.0513
   81SAPS  H11B 7492   5.997   4.449  11.147 -1.0836 -2.4045 -1.7028
   81SAPS     P 7493   5.790   4.681  11.316 -0.4135 -0.2895  0.1377
   81SAPS   O13 7494   5.695   4.579  11.349 -0.0084 -0.0280 -0.5115
   81SAPS   O14 7495   5.825   4.784  11.416  0.6683  0.6225 -0.1097
   81SAPS   O12 7496   5.924   4.612  11.266  0.1642  0.0715  1.3717
   81SAPS   O11 7497   5.731   4.764  11.190 -0.2542 -0.1179 -0.4201
   81SAPS    C1 7498   5.807   4.815  11.080 -0.3639  0.3057  0.0951
   81SAPS    HA 7499   5.764   4.905  11.032  0.0068  0.0517 -0.7350
   81SAPS    HB 7500   5.907   4.841  11.119  0.0929 -0.4538 -0.5407
   81SAPS    C2 7501   5.828   4.704  10.969  0.3336  0.1880 -0.0043
   81SAPS    HS 7502   5.876   4.616  11.019 -1.3398 -0.6583  0.1662
   81SAPS   O21 7503   5.909   4.755  10.862  0.3694 -0.4953 -0.1377
   81SAPS   C21 7504   5.971   4.661  10.798 -0.2937  0.3006  0.1795
   81SAPS   O22 7505   5.976   4.540  10.820 -0.0707 -0.3282 -0.5034
   81SAPS   C22 7506   6.063   4.733  10.700  0.0730 -0.0573 -0.2211
   81SAPS   H2R 7507   6.005   4.789  10.623  0.1877 -1.4259 -1.3322
   81SAPS   H2S 7508   6.129   4.804  10.756  0.0408  1.0366 -1.5054
   81SAPS    C3 7509   5.686   4.658  10.918 -0.1057  0.4433 -1.2190
   81SAPS    HX 7510   5.627   4.618  11.004  1.1139 -0.7246 -0.8835
   81SAPS    HY 7511   5.698   4.570  10.852  0.3455  0.4868 -1.1953
   81SAPS   O31 7512   5.618   4.770  10.862  0.2625  0.0549  0.4055
   81SAPS   C31 7513   5.638   4.785  10.730  1.4993  0.0911 -0.4969
   81SAPS   O32 7514   5.704   4.711  10.661  0.1572  0.5103  0.2930
   81SAPS   C32 7515   5.560   4.898  10.671  0.7680 -0.0209  0.2679
   81SAPS   H2X 7516   5.627   4.979  10.634 -0.7919  0.1602 -2.5097
   81SAPS   H2Y 7517   5.482   4.938  10.739 -1.3280 -0.9260 -1.4713
   81SAPS   C23 7518   6.161   4.636  10.624 -0.7533  0.1442 -0.4868
   81SAPS   H3R 7519   6.123   4.539  10.585  1.4984 -1.7500  1.6392
   81SAPS   H3S 7520   6.248   4.610  10.688  1.3968  4.1360 -1.4638
   81SAPS   C24 7521   6.237   4.697  10.499  0.1403  0.3108  0.4569
   81SAPS   H4R 7522   6.168   4.693  10.412  0.7399 -1.0878  0.0212
   81SAPS   H4S 7523   6.324   4.637  10.469  0.8065  0.9514  1.0588
   81SAPS   C25 7524   6.284   4.836  10.521  0.0405  0.3234  0.0735
   81SAPS   H5R 7525   6.317   4.841  10.626  0.3198  1.8561 -0.0723
   81SAPS   C26 7526   6.282   4.942  10.440  0.0262  0.0312 -0.5200
   81SAPS   H6R 7527   6.332   5.035  10.470 -2.0629  0.2755  2.7081
   81SAPS   C27 7528   6.243   4.941  10.297  0.1336 -0.2995  0.6101
   81SAPS   H7R 7529   6.134   4.958  10.283  0.5570  1.4860 -0.8223
   81SAPS   H7S 7530   6.273   4.847  10.248 -2.0269 -0.6779 -0.1051
   81SAPS   C28 7531   6.322   5.050  10.223  0.3238  0.9321  0.2961
   81SAPS   H8R 7532   6.394   5.107  10.283 -2.0447  1.8407  2.4982
   81SAPS   C29 7533   6.294   5.094  10.092  0.4264 -0.5106 -0.0144
   81SAPS   H9R 7534   6.368   5.161  10.047 -1.4288  1.5683 -0.1470
   81SAPS  C210 7535   6.171   5.037  10.016 -0.0595  0.0898  0.6427
   81SAPS  H10R 7536   6.095   4.984  10.076 -2.4011  1.4624 -0.9363
   81SAPS  H10S 7537   6.211   4.967   9.939  0.0712  1.4253 -0.5610
   81SAPS  C211 7538   6.085   5.144   9.938  0.2354 -0.3168 -0.3412
   81SAPS  H11R 7539   6.028   5.213  10.002 -2.1242 -1.6402 -0.8773
   81SAPS  C212 7540   6.091   5.174   9.811 -0.4207  0.0058  1.1044
   81SAPS  H12R 7541   6.028   5.255   9.771  1.3564  0.6464 -0.5876
   81SAPS  C213 7542   6.163   5.105   9.696  0.2861 -0.0102  0.4918
   81SAPS  H13R 7543   6.090   5.068   9.620  0.5860 -2.3584  1.2626
   81SAPS  H13S 7544   6.201   5.006   9.731  2.3153  1.0535  1.4318
   81SAPS  C214 7545   6.280   5.183   9.638 -0.0179  0.6238 -0.8624
   81SAPS  H14R 7546   6.354   5.225   9.708 -0.8685  1.2420 -0.3308
   81SAPS  C215 7547   6.292   5.217   9.509 -0.8262  0.2149 -0.1242
   81SAPS  H15R 7548   6.377   5.280   9.480 -0.1683 -0.9374 -0.7258
   81SAPS  C216 7549   6.204   5.191   9.393 -0.5144  0.5994  0.1504
   81SAPS  H16R 7550   6.199   5.279   9.325  0.3482  0.2535 -0.3841
   81SAPS  H16S 7551   6.101   5.179   9.434 -0.3335  0.4028  0.5464
   81SAPS  C217 7552   6.284   5.084   9.320 -0.5150 -0.3050 -1.1074
   81SAPS  H17R 7553   6.290   4.996   9.388  0.3152  0.9478  0.5135
   81SAPS  H17S 7554   6.383   5.120   9.287 -0.4831 -1.3932 -2.2581
   81SAPS  C218 7555   6.216   5.040   9.195 -0.0166  0.1852  0.2650
   81SAPS  H18R 7556   6.187   5.124   9.128  1.1207  1.1126  0.8984
   81SAPS  H18S 7557   6.129   4.972   9.208  0.9176 -2.1808 -3.9100
   81SAPS  C219 7558   6.306   4.948   9.106  0.4313  0.3863  0.0407
   81SAPS  H19R 7559   6.247   4.915   9.018 -0.8650  1.1861  0.5888
   81SAPS  H19S 7560   6.316   4.856   9.168  3.2730  0.6245  0.0724
   81SAPS  C220 7561   6.442   4.995   9.067  0.8609 -0.0403 -0.6345
   81SAPS  H20R 7562   6.501   5.039   9.150  0.0992  0.6027 -0.4173
   81SAPS  H20S 7563   6.442   5.075   8.990 -1.2045 -0.1543 -0.8204
   81SAPS  H20T 7564   6.485   4.900   9.029 -1.3326 -3.1262  3.5931
   81SAPS   C33 7565   5.481   4.853  10.542  0.4571 -0.2244  0.8817
   81SAPS   H3X 7566   5.444   4.750  10.559  1.0510 -0.5541  0.2004
   81SAPS   H3Y 7567   5.554   4.865  10.459 -1.5024  1.6921 -0.6891
   81SAPS   C34 7568   5.368   4.942  10.493  0.7173 -0.6479 -0.7887
   81SAPS   H4X 7569   5.405   5.046  10.484 -0.2543 -0.2006  0.1446
   81SAPS   H4Y 7570   5.290   4.943  10.572  1.5350  0.9758  0.0406
   81SAPS   C35 7571   5.299   4.899  10.365  0.3608  0.1039  0.2661
   81SAPS   H5X 7572   5.233   4.980  10.326 -0.6461 -1.1562 -0.7712
   81SAPS   H5Y 7573   5.227   4.817  10.387  0.9112 -0.1662  1.0903
   81SAPS   C36 7574   5.395   4.838  10.264  0.4327  0.1375  0.2555
   81SAPS   H6X 7575   5.465   4.765  10.311  1.4304  0.7777 -0.1827
   81SAPS   H6Y 7576   5.446   4.933  10.237 -3.3093  1.7093 -1.9469
   81SAPS   C37 7577   5.335   4.790  10.138  0.5506 -0.0939  0.1708
   81SAPS   H7X 7578   5.252   4.864  10.125  1.2818  0.8506  0.7583
   81SAPS   H7Y 7579   5.299   4.685  10.137  0.8879 -0.2103  0.1270
   81SAPS   C38 7580   5.421   4.791  10.010 -0.3052 -0.0930  0.1848
   81SAPS   H8X 7581   5.519   4.745  10.034  0.2724  1.2724  0.5212
   81SAPS   H8Y 7582   5.446   4.896   9.983 -1.7951 -0.3579 -2.6157
   81SAPS   C39 7583   5.340   4.724   9.896  0.0047 -0.0143  0.1797
   81SAPS   H9X 7584   5.254   4.785   9.862  0.2578 -0.0800 -0.6054
   81SAPS   H9Y 7585   5.286   4.634   9.931  0.1881 -0.7073 -1.2688
   81SAPS  C310 7586   5.433   4.704   9.771 -0.2067  0.4161  0.1877
   81SAPS  H10X 7587   5.514   4.635   9.805 -0.6509 -0.7211 -0.9832
   81SAPS  H10Y 7588   5.468   4.805   9.742  1.0716 -0.3619 -1.1243
   81SAPS  C311 7589   5.359   4.645   9.651 -0.3362  0.3075  0.3679
   81SAPS  H11X 7590   5.269   4.707   9.635  0.1388  0.8937 -0.0937
   81SAPS  H11Y 7591   5.336   4.537   9.666  1.6442 -0.0212  1.4248
   81SAPS  C312 7592   5.447   4.652   9.525  0.3355 -0.0517  0.0617
   81SAPS  H12X 7593   5.547   4.607   9.546  0.7553  0.8283 -0.0112
   81SAPS  H12Y 7594   5.468   4.757   9.497 -1.7521  0.0422 -1.3336
   81SAPS  C313 7595   5.382   4.582   9.403  0.3669 -0.4311  0.3678
   81SAPS  H13X 7596   5.284   4.631   9.388 -0.0386 -1.1308  0.6912
   81SAPS  H13Y 7597   5.367   4.480   9.443  1.9301 -1.4858 -1.5415
   81SAPS  C314 7598   5.461   4.587   9.268  0.7812  0.4060  0.3750
   81SAPS  H14X 7599   5.566   4.561   9.294  0.9959  1.0301  0.1368
   81SAPS  H14Y 7600   5.456   4.693   9.235 -0.3934 -0.5891 -3.1007
   81SAPS  C315 7601   5.391   4.499   9.154 -0.1163  0.2129 -0.6199
   81SAPS  H15X 7602   5.289   4.537   9.132  0.4217  2.1699  0.0646
   81SAPS  H15Y 7603   5.385   4.394   9.188  0.1452  0.7641  1.2421
   81SAPS  C316 7604   5.476   4.507   9.030  0.3462  0.5167  0.1098
   81SAPS  H16X 7605   5.571   4.455   9.053 -1.4684 -2.0300  2.6402
   81SAPS  H16Y 7606   5.486   4.608   8.987 -0.9747  0.8050  0.4448
   81SAPS  C317 7607   5.422   4.419   8.914 -0.5618  0.4222 -0.3742
   81SAPS  H17X 7608   5.414   4.313   8.948 -0.1684 -0.2010 -2.1208
   81SAPS  H17Y 7609   5.492   4.409   8.828 -0.8636 -2.8347 -0.3816
   81SAPS  C318 7610   5.283   4.457   8.858 -0.5768 -0.4624 -0.0899
   81SAPS  H18X 7611   5.284   4.557   8.809  0.6125 -1.6291 -2.6783
   81SAPS  H18Y 7612   5.215   4.466   8.945  2.6844  0.2115  2.5996
   81SAPS  H18Z 7613   5.245   4.382   8.785  0.4016  0.6020 -1.7773
   82SAPS     N 7614   5.026   4.919  11.184 -0.2332  0.1892  0.2123
   82SAPS   HN1 7615   4.973   4.989  11.129 -0.3617  0.6291  0.8912
   82SAPS   HN2 7616   4.986   4.905  11.278 -1.0812 -1.3479 -0.3340
   82SAPS   HN3 7617   5.121   4.960  11.200 -0.2997  0.3441  0.2086
   82SAPS   C12 7618   5.051   4.792  11.116 -0.7244  0.0236  0.1165
   82SAPS  H12A 7619   5.148   4.815  11.077 -1.1967  3.0015  0.5028
   82SAPS   C13 7620   5.078   4.670  11.201  0.4511 -0.2661 -0.1633
   82SAPS  O13A 7621   5.057   4.683  11.329  0.0042  0.3995  0.8951
   82SAPS  O13B 7622   5.116   4.564  11.149  0.1232  0.2895  0.0508
   82SAPS   C11 7623   4.936   4.770  11.016  0.7400  0.1423 -0.0304
   82SAPS  H11A 7624   4.941   4.683  10.947 -0.4759  1.1100 -1.4057
   82SAPS  H11B 7625   4.966   4.855  10.951  1.9601 -1.0041 -1.0603
   82SAPS     P 7626   4.693   4.678  11.028  0.1963 -0.2191  0.1992
   82SAPS   O13 7627   4.731   4.531  11.040  0.2508  0.0182  0.6021
   82SAPS   O14 7628   4.570   4.718  11.103 -0.1372  0.1454  0.0384
   82SAPS   O12 7629   4.813   4.772  11.087 -0.2600  0.1780  0.0029
   82SAPS   O11 7630   4.683   4.725  10.878 -0.3027 -0.1136  0.3193
   82SAPS    C1 7631   4.625   4.851  10.845 -0.1451  0.5440  0.1889
   82SAPS    HA 7632   4.514   4.849  10.849 -0.2103  2.5354  0.0849
   82SAPS    HB 7633   4.672   4.938  10.896  0.6929 -0.2558  0.8303
   82SAPS    C2 7634   4.654   4.879  10.693  0.6836 -0.0931 -0.0106
   82SAPS    HS 7635   4.605   4.974  10.661  2.2009  0.8605  0.3808
   82SAPS   O21 7636   4.604   4.765  10.615 -0.3383 -0.1047 -0.1176
   82SAPS   C21 7637   4.479   4.765  10.572 -0.6036 -0.3519 -0.1441
   82SAPS   O22 7638   4.397   4.852  10.601  0.1481  0.0945  0.0073
   82SAPS   C22 7639   4.463   4.640  10.474  0.0473 -0.4154 -0.6845
   82SAPS   H2R 7640   4.540   4.572  10.517 -0.2769  0.9214  2.2535
   82SAPS   H2S 7641   4.360   4.598  10.483 -0.4030  0.5997 -1.0143
   82SAPS    C3 7642   4.806   4.892  10.667  0.4781  0.0088  0.8002
   82SAPS    HX 7643   4.861   4.805  10.710  0.0991 -0.4396  0.3821
   82SAPS    HY 7644   4.860   4.976  10.716  1.0440  0.6143 -0.8143
   82SAPS   O31 7645   4.822   4.894  10.522 -0.3872 -0.1910  0.2711
   82SAPS   C31 7646   4.795   5.011  10.467  0.0279  0.1994 -0.2352
   82SAPS   O32 7647   4.752   5.110  10.522  0.2266  0.1897  0.3132
   82SAPS   C32 7648   4.840   5.010  10.322  0.1432 -0.1239 -0.7904
   82SAPS   H2X 7649   4.789   4.920  10.282  0.6053  0.3570 -2.5545
   82SAPS   H2Y 7650   4.951   4.999  10.323  0.1769 -0.5054  2.1529
   82SAPS   C23 7651   4.487   4.675  10.328  0.4884 -0.0364 -0.0476
   82SAPS   H3R 7652   4.596   4.693  10.318  0.4640  0.2934  0.2748
   82SAPS   H3S 7653   4.434   4.771  10.304 -1.9899 -1.2347  0.2813
   82SAPS   C24 7654   4.423   4.572  10.231 -0.7613 -0.2750 -0.1163
   82SAPS   H4R 7655   4.316   4.558  10.257 -1.0214  0.2035 -0.8774
   82SAPS   H4S 7656   4.480   4.481  10.259  1.5808  1.4894  1.2425
   82SAPS   C25 7657   4.437   4.614  10.081 -0.4409 -0.1322 -0.3319
   82SAPS   H5R 7658   4.512   4.561  10.021  0.0064 -0.5260  0.5541
   82SAPS   C26 7659   4.364   4.710  10.022 -0.0653  0.9172 -0.0811
   82SAPS   H6R 7660   4.385   4.720   9.915  0.3161 -2.0743 -0.3815
   82SAPS   C27 7661   4.260   4.800  10.084  0.2336  0.3016 -0.0785
   82SAPS   H7R 7662   4.247   4.762  10.188 -0.2740  1.0010  0.1201
   82SAPS   H7S 7663   4.163   4.787  10.031  0.2732 -0.1306 -0.0491
   82SAPS   C28 7664   4.318   4.939  10.092 -0.3063  0.6696 -0.2871
   82SAPS   H8R 7665   4.418   4.952  10.137  0.2084  2.5783 -1.8260
   82SAPS   C29 7666   4.245   5.046  10.054 -0.8926  0.1463 -0.1161
   82SAPS   H9R 7667   4.290   5.147  10.057  1.2388 -0.6767 -1.6754
   82SAPS  C210 7668   4.101   5.036  10.002 -0.4718  0.0800  0.2493
   82SAPS  H10R 7669   4.049   5.134  10.012 -0.1565  0.2657  0.0679
   82SAPS  H10S 7670   4.043   4.960  10.059 -0.4264 -0.9794 -1.0921
   82SAPS  C211 7671   4.103   5.006   9.856  0.1150 -0.0509  0.3901
   82SAPS  H11R 7672   4.186   4.944   9.818 -0.2516  0.8499 -2.0869
   82SAPS  C212 7673   4.017   5.050   9.758 -0.5858  0.2119 -0.1766
   82SAPS  H12R 7674   4.040   5.023   9.654  1.4635 -0.3709  0.3897
   82SAPS  C213 7675   3.891   5.137   9.770  0.3175  0.3001  1.0522
   82SAPS  H13R 7676   3.885   5.197   9.676 -0.5015 -0.4083  0.6383
   82SAPS  H13S 7677   3.904   5.216   9.847 -0.9004 -1.4084  3.1222
   82SAPS  C214 7678   3.763   5.067   9.795 -0.6548  0.2968  0.0220
   82SAPS  H14R 7679   3.743   5.052   9.903 -0.3067  1.1391  0.2093
   82SAPS  C215 7680   3.680   5.019   9.701  0.2791 -0.3070 -0.5096
   82SAPS  H15R 7681   3.580   4.981   9.728  0.5824 -0.9108 -0.2149
   82SAPS  C216 7682   3.712   5.027   9.555  0.4233 -0.4041  0.4838
   82SAPS  H16R 7683   3.685   4.936   9.497  1.4375  0.8292 -2.1151
   82SAPS  H16S 7684   3.820   5.039   9.530  0.2374  2.4410  0.7623
   82SAPS  C217 7685   3.639   5.141   9.488 -0.1321  0.0756  0.3945
   82SAPS  H17R 7686   3.647   5.237   9.544  0.7893 -0.4590  1.2055
   82SAPS  H17S 7687   3.531   5.113   9.486  0.1021 -0.8337  0.3494
   82SAPS  C218 7688   3.691   5.173   9.346 -0.7451  0.3267 -0.2421
   82SAPS  H18R 7689   3.673   5.087   9.278  2.0729 -0.8321  0.3318
   82SAPS  H18S 7690   3.802   5.173   9.348 -0.7005 -1.8633 -0.2764
   82SAPS  C219 7691   3.636   5.309   9.307  0.1635 -0.1248  0.7631
   82SAPS  H19R 7692   3.673   5.334   9.205 -1.1100 -2.2427 -0.2843
   82SAPS  H19S 7693   3.654   5.392   9.378  0.0583 -0.2827  0.9737
   82SAPS  C220 7694   3.483   5.310   9.287  1.1580  0.0333  0.4420
   82SAPS  H20R 7695   3.432   5.288   9.383 -0.3410 -1.6289 -0.6659
   82SAPS  H20S 7696   3.445   5.239   9.210 -0.3028  0.1305  1.0533
   82SAPS  H20T 7697   3.451   5.413   9.262  2.2145  0.5173  1.0055
   82SAPS   C33 7698   4.800   5.131  10.251 -0.0587  0.2698 -0.1251
   82SAPS   H3X 7699   4.871   5.207  10.290  1.7165 -1.7110  0.6914
   82SAPS   H3Y 7700   4.698   5.167  10.272 -0.9773 -1.7258 -0.9347
   82SAPS   C34 7701   4.815   5.120  10.095  0.2351 -0.2863 -0.6900
   82SAPS   H4X 7702   4.899   5.051  10.073 -0.7887 -1.3638 -1.2583
   82SAPS   H4Y 7703   4.840   5.221  10.055  0.4845 -0.6839 -1.5439
   82SAPS   C35 7704   4.685   5.077  10.031 -0.4231 -0.3785 -0.9554
   82SAPS   H5X 7705   4.615   5.163  10.029 -0.2644 -0.1861  0.5281
   82SAPS   H5Y 7706   4.648   4.995  10.097  1.9423 -0.5427  0.2769
   82SAPS   C36 7707   4.718   5.026   9.893 -1.1084 -0.1020  0.3256
   82SAPS   H6X 7708   4.801   4.952   9.897  0.6042  1.6068 -1.1504
   82SAPS   H6Y 7709   4.759   5.108   9.830 -1.0355 -0.0107  0.4883
   82SAPS   C37 7710   4.596   4.956   9.835  1.0402 -0.5817  0.4690
   82SAPS   H7X 7711   4.547   4.904   9.920 -0.9573 -2.1204 -1.4690
   82SAPS   H7Y 7712   4.635   4.875   9.769  1.2133 -1.2570  1.3751
   82SAPS   C38 7713   4.498   5.049   9.750 -0.5106  0.2980 -0.4321
   82SAPS   H8X 7714   4.477   5.134   9.819 -3.0920  2.0917 -3.1943
   82SAPS   H8Y 7715   4.406   4.991   9.728  0.3824 -0.5959 -1.9619
   82SAPS   C39 7716   4.556   5.106   9.619 -0.3997  0.2426 -0.6952
   82SAPS   H9X 7717   4.656   5.152   9.636  0.6643 -0.9727 -3.1763
   82SAPS   H9Y 7718   4.505   5.188   9.566  1.7720  0.5505 -2.4775
   82SAPS  C310 7719   4.571   4.993   9.512 -0.0513 -0.2326 -0.1358
   82SAPS  H10X 7720   4.466   4.957   9.500 -0.6834  1.1903  0.8758
   82SAPS  H10Y 7721   4.641   4.920   9.559  1.9988  1.9772  0.4099
   82SAPS  C311 7722   4.620   5.030   9.376 -0.4388 -0.1101  0.1778
   82SAPS  H11X 7723   4.719   5.079   9.368  0.5278 -2.0067  0.0577
   82SAPS  H11Y 7724   4.543   5.100   9.337  0.6311  1.0067  0.0234
   82SAPS  C312 7725   4.612   4.914   9.278  0.1938  0.0129 -0.5249
   82SAPS  H12X 7726   4.512   4.869   9.292 -1.4920  4.0858  2.3818
   82SAPS  H12Y 7727   4.688   4.835   9.301  0.1524  0.3251  0.7207
   82SAPS  C313 7728   4.625   4.967   9.131 -0.1077 -0.1202 -0.4462
   82SAPS  H13X 7729   4.702   5.045   9.112 -1.5660  1.0451 -1.8963
   82SAPS  H13Y 7730   4.534   5.029   9.118 -0.6735 -1.0951 -1.2692
   82SAPS  C314 7731   4.618   4.867   9.018  0.5474  0.8390  0.8002
   82SAPS  H14X 7732   4.722   4.832   9.001  0.3860  1.0577 -0.8419
   82SAPS  H14Y 7733   4.601   4.936   8.933 -0.5621 -1.1644 -0.6988
   82SAPS  C315 7734   4.523   4.746   9.028  0.1627  0.0371  0.8931
   82SAPS  H15X 7735   4.549   4.679   9.113  1.4294  1.6055  1.8085
   82SAPS  H15Y 7736   4.534   4.681   8.939 -2.0275  0.0059  0.5837
   82SAPS  C316 7737   4.381   4.792   9.037  0.2502 -0.1581  0.2116
   82SAPS  H16X 7738   4.359   4.850   8.944  0.5995 -0.0651  0.1853
   82SAPS  H16Y 7739   4.365   4.852   9.129 -4.5972 -1.5351  0.5247
   82SAPS  C317 7740   4.276   4.682   9.039  0.1028  0.6855 -0.1926
   82SAPS  H17X 7741   4.184   4.733   9.073  0.2193  1.4987 -1.0633
   82SAPS  H17Y 7742   4.305   4.604   9.113  1.9180 -0.3893 -1.9233
   82SAPS  C318 7743   4.254   4.607   8.915  0.2844 -0.3477 -0.8130
   82SAPS  H18X 7744   4.208   4.653   8.825 -1.7384 -0.1009  0.3036
   82SAPS  H18Y 7745   4.197   4.511   8.917 -1.9755  0.9451 -0.7771
   82SAPS  H18Z 7746   4.356   4.574   8.883  0.7017  0.0685  0.0767
   83SAPS     N 7747   1.581   1.784  11.015  0.3861  0.3050  0.2476
   83SAPS   HN1 7748   1.498   1.847  11.015  0.3928  0.3909 -1.8465
   83SAPS   HN2 7749   1.652   1.859  11.008 -1.0861  1.8103  0.7982
   83SAPS   HN3 7750   1.575   1.724  10.930 -1.1291  0.8153 -0.0355
   83SAPS   C12 7751   1.590   1.695  11.133  0.6693  0.3160  0.0947
   83SAPS  H12A 7752   1.668   1.620  11.129 -0.4154 -0.8284 -0.0238
   83SAPS   C13 7753   1.609   1.775  11.268 -0.3611 -0.0395  0.0257
   83SAPS  O13A 7754   1.641   1.893  11.260  0.1971 -0.1902  0.3834
   83SAPS  O13B 7755   1.621   1.706  11.374 -0.2258 -0.6563  0.3295
   83SAPS   C11 7756   1.469   1.602  11.130 -0.4160 -0.4535 -0.1617
   83SAPS  H11A 7757   1.380   1.667  11.139  0.7851  1.0929  1.1536
   83SAPS  H11B 7758   1.465   1.543  11.224 -0.6850 -1.2162 -0.6352
   83SAPS     P 7759   1.376   1.406  11.001 -0.1479 -0.3258 -0.1407
   83SAPS   O13 7760   1.392   1.340  10.868 -0.1660 -0.3013  0.9341
   83SAPS   O14 7761   1.401   1.329  11.122  0.3104  0.2989 -0.0381
   83SAPS   O12 7762   1.467   1.530  11.010 -0.0261  0.4623 -0.4158
   83SAPS   O11 7763   1.243   1.469  11.009  0.0915 -0.4196  0.6404
   83SAPS    C1 7764   1.210   1.584  10.924 -0.4676 -0.3581  0.1395
   83SAPS    HA 7765   1.282   1.668  10.936  2.0899 -1.8688 -2.9072
   83SAPS    HB 7766   1.213   1.552  10.818 -4.3860  2.0000 -0.8696
   83SAPS    C2 7767   1.065   1.640  10.950  0.1857  0.4473 -0.4681
   83SAPS    HS 7768   1.060   1.692  11.048  1.0608 -0.4454  0.0736
   83SAPS   O21 7769   0.966   1.530  10.936 -0.2165 -0.1628  0.1902
   83SAPS   C21 7770   0.841   1.566  10.978 -0.8048 -0.2618  0.3001
   83SAPS   O22 7771   0.814   1.671  11.033 -0.1502 -0.1550 -0.6572
   83SAPS   C22 7772   0.746   1.450  10.928  0.2497 -0.1974 -0.4027
   83SAPS   H2R 7773   0.772   1.436  10.821 -1.5186 -2.6441 -0.5871
   83SAPS   H2S 7774   0.768   1.353  10.979  0.1607 -1.7899 -3.2210
   83SAPS    C3 7775   1.041   1.750  10.847 -0.2173 -0.0441  1.1283
   83SAPS    HX 7776   1.133   1.813  10.847 -1.1886  1.5632  4.3706
   83SAPS    HY 7777   0.964   1.817  10.891 -1.5453 -0.9985  0.3127
   83SAPS   O31 7778   1.007   1.703  10.708 -0.3742  0.2476 -0.3583
   83SAPS   C31 7779   0.945   1.796  10.638  0.1044  0.1675  0.1212
   83SAPS   O32 7780   0.923   1.908  10.676 -0.2912  0.7002  0.4970
   83SAPS   C32 7781   0.889   1.736  10.507 -0.4903  0.2539  0.1163
   83SAPS   H2X 7782   0.879   1.818  10.433 -0.7842 -1.3340 -1.6971
   83SAPS   H2Y 7783   0.791   1.693  10.537 -0.7795 -0.8361 -2.1756
   83SAPS   C23 7784   0.601   1.511  10.956 -0.6619  0.1259 -0.6077
   83SAPS   H3R 7785   0.598   1.621  10.948 -3.1128  0.1149 -0.6765
   83SAPS   H3S 7786   0.567   1.474  11.055  0.3146 -0.8360 -0.6095
   83SAPS   C24 7787   0.493   1.456  10.861 -0.5861  0.3936 -0.2760
   83SAPS   H4R 7788   0.389   1.478  10.896 -0.5743 -1.9333  1.4471
   83SAPS   H4S 7789   0.504   1.346  10.864  2.0767  0.6225  2.3385
   83SAPS   C25 7790   0.523   1.501  10.723  0.3034  0.1186  0.2775
   83SAPS   H5R 7791   0.608   1.452  10.673 -0.9360 -2.0903  0.2308
   83SAPS   C26 7792   0.464   1.593  10.640 -0.1543  0.3253 -0.9025
   83SAPS   H6R 7793   0.496   1.604  10.536 -0.8407  2.8995 -0.9189
   83SAPS   C27 7794   0.347   1.681  10.683 -0.1540 -0.4877 -0.1196
   83SAPS   H7R 7795   0.284   1.620  10.752  1.7418 -1.2615  1.0005
   83SAPS   H7S 7796   0.300   1.724  10.592 -0.2567 -1.9799 -0.8101
   83SAPS   C28 7797   0.394   1.798  10.765  0.2183 -1.0131  0.5049
   83SAPS   H8R 7798   0.361   1.796  10.871  3.5418  0.9997  1.7271
   83SAPS   C29 7799   0.454   1.909  10.715  0.3631 -0.3196  0.0817
   83SAPS   H9R 7800   0.486   1.991  10.781  0.4051  0.2606 -0.6349
   83SAPS  C210 7801   0.485   1.932  10.571  0.1419 -0.3365 -0.0535
   83SAPS  H10R 7802   0.418   2.014  10.539 -1.6503 -1.6451  0.2364
   83SAPS  H10S 7803   0.451   1.845  10.512 -2.0648 -0.4805  1.3130
   83SAPS  C211 7804   0.626   1.973  10.546  0.1158 -0.5853 -0.2096
   83SAPS  H11R 7805   0.691   1.987  10.634 -1.2759 -0.9329  0.9293
   83SAPS  C212 7806   0.672   1.998  10.421 -0.2077 -0.7552 -0.8658
   83SAPS  H12R 7807   0.776   2.035  10.415  0.2193 -1.5795  0.9172
   83SAPS  C213 7808   0.598   1.986  10.291 -0.0490 -0.2927 -0.6853
   83SAPS  H13R 7809   0.554   2.087  10.275  0.5787  0.0236 -0.4289
   83SAPS  H13S 7810   0.512   1.917  10.307  0.1291  0.0520  2.2637
   83SAPS  C214 7811   0.697   1.931  10.187 -0.5094  0.3396  0.8437
   83SAPS  H14R 7812   0.740   1.833  10.212  1.0014  0.6215 -0.5430
   83SAPS  C215 7813   0.735   1.977  10.064 -0.0728 -0.3097 -0.2451
   83SAPS  H15R 7814   0.814   1.921  10.011  0.6752 -1.3110  1.8316
   83SAPS  C216 7815   0.699   2.108  10.004 -0.0482 -0.5926 -0.9007
   83SAPS  H16R 7816   0.802   2.149  10.011  1.7652 -4.8121  1.9942
   83SAPS  H16S 7817   0.626   2.163  10.067  0.3327 -1.2975  0.1967
   83SAPS  C217 7818   0.651   2.086   9.864 -0.2521  0.2298  0.2416
   83SAPS  H17R 7819   0.551   2.038   9.874  0.0969 -0.8564 -1.1810
   83SAPS  H17S 7820   0.710   2.007   9.812  1.1387  2.2748 -1.4286
   83SAPS  C218 7821   0.618   2.210   9.768 -0.4918  0.2083 -0.5661
   83SAPS  H18R 7822   0.716   2.246   9.730  0.3825 -0.9482  0.5319
   83SAPS  H18S 7823   0.567   2.289   9.827 -0.6480  0.3729 -0.9185
   83SAPS  C219 7824   0.527   2.168   9.655 -0.0061  1.0922 -0.4348
   83SAPS  H19R 7825   0.445   2.243   9.645 -0.2266  0.9372  0.1972
   83SAPS  H19S 7826   0.484   2.068   9.676 -0.1388  0.5822 -2.8314
   83SAPS  C220 7827   0.600   2.153   9.523  0.2649 -0.2903  0.2472
   83SAPS  H20R 7828   0.539   2.118   9.437 -0.2522  0.3071  0.3615
   83SAPS  H20S 7829   0.679   2.075   9.533 -0.8916 -1.5624 -0.1429
   83SAPS  H20T 7830   0.668   2.235   9.492  1.5327 -1.3310  0.1878
   83SAPS   C33 7831   0.984   1.635  10.433 -0.3679 -0.4110 -0.6794
   83SAPS   H3X 7832   0.971   1.542  10.491  0.4403 -0.1528 -0.0619
   83SAPS   H3Y 7833   1.087   1.676  10.427 -0.4754 -0.3235 -2.7090
   83SAPS   C34 7834   0.945   1.618  10.287  0.2675 -0.3289 -0.2771
   83SAPS   H4X 7835   0.835   1.605  10.279  0.2455 -0.8412  0.6551
   83SAPS   H4Y 7836   0.993   1.520  10.268  2.0456 -0.0531  2.2692
   83SAPS   C35 7837   1.017   1.722  10.201 -0.1451  0.1875 -0.1120
   83SAPS   H5X 7838   1.127   1.714  10.218 -0.2182  0.0100  0.2905
   83SAPS   H5Y 7839   0.990   1.828  10.219  1.1519  0.8146 -1.5176
   83SAPS   C36 7840   0.984   1.688  10.053 -0.0171  0.3749  0.6046
   83SAPS   H6X 7841   0.875   1.699  10.035 -0.3188 -0.7079  1.5999
   83SAPS   H6Y 7842   1.021   1.585  10.033  1.4485  1.0198 -0.1511
   83SAPS   C37 7843   1.063   1.775   9.954  0.3946  0.0226 -0.3459
   83SAPS   H7X 7844   1.158   1.799  10.005  1.1304  1.8995 -2.4596
   83SAPS   H7Y 7845   0.999   1.863   9.933  0.1990 -0.9591 -4.9994
   83SAPS   C38 7846   1.083   1.710   9.817  0.3268 -0.4035 -0.6229
   83SAPS   H8X 7847   0.984   1.686   9.774  1.1821 -1.2758 -2.1903
   83SAPS   H8Y 7848   1.134   1.615   9.845  2.0963 -0.0440 -2.4296
   83SAPS   C39 7849   1.173   1.801   9.730 -0.8883 -0.4830  0.7894
   83SAPS   H9X 7850   1.235   1.746   9.656 -5.3200 -1.4729 -2.6667
   83SAPS   H9Y 7851   1.247   1.847   9.799  0.2625 -1.9536  0.5898
   83SAPS  C310 7852   1.093   1.889   9.639 -0.2855 -0.3412  0.7242
   83SAPS  H10X 7853   1.041   1.966   9.700 -0.2895  0.7898 -0.6508
   83SAPS  H10Y 7854   1.023   1.822   9.586 -1.9154  1.2799  0.7160
   83SAPS  C311 7855   1.179   1.978   9.551 -0.6234 -0.4840  0.1943
   83SAPS  H11X 7856   1.240   1.915   9.483  0.3816  0.3923  0.2486
   83SAPS  H11Y 7857   1.245   2.031   9.624 -0.4629 -0.8408  0.3078
   83SAPS  C312 7858   1.096   2.096   9.484 -0.0704  0.2726 -0.3468
   83SAPS  H12X 7859   1.166   2.152   9.419 -0.9235  0.6347 -0.9638
   83SAPS  H12Y 7860   1.071   2.164   9.569  1.9524 -0.4046  0.8642
   83SAPS  C313 7861   0.988   2.042   9.390  0.1020  0.3664 -0.5073
   83SAPS  H13X 7862   0.949   2.129   9.332 -1.6741 -0.2943 -0.3571
   83SAPS  H13Y 7863   0.905   1.985   9.436 -0.4390  1.6047  0.1021
   83SAPS  C314 7864   1.051   1.946   9.286  0.2419 -0.5550  1.1920
   83SAPS  H14X 7865   1.066   1.846   9.332  1.0839 -1.0679 -0.1289
   83SAPS  H14Y 7866   1.154   1.983   9.264 -0.3850 -0.3567 -1.8892
   83SAPS  C315 7867   0.963   1.915   9.168 -0.2523 -0.3122  0.9968
   83SAPS  H15X 7868   0.919   2.013   9.139 -0.6554 -0.6133  0.5725
   83SAPS  H15Y 7869   0.885   1.849   9.212  0.5391 -1.4409  0.7426
   83SAPS  C316 7870   1.035   1.846   9.058  1.2591 -0.4034 -0.2599
   83SAPS  H16X 7871   1.059   1.745   9.100 -1.3727 -0.5527  1.0651
   83SAPS  H16Y 7872   1.130   1.899   9.035  1.5622 -0.5416  0.5983
   83SAPS  C317 7873   0.943   1.825   8.943 -0.3111 -0.7634  0.0311
   83SAPS  H17X 7874   0.921   1.919   8.888  1.7089  0.6575  1.5098
   83SAPS  H17Y 7875   0.846   1.778   8.971 -1.1041  0.2776 -0.8670
   83SAPS  C318 7876   1.016   1.747   8.835 -0.4323  0.6929  0.0601
   83SAPS  H18X 7877   1.118   1.787   8.817 -0.7518  0.0869 -4.4120
   83SAPS  H18Y 7878   0.956   1.755   8.742 -1.7322  0.6428  0.8685
   83SAPS  H18Z 7879   1.019   1.641   8.868  0.4132 -0.0360 -2.1484
   84SAPS     N 7880   0.592   3.327  11.329  0.4346  0.2178 -0.2493
   84SAPS   HN1 7881   0.620   3.317  11.230 -0.4339  0.1777 -0.4965
   84SAPS   HN2 7882   0.594   3.426  11.362  0.1879 -1.2407  5.0684
   84SAPS   HN3 7883   0.665   3.276  11.383  0.1585 -1.3071 -1.2667
   84SAPS   C12 7884   0.450   3.291  11.364  0.5032 -0.5070 -0.2023
   84SAPS  H12A 7885   0.427   3.192  11.325 -2.3886 -0.3655  0.8706
   84SAPS   C13 7886   0.409   3.281  11.509 -0.2717  0.8576  0.0509
   84SAPS  O13A 7887   0.507   3.302  11.586  0.1181  0.1160  0.1854
   84SAPS  O13B 7888   0.295   3.232  11.549  0.3047 -0.6845  0.5048
   84SAPS   C11 7889   0.347   3.389  11.289 -0.1473 -0.4011  0.6417
   84SAPS  H11A 7890   0.356   3.495  11.321  0.1787 -0.4532  0.7248
   84SAPS  H11B 7891   0.241   3.359  11.300 -0.4622  0.0944 -0.7967
   84SAPS     P 7892   0.318   3.294  11.052 -0.1830  0.2135 -0.3561
   84SAPS   O13 7893   0.405   3.175  11.066  0.6617 -0.2505  0.8829
   84SAPS   O14 7894   0.169   3.280  11.076 -0.1708  0.0894  0.0537
   84SAPS   O12 7895   0.368   3.409  11.148  0.0740 -0.1219  0.2702
   84SAPS   O11 7896   0.347   3.358  10.907 -0.4532  0.0272  0.1051
   84SAPS    C1 7897   0.484   3.373  10.866 -0.2814  0.5483  0.4736
   84SAPS    HA 7898   0.545   3.433  10.936  2.9633  2.1026 -3.2799
   84SAPS    HB 7899   0.533   3.273  10.860  2.4656  1.8188  0.3385
   84SAPS    C2 7900   0.484   3.448  10.729  0.4277 -0.2004  0.1222
   84SAPS    HS 7901   0.588   3.472  10.700  1.8826 -3.0360  2.3836
   84SAPS   O21 7902   0.389   3.560  10.735 -0.0849 -0.2638  0.1372
   84SAPS   C21 7903   0.448   3.672  10.769  0.7892 -0.1714 -0.1137
   84SAPS   O22 7904   0.564   3.683  10.803  0.1640  0.6476  0.4347
   84SAPS   C22 7905   0.349   3.784  10.754 -0.1613  0.0292 -0.1848
   84SAPS   H2R 7906   0.264   3.739  10.809 -0.2070 -1.7258 -1.5812
   84SAPS   H2S 7907   0.383   3.866  10.820 -1.1610  0.4909 -0.2357
   84SAPS    C3 7908   0.426   3.349  10.624 -0.5594  0.3340  0.5121
   84SAPS    HX 7909   0.328   3.319  10.667 -1.6169 -1.5373 -2.7906
   84SAPS    HY 7910   0.480   3.252  10.616 -2.1573 -0.6438  1.1068
   84SAPS   O31 7911   0.416   3.414  10.497  0.3062 -0.3443  0.4993
   84SAPS   C31 7912   0.303   3.489  10.470 -0.4360  0.1669 -0.4579
   84SAPS   O32 7913   0.197   3.481  10.530 -0.2753 -0.2077  0.2530
   84SAPS   C32 7914   0.324   3.562  10.339  0.3904  0.0273 -0.0568
   84SAPS   H2X 7915   0.375   3.482  10.281 -1.2300 -1.3952  0.3884
   84SAPS   H2Y 7916   0.392   3.647  10.362 -1.0816  1.0394  0.7253
   84SAPS   C23 7917   0.317   3.846  10.612 -1.9114 -0.8775  0.7066
   84SAPS   H3R 7918   0.225   3.902  10.641 -1.2153  1.0611 -0.6451
   84SAPS   H3S 7919   0.290   3.767  10.538  0.4523 -0.3693 -0.7976
   84SAPS   C24 7920   0.431   3.938  10.556  0.0095  0.2095 -0.1971
   84SAPS   H4R 7921   0.527   3.886  10.540  0.5807  0.6707  1.5605
   84SAPS   H4S 7922   0.447   4.020  10.629  0.4907  2.3618 -2.5787
   84SAPS   C25 7923   0.381   4.010  10.430 -0.0912  0.1587 -0.2963
   84SAPS   H5R 7924   0.279   4.048  10.447  0.5621  1.4574  0.9801
   84SAPS   C26 7925   0.442   4.030  10.306 -0.5589  0.3731  0.4138
   84SAPS   H6R 7926   0.376   4.081  10.235 -0.7921  0.6845  0.8465
   84SAPS   C27 7927   0.578   3.975  10.264 -0.9290  0.0233 -0.6056
   84SAPS   H7R 7928   0.629   3.930  10.352 -0.3680  1.7725  0.0077
   84SAPS   H7S 7929   0.644   4.056  10.227  0.8666 -0.7390  0.7862
   84SAPS   C28 7930   0.557   3.868  10.156  0.7760  0.2760  0.0248
   84SAPS   H8R 7931   0.495   3.782  10.187  0.7227  0.4273  0.3374
   84SAPS   C29 7932   0.594   3.875  10.028 -0.4601 -0.5737  0.5548
   84SAPS   H9R 7933   0.561   3.796   9.960 -0.6275  0.3155 -0.4205
   84SAPS  C210 7934   0.669   3.993   9.968  0.0316  0.6836 -0.5430
   84SAPS  H10R 7935   0.747   3.948   9.904 -1.1557  0.4100 -1.8348
   84SAPS  H10S 7936   0.726   4.048  10.046 -2.3569 -0.9678  2.6000
   84SAPS  C211 7937   0.576   4.079   9.886 -0.1307 -0.5094  0.1668
   84SAPS  H11R 7938   0.497   4.131   9.943  0.1351  0.7577 -0.5816
   84SAPS  C212 7939   0.570   4.101   9.753 -0.1982 -0.5690 -0.1906
   84SAPS  H12R 7940   0.505   4.180   9.715  0.5713 -0.5610 -1.5667
   84SAPS  C213 7941   0.656   4.035   9.649  0.1804 -0.5763  0.5657
   84SAPS  H13R 7942   0.589   3.975   9.583  1.0262 -0.9170  0.0056
   84SAPS  H13S 7943   0.727   3.962   9.694 -0.5635 -1.6242  0.0958
   84SAPS  C214 7944   0.723   4.134   9.558  1.2758 -0.3838 -0.0538
   84SAPS  H14R 7945   0.713   4.238   9.593  0.1027  0.1843 -1.9136
   84SAPS  C215 7946   0.793   4.101   9.449  0.3243 -0.1933  0.4551
   84SAPS  H15R 7947   0.808   4.184   9.379  1.5504 -0.2133  0.6688
   84SAPS  C216 7948   0.803   3.971   9.387 -0.3943  0.8413  0.2385
   84SAPS  H16R 7949   0.723   3.904   9.426 -0.5931  1.3412  0.7067
   84SAPS  H16S 7950   0.901   3.931   9.420 -0.8208 -1.4701 -1.0672
   84SAPS  C217 7951   0.820   3.975   9.230  0.2337  1.0544  0.0164
   84SAPS  H17R 7952   0.919   4.025   9.225  1.6589 -1.7089 -1.5989
   84SAPS  H17S 7953   0.737   4.038   9.191 -1.9753 -0.9512  1.1976
   84SAPS  C218 7954   0.823   3.833   9.167 -0.1577  0.2822  0.4143
   84SAPS  H18R 7955   0.747   3.778   9.227  0.4970 -0.5483  0.5082
   84SAPS  H18S 7956   0.928   3.799   9.170 -0.0292  0.6191 -0.1635
   84SAPS  C219 7957   0.779   3.818   9.024  0.4122 -0.1552  0.2798
   84SAPS  H19R 7958   0.851   3.877   8.963  0.0216  1.8100  1.6087
   84SAPS  H19S 7959   0.677   3.861   9.014  0.4052 -0.0362  0.8511
   84SAPS  C220 7960   0.771   3.670   8.976  0.5323  0.3081  0.4747
   84SAPS  H20R 7961   0.676   3.627   9.015 -0.5117 -0.5255 -2.6499
   84SAPS  H20S 7962   0.851   3.604   9.014  0.8990  1.7283  2.3402
   84SAPS  H20T 7963   0.761   3.670   8.865 -1.4443  0.2511  0.6164
   84SAPS   C33 7964   0.187   3.603  10.274 -0.2460 -0.5025  1.0089
   84SAPS   H3X 7965   0.133   3.655  10.356 -0.3304  0.2091  0.5048
   84SAPS   H3Y 7966   0.123   3.515  10.248 -2.6506  1.1833  0.9197
   84SAPS   C34 7967   0.188   3.680  10.142  0.8072  0.3190  0.8308
   84SAPS   H4X 7968   0.240   3.775  10.166 -0.6157  0.9979  1.3343
   84SAPS   H4Y 7969   0.083   3.697  10.110 -0.3708 -2.6724  2.6963
   84SAPS   C35 7970   0.255   3.617  10.023 -0.1599  0.2333  0.0338
   84SAPS   H5X 7971   0.196   3.528   9.991  0.2048 -0.2208  0.5994
   84SAPS   H5Y 7972   0.349   3.580  10.069 -1.0895  0.9715  2.7680
   84SAPS   C36 7973   0.269   3.707   9.904 -0.5062 -0.3945  0.0390
   84SAPS   H6X 7974   0.336   3.793   9.924 -0.7890 -0.5488  1.8564
   84SAPS   H6Y 7975   0.170   3.739   9.865 -1.0084 -0.6015  1.0880
   84SAPS   C37 7976   0.352   3.626   9.796  0.4876  0.4567 -0.9745
   84SAPS   H7X 7977   0.299   3.528   9.789  1.1176  0.1102 -0.9364
   84SAPS   H7Y 7978   0.452   3.605   9.839  0.5829 -0.7188 -1.7101
   84SAPS   C38 7979   0.361   3.693   9.656 -0.2672 -0.3780 -0.0630
   84SAPS   H8X 7980   0.426   3.781   9.671 -1.6649  0.3359  2.4020
   84SAPS   H8Y 7981   0.264   3.739   9.627  0.5921  2.0301  0.6031
   84SAPS   C39 7982   0.421   3.595   9.555  0.4435  0.5360 -0.3156
   84SAPS   H9X 7983   0.337   3.529   9.527  1.2318 -1.4249  1.6258
   84SAPS   H9Y 7984   0.495   3.532   9.609  1.7652  0.0453 -2.5600
   84SAPS  C310 7985   0.482   3.662   9.428  0.4157  0.4428  0.0869
   84SAPS  H10X 7986   0.524   3.759   9.461  0.6874  0.6349 -0.7806
   84SAPS  H10Y 7987   0.400   3.687   9.356  2.7932 -0.7311 -3.2877
   84SAPS  C311 7988   0.573   3.568   9.361 -0.1637  0.7398  0.5909
   84SAPS  H11X 7989   0.657   3.541   9.429  0.3403  1.2199  0.1728
   84SAPS  H11Y 7990   0.618   3.621   9.274  1.3497  1.3763  1.7205
   84SAPS  C312 7991   0.516   3.439   9.299 -0.0657  0.0184  0.2989
   84SAPS  H12X 7992   0.440   3.468   9.223 -0.2327  0.6088  0.6841
   84SAPS  H12Y 7993   0.471   3.381   9.382 -2.3904  0.7965 -0.3473
   84SAPS  C313 7994   0.624   3.340   9.241  0.2569 -1.2078  0.0956
   84SAPS  H13X 7995   0.684   3.295   9.323  1.8988  1.2980  0.4046
   84SAPS  H13Y 7996   0.689   3.396   9.170  0.5311 -0.3910  0.9681
   84SAPS  C314 7997   0.545   3.238   9.164 -0.2256 -0.0832  0.3117
   84SAPS  H14X 7998   0.468   3.191   9.229  0.0169  1.1276  1.5272
   84SAPS  H14Y 7999   0.617   3.160   9.133 -1.4285 -0.4861 -1.6865
   84SAPS  C315 8000   0.480   3.284   9.029  0.1811 -0.0471  0.4227
   84SAPS  H15X 8001   0.545   3.358   8.978 -0.1271 -0.2739 -0.3193
   84SAPS  H15Y 8002   0.385   3.338   9.051  0.8245  1.4885 -0.3780
   84SAPS  C316 8003   0.449   3.162   8.936  0.0961  0.4770 -0.0072
   84SAPS  H16X 8004   0.545   3.126   8.893 -0.3012 -0.7237  0.0796
   84SAPS  H16Y 8005   0.390   3.203   8.851 -1.6184 -0.3265  0.7627
   84SAPS  C317 8006   0.378   3.046   9.006  0.5752 -0.5844  0.4437
   84SAPS  H17X 8007   0.319   3.095   9.086 -0.4675 -0.5406 -0.3256
   84SAPS  H17Y 8008   0.454   2.978   9.051  0.8995  0.2542  1.1993
   84SAPS  C318 8009   0.285   2.976   8.909 -0.0931  0.3869  0.5288
   84SAPS  H18X 8010   0.354   2.934   8.833  2.3469  2.1292  1.6701
   84SAPS  H18Y 8011   0.214   3.051   8.869 -2.0162 -1.6002 -0.0304
   84SAPS  H18Z 8012   0.235   2.891   8.961 -3.1215  0.2299 -2.2890
   85SAPS     N 8013   2.785   6.157  10.877  0.0305  0.1077 -0.0758
   85SAPS   HN1 8014   2.723   6.218  10.820 -0.6579 -2.7158 -2.6682
   85SAPS   HN2 8015   2.826   6.084  10.815  0.6045 -0.5423  1.0421
   85SAPS   HN3 8016   2.726   6.117  10.953 -1.9673  0.7884 -1.1670
   85SAPS   C12 8017   2.898   6.235  10.946 -0.2474 -0.8880  0.1352
   85SAPS  H12A 8018   2.853   6.306  11.013  1.3940  1.9553 -1.5944
   85SAPS   C13 8019   2.990   6.146  11.030  0.3821 -0.1954 -0.5697
   85SAPS  O13A 8020   2.938   6.031  11.062 -0.2294 -0.6650  0.2754
   85SAPS  O13B 8021   3.072   6.205  11.109 -0.3228  0.2255  0.1859
   85SAPS   C11 8022   2.970   6.310  10.828 -0.4531 -0.8450 -0.8280
   85SAPS  H11A 8023   2.991   6.236  10.748  1.8738 -0.0895 -1.0075
   85SAPS  H11B 8024   3.062   6.354  10.873 -0.5501  0.6299 -1.9510
   85SAPS     P 8025   2.848   6.557  10.818  0.4518 -0.1868  0.4189
   85SAPS   O13 8026   2.719   6.595  10.765 -0.1381 -0.4268  0.4446
   85SAPS   O14 8027   2.862   6.568  10.964  1.1050  0.0890 -0.9583
   85SAPS   O12 8028   2.885   6.411  10.764 -1.0140 -0.1539 -0.3196
   85SAPS   O11 8029   2.951   6.652  10.757 -0.2494 -0.8166  0.6020
   85SAPS    C1 8030   3.049   6.597  10.660  0.8064  0.0637  0.5014
   85SAPS    HA 8031   3.102   6.505  10.691  1.0010 -1.8825 -4.6741
   85SAPS    HB 8032   2.997   6.569  10.566 -2.4656 -0.9146  2.4496
   85SAPS    C2 8033   3.160   6.702  10.630 -0.4153 -0.0868  0.0334
   85SAPS    HS 8034   3.177   6.763  10.722 -0.9909  0.3371 -0.1351
   85SAPS   O21 8035   3.115   6.788  10.525  0.0567 -0.3497  0.5740
   85SAPS   C21 8036   3.198   6.889  10.499 -0.4813 -0.5334  0.7340
   85SAPS   O22 8037   3.305   6.922  10.546 -0.4333  1.0913 -0.2198
   85SAPS   C22 8038   3.144   6.976  10.382 -0.7974  0.6998 -0.4586
   85SAPS   H2R 8039   3.055   6.915  10.356 -0.5315 -0.9437  2.1779
   85SAPS   H2S 8040   3.113   7.068  10.436 -0.9866 -1.5569  3.6393
   85SAPS    C3 8041   3.290   6.631  10.585  0.3026  0.2406  0.5800
   85SAPS    HX 8042   3.326   6.605  10.687 -1.0866  0.0577  1.0469
   85SAPS    HY 8043   3.362   6.707  10.548 -1.0666  2.4997  2.2871
   85SAPS   O31 8044   3.267   6.518  10.493  0.7656  0.1626  0.2283
   85SAPS   C31 8045   3.260   6.540  10.359 -0.2668  0.0199 -0.1342
   85SAPS   O32 8046   3.287   6.644  10.301  0.2060 -0.4617  0.2461
   85SAPS   C32 8047   3.196   6.412  10.290  0.4096 -0.7272 -0.5664
   85SAPS   H2X 8048   3.087   6.413  10.313  0.3310  2.2960 -0.7021
   85SAPS   H2Y 8049   3.253   6.329  10.337  0.3577 -1.6976 -2.1665
   85SAPS   C23 8050   3.238   7.013  10.273 -0.7963 -0.2729  0.9326
   85SAPS   H3R 8051   3.256   6.920  10.214  0.5026  0.7073 -0.2599
   85SAPS   H3S 8052   3.336   7.051  10.309 -0.2233 -1.6449  0.9097
   85SAPS   C24 8053   3.171   7.119  10.177 -0.4435  0.3133  0.1083
   85SAPS   H4R 8054   3.158   7.206  10.244 -0.0813 -1.7872  3.0742
   85SAPS   H4S 8055   3.069   7.090  10.144  0.3366 -2.7003 -0.0008
   85SAPS   C25 8056   3.261   7.145  10.058  0.1011  0.1392 -0.2122
   85SAPS   H5R 8057   3.346   7.208  10.090 -0.3807  0.3402  0.7190
   85SAPS   C26 8058   3.247   7.115   9.925 -0.1299  0.8131 -0.3753
   85SAPS   H6R 8059   3.323   7.145   9.851  1.9198 -1.9856  0.4218
   85SAPS   C27 8060   3.127   7.050   9.849 -0.1228  0.1106  0.3893
   85SAPS   H7R 8061   3.073   7.122   9.784  0.2923  2.3019  2.3371
   85SAPS   H7S 8062   3.054   7.018   9.926  0.6841 -1.1321  0.6764
   85SAPS   C28 8063   3.163   6.927   9.771  0.8461  0.2702 -0.1492
   85SAPS   H8R 8064   3.187   6.844   9.839  0.8739  1.1644  0.9632
   85SAPS   C29 8065   3.178   6.909   9.641 -0.6692 -0.5177  0.2200
   85SAPS   H9R 8066   3.205   6.809   9.604  1.0851  0.2209 -0.6051
   85SAPS  C210 8067   3.171   7.020   9.541 -0.5016  0.3544  0.1557
   85SAPS  H10R 8068   3.252   6.999   9.468  1.9135 -0.4948  2.8804
   85SAPS  H10S 8069   3.193   7.120   9.584  1.7852  0.3076 -0.7670
   85SAPS  C211 8070   3.031   7.021   9.471 -1.1210 -0.2292  0.7563
   85SAPS  H11R 8071   2.965   6.934   9.477 -0.5685 -0.8535 -1.3686
   85SAPS  C212 8072   2.987   7.126   9.396 -0.0618  0.1509  0.0652
   85SAPS  H12R 8073   2.906   7.106   9.326 -0.2136  1.6728 -0.2190
   85SAPS  C213 8074   3.057   7.255   9.376 -0.3866 -0.2443 -0.4072
   85SAPS  H13R 8075   3.165   7.257   9.402 -0.0532  2.4432 -1.7523
   85SAPS  H13S 8076   3.005   7.326   9.444 -0.9952 -1.4551  0.4497
   85SAPS  C214 8077   3.041   7.296   9.231  0.8293 -0.4261  1.1236
   85SAPS  H14R 8078   3.042   7.218   9.153 -2.4659  0.6138 -0.1101
   85SAPS  C215 8079   3.021   7.420   9.186 -0.6193  0.6609 -0.5544
   85SAPS  H15R 8080   3.028   7.435   9.077 -0.0333 -1.7071 -0.9059
   85SAPS  C216 8081   3.012   7.544   9.266  0.7180 -0.1317 -0.0193
   85SAPS  H16R 8082   2.949   7.537   9.357 -0.4901  0.8048 -0.7551
   85SAPS  H16S 8083   2.964   7.626   9.208 -0.7567 -0.4448  0.7203
   85SAPS  C217 8084   3.147   7.594   9.299 -0.2396  0.1763  0.5153
   85SAPS  H17R 8085   3.212   7.519   9.348  1.1301  1.6725  1.0906
   85SAPS  H17S 8086   3.152   7.668   9.381 -0.0125  1.7204 -0.8327
   85SAPS  C218 8087   3.223   7.650   9.173 -0.2259  0.0250 -0.3180
   85SAPS  H18R 8088   3.267   7.747   9.204 -0.5644  1.1302 -3.0164
   85SAPS  H18S 8089   3.154   7.674   9.089 -0.2397  1.7389  0.1509
   85SAPS  C219 8090   3.346   7.564   9.142 -0.0683  0.1270  0.6100
   85SAPS  H19R 8091   3.310   7.460   9.123  1.1881 -0.0006 -1.3130
   85SAPS  H19S 8092   3.416   7.564   9.228  0.3634 -0.2871  0.2644
   85SAPS  C220 8093   3.434   7.618   9.028 -0.2917  0.3196 -0.3378
   85SAPS  H20R 8094   3.447   7.728   9.017  0.5606  0.4447  1.5883
   85SAPS  H20S 8095   3.415   7.577   8.927  0.3342  0.1537 -0.3926
   85SAPS  H20T 8096   3.537   7.588   9.056 -1.0293 -1.3148  0.7681
   85SAPS   C33 8097   3.209   6.413  10.139 -0.6343  0.3063  0.5634
   85SAPS   H3X 8098   3.180   6.513  10.101  0.4020 -0.0666 -1.3530
   85SAPS   H3Y 8099   3.143   6.343  10.083  1.1049  1.1475 -2.8076
   85SAPS   C34 8100   3.349   6.371  10.098 -0.3813 -0.6751 -0.1785
   85SAPS   H4X 8101   3.380   6.279  10.154  1.0702  0.4065  0.8805
   85SAPS   H4Y 8102   3.425   6.448  10.124 -2.5465  1.4497  0.1154
   85SAPS   C35 8103   3.359   6.341   9.946 -0.3818 -0.0069 -0.2388
   85SAPS   H5X 8104   3.287   6.263   9.915 -1.3608 -0.9530  3.8342
   85SAPS   H5Y 8105   3.465   6.310   9.934  0.0744  0.9116  1.1290
   85SAPS   C36 8106   3.312   6.466   9.869 -0.0662  0.1982 -1.1603
   85SAPS   H6X 8107   3.359   6.558   9.910 -3.3027  0.2384  3.1033
   85SAPS   H6Y 8108   3.205   6.486   9.891  0.0818 -1.3177  1.2069
   85SAPS   C37 8109   3.333   6.442   9.717  0.1869  0.0791 -0.1550
   85SAPS   H7X 8110   3.260   6.364   9.689 -0.6555  0.6967  0.2684
   85SAPS   H7Y 8111   3.437   6.404   9.704  0.5847  1.3376 -0.8027
   85SAPS   C38 8112   3.318   6.570   9.630  0.4339 -0.3522  0.6775
   85SAPS   H8X 8113   3.387   6.646   9.671 -0.0746 -0.5330  1.9060
   85SAPS   H8Y 8114   3.213   6.604   9.635 -0.0612 -1.7108  0.0869
   85SAPS   C39 8115   3.343   6.525   9.485  0.2473  0.1067  0.2240
   85SAPS   H9X 8116   3.280   6.438   9.458 -0.2034  0.1892  0.9731
   85SAPS   H9Y 8117   3.445   6.483   9.476 -0.6474 -2.8337  2.3105
   85SAPS  C310 8118   3.337   6.641   9.386  0.7534  0.0424  0.6641
   85SAPS  H10X 8119   3.398   6.618   9.296  0.2784 -0.3575  0.4356
   85SAPS  H10Y 8120   3.379   6.738   9.418  1.0804  0.2966 -0.4908
   85SAPS  C311 8121   3.191   6.673   9.343  0.0104 -0.0937 -0.4443
   85SAPS  H11X 8122   3.135   6.710   9.432  0.3393 -0.2663 -0.1641
   85SAPS  H11Y 8123   3.152   6.579   9.298 -0.3045  0.6095 -1.6614
   85SAPS  C312 8124   3.175   6.774   9.228 -0.4406 -0.4893  0.4573
   85SAPS  H12X 8125   3.215   6.872   9.263  1.9685 -1.1340 -0.2358
   85SAPS  H12Y 8126   3.069   6.792   9.203 -0.3742  1.5845  1.4278
   85SAPS  C313 8127   3.240   6.729   9.092  0.0500 -0.1770  0.0485
   85SAPS  H13X 8128   3.349   6.719   9.108  0.0590  1.9827  1.7187
   85SAPS  H13Y 8129   3.225   6.821   9.032 -2.9114 -0.7059 -0.2081
   85SAPS  C314 8130   3.177   6.599   9.025 -0.2846 -0.5761 -0.0543
   85SAPS  H14X 8131   3.083   6.649   8.994  0.9751  0.7942 -1.9340
   85SAPS  H14Y 8132   3.164   6.517   9.099 -0.1147 -1.3218 -0.8367
   85SAPS  C315 8133   3.250   6.570   8.897  0.7841  0.2909 -0.3040
   85SAPS  H15X 8134   3.327   6.495   8.927  0.9011  0.4254 -0.2644
   85SAPS  H15Y 8135   3.294   6.658   8.845  0.1858 -0.1137 -1.5200
   85SAPS  C316 8136   3.172   6.479   8.803 -0.7279  0.0484  0.4333
   85SAPS  H16X 8137   3.145   6.383   8.853 -0.1849 -0.1596  0.3349
   85SAPS  H16Y 8138   3.243   6.451   8.722  2.6268 -2.3065  3.8448
   85SAPS  C317 8139   3.051   6.541   8.733  0.4447  0.2811  0.0374
   85SAPS  H17X 8140   3.089   6.630   8.679  0.9451  0.2670  0.3614
   85SAPS  H17Y 8141   2.982   6.573   8.815 -0.1480  0.2814 -0.4508
   85SAPS  C318 8142   2.984   6.435   8.648  0.0213  0.1280 -0.6958
   85SAPS  H18X 8143   2.900   6.492   8.601 -1.3485  2.1945  3.7582
   85SAPS  H18Y 8144   2.947   6.349   8.706  0.3186  0.5444  0.1195
   85SAPS  H18Z 8145   3.042   6.387   8.566  0.6247 -0.2086 -0.0740
   86SAPS     N 8146   6.131   6.143  10.898  0.3197 -0.7002 -0.8399
   86SAPS   HN1 8147   6.171   6.098  10.813  1.6713  0.8955 -1.1266
   86SAPS   HN2 8148   6.183   6.099  10.976  1.4400 -0.8508 -1.6396
   86SAPS   HN3 8149   6.031   6.115  10.904  1.0019 -3.6456 -1.5854
   86SAPS   C12 8150   6.157   6.291  10.910 -0.5514 -0.5758  0.4157
   86SAPS  H12A 8151   6.173   6.306  11.016 -0.3688  2.1160  0.0867
   86SAPS   C13 8152   6.294   6.325  10.842 -0.1142 -0.5675 -0.6125
   86SAPS  O13A 8153   6.360   6.236  10.784 -0.2354  0.7882 -0.3732
   86SAPS  O13B 8154   6.328   6.445  10.841 -0.7188 -0.0573 -0.7010
   86SAPS   C11 8155   6.037   6.369  10.849 -0.1777 -0.3274  0.2056
   86SAPS  H11A 8156   6.027   6.324  10.748  4.3067 -0.2755 -0.4570
   86SAPS  H11B 8157   6.067   6.475  10.843  1.3570 -0.8163 -2.0239
   86SAPS     P 8158   5.814   6.456  10.956 -0.0098  0.0056 -0.0159
   86SAPS   O13 8159   5.679   6.393  10.990 -0.3080 -0.1738  0.0112
   86SAPS   O14 8160   5.869   6.555  11.052 -0.9620 -0.2397  0.2097
   86SAPS   O12 8161   5.920   6.345  10.927  0.3438  0.0190  0.5815
   86SAPS   O11 8162   5.794   6.534  10.822 -0.0780  0.0623 -0.1618
   86SAPS    C1 8163   5.766   6.453  10.704  0.3605  0.6968 -0.3669
   86SAPS    HA 8164   5.810   6.351  10.700 -1.3333 -0.2303  2.1971
   86SAPS    HB 8165   5.656   6.439  10.713  0.6347 -2.7437 -0.8804
   86SAPS    C2 8166   5.800   6.526  10.572  0.6399  0.6132  0.2470
   86SAPS    HS 8167   5.744   6.622  10.568  1.5515  1.1729  0.5060
   86SAPS   O21 8168   5.771   6.430  10.470  0.1468 -0.0714  0.4134
   86SAPS   C21 8169   5.645   6.432  10.429  0.0612  0.0682  0.5595
   86SAPS   O22 8170   5.555   6.500  10.477 -0.6404 -0.2029 -0.1217
   86SAPS   C22 8171   5.625   6.330  10.321  0.3699 -0.2775 -0.0625
   86SAPS   H2R 8172   5.719   6.294  10.274 -0.1482  0.9696 -2.2303
   86SAPS   H2S 8173   5.573   6.239  10.358  0.5847 -0.1375  0.5832
   86SAPS    C3 8174   5.949   6.560  10.556  0.5139  0.4214  0.1658
   86SAPS    HX 8175   5.955   6.606  10.658  0.3334  0.4986  0.1435
   86SAPS    HY 8176   5.965   6.646  10.488  0.9534  0.8571  0.8056
   86SAPS   O31 8177   6.027   6.445  10.533 -0.4622 -0.4200 -0.4086
   86SAPS   C31 8178   6.097   6.450  10.420 -0.2213 -0.1614 -0.9792
   86SAPS   O32 8179   6.115   6.545  10.349 -0.0437  0.3569 -0.0642
   86SAPS   C32 8180   6.158   6.316  10.406 -0.0758  0.6655  0.5738
   86SAPS   H2X 8181   6.090   6.239  10.449  1.3817 -0.9523  0.1312
   86SAPS   H2Y 8182   6.254   6.318  10.463  0.5501  0.8630 -0.4675
   86SAPS   C23 8183   5.546   6.393  10.199 -0.0513 -0.2722 -0.6199
   86SAPS   H3R 8184   5.447   6.432  10.231 -0.4347  0.0555 -2.1445
   86SAPS   H3S 8185   5.526   6.316  10.122  0.1799 -0.0868 -0.8675
   86SAPS   C24 8186   5.621   6.514  10.136  0.0716  0.1727 -0.3543
   86SAPS   H4R 8187   5.590   6.604  10.193  0.6059  0.0743  0.1019
   86SAPS   H4S 8188   5.582   6.532  10.033  0.9067  0.6397 -0.5913
   86SAPS   C25 8189   5.771   6.517  10.119  0.0258 -0.8436 -0.5279
   86SAPS   H5R 8190   5.827   6.509  10.214 -0.7001  2.1368  0.2432
   86SAPS   C26 8191   5.843   6.532  10.006 -0.6831 -0.1534 -0.4852
   86SAPS   H6R 8192   5.952   6.530  10.016 -0.4617 -2.4102 -2.2659
   86SAPS   C27 8193   5.798   6.557   9.866 -0.4763  0.1118  0.3101
   86SAPS   H7R 8194   5.855   6.631   9.806  1.5083 -1.8099 -0.3467
   86SAPS   H7S 8195   5.693   6.593   9.867 -0.5205 -0.0309  0.7593
   86SAPS   C28 8196   5.800   6.418   9.794  0.4255  0.8753 -0.2143
   86SAPS   H8R 8197   5.764   6.334   9.855  4.1375  0.8988  2.3699
   86SAPS   C29 8198   5.824   6.384   9.668 -0.2928  0.7764  0.3979
   86SAPS   H9R 8199   5.807   6.279   9.640  1.9610  0.0594  1.4677
   86SAPS  C210 8200   5.873   6.477   9.557 -0.0191 -0.2340 -0.2381
   86SAPS  H10R 8201   5.981   6.490   9.576  0.2308  0.0834 -1.7965
   86SAPS  H10S 8202   5.818   6.574   9.561  0.5019  0.0634 -0.2800
   86SAPS  C211 8203   5.846   6.430   9.414 -0.1997  0.1607 -0.4691
   86SAPS  H11R 8204   5.794   6.334   9.404 -0.3331  0.3196 -1.3843
   86SAPS  C212 8205   5.890   6.479   9.300 -0.0870 -0.0618  0.9716
   86SAPS  H12R 8206   5.841   6.437   9.211  0.2881 -1.6346  1.4839
   86SAPS  C213 8207   5.972   6.601   9.269 -0.1099  0.1309 -0.3625
   86SAPS  H13R 8208   6.055   6.575   9.199 -1.9936 -1.1178 -2.2394
   86SAPS  H13S 8209   6.018   6.648   9.359 -0.4049  1.6989 -0.9885
   86SAPS  C214 8210   5.884   6.705   9.204 -0.1793  0.3669  0.0868
   86SAPS  H14R 8211   5.781   6.715   9.240 -0.7564  1.7317 -1.8091
   86SAPS  C215 8212   5.913   6.764   9.086  0.3232  0.3059 -0.5126
   86SAPS  H15R 8213   5.831   6.824   9.044  0.8334  0.9159 -0.6504
   86SAPS  C216 8214   6.038   6.752   9.005 -0.9763 -0.2138  0.2325
   86SAPS  H16R 8215   6.130   6.764   9.066 -1.3883 -0.4546  0.9139
   86SAPS  H16S 8216   6.039   6.838   8.935  0.0607 -0.6072 -0.2655
   86SAPS  C217 8217   6.059   6.624   8.918 -0.9261 -0.4700 -0.2996
   86SAPS  H17R 8218   5.961   6.596   8.872  0.2665 -0.3667 -3.0975
   86SAPS  H17S 8219   6.092   6.546   8.989 -0.5143 -0.7829 -0.8261
   86SAPS  C218 8220   6.158   6.645   8.801  0.7511 -0.2232 -0.8656
   86SAPS  H18R 8221   6.198   6.554   8.751  0.1290  0.6235 -3.0086
   86SAPS  H18S 8222   6.250   6.697   8.836  1.1359 -2.0006  0.9655
   86SAPS  C219 8223   6.103   6.739   8.689  0.7736 -0.4091 -0.5037
   86SAPS  H19R 8224   6.180   6.787   8.624  1.7687 -3.6549 -1.9490
   86SAPS  H19S 8225   6.048   6.823   8.736  1.8359  0.3886 -0.6462
   86SAPS  C220 8226   6.000   6.668   8.598  0.1536 -0.5020  0.0674
   86SAPS  H20R 8227   5.911   6.640   8.658 -1.6462 -0.1183 -2.2504
   86SAPS  H20S 8228   6.047   6.575   8.558 -0.5301 -1.1623  0.7696
   86SAPS  H20T 8229   5.972   6.739   8.517  1.3062  0.9069  0.8574
   86SAPS   C33 8230   6.189   6.273  10.263 -0.5684 -0.4205  0.1314
   86SAPS   H3X 8231   6.219   6.165  10.265 -0.7896 -0.4841  0.0129
   86SAPS   H3Y 8232   6.270   6.335  10.219  1.6584 -1.6101  2.3156
   86SAPS   C34 8233   6.064   6.294  10.178 -0.4275  0.1336 -0.5915
   86SAPS   H4X 8234   6.033   6.401  10.178  1.1637  0.6227 -0.5730
   86SAPS   H4Y 8235   5.976   6.239  10.217  1.4711 -2.4979  0.2953
   86SAPS   C35 8236   6.071   6.262  10.030 -0.8200  0.0971  0.2912
   86SAPS   H5X 8237   5.965   6.263   9.998 -0.5009  0.7880 -0.8073
   86SAPS   H5Y 8238   6.115   6.160  10.029 -0.5028  0.2153 -1.4154
   86SAPS   C36 8239   6.157   6.358   9.949  0.2919  0.5750  0.4428
   86SAPS   H6X 8240   6.255   6.367  10.001  0.5419 -0.6987  0.2345
   86SAPS   H6Y 8241   6.124   6.464   9.947 -0.4501  0.4057  2.1338
   86SAPS   C37 8242   6.172   6.299   9.808  0.0218  0.1641 -0.3647
   86SAPS   H7X 8243   6.072   6.279   9.764 -0.3693  1.7485 -0.2515
   86SAPS   H7Y 8244   6.221   6.200   9.811 -0.0408  0.1214 -0.7372
   86SAPS   C38 8245   6.247   6.386   9.703  0.2480  0.3407  0.1735
   86SAPS   H8X 8246   6.353   6.390   9.734  1.2886 -2.2931 -2.5327
   86SAPS   H8Y 8247   6.201   6.487   9.691 -2.7176 -0.9807 -0.5896
   86SAPS   C39 8248   6.260   6.307   9.568 -0.3314  0.3625  0.5967
   86SAPS   H9X 8249   6.163   6.258   9.549 -0.1145  0.8098 -1.9806
   86SAPS   H9Y 8250   6.334   6.225   9.578  0.7232  1.1078 -0.7225
   86SAPS  C310 8251   6.299   6.405   9.460 -0.6459 -0.1307  0.5951
   86SAPS  H10X 8252   6.378   6.470   9.503 -1.7965  0.1175  2.4732
   86SAPS  H10Y 8253   6.211   6.470   9.443 -1.0276  0.3334  3.7072
   86SAPS  C311 8254   6.332   6.341   9.315 -0.9167 -0.5788 -0.2133
   86SAPS  H11X 8255   6.315   6.426   9.245 -0.2325 -0.7778 -0.6268
   86SAPS  H11Y 8256   6.271   6.250   9.296 -1.3857 -0.1781 -0.6560
   86SAPS  C312 8257   6.481   6.294   9.316 -0.4153  0.1285 -0.4620
   86SAPS  H12X 8258   6.484   6.203   9.379  0.3976 -0.4412 -1.3012
   86SAPS  H12Y 8259   6.532   6.371   9.377  0.2587  0.3974 -1.3413
   86SAPS  C313 8260   6.543   6.263   9.184 -0.2278 -0.0015  0.5620
   86SAPS  H13X 8261   6.484   6.180   9.138 -0.0914  0.1872  0.0372
   86SAPS  H13Y 8262   6.652   6.241   9.185 -0.2051 -0.0480 -1.0532
   86SAPS  C314 8263   6.538   6.370   9.077 -0.2245 -0.3397 -0.0094
   86SAPS  H14X 8264   6.603   6.453   9.111 -2.3557  1.0335  0.9570
   86SAPS  H14Y 8265   6.435   6.408   9.061 -0.3298 -0.5841  0.0737
   86SAPS  C315 8266   6.593   6.322   8.940  0.2832 -0.4846 -0.0009
   86SAPS  H15X 8267   6.530   6.236   8.908 -0.3819 -1.1572  2.8230
   86SAPS  H15Y 8268   6.697   6.288   8.959  0.0328 -1.5980 -0.5301
   86SAPS  C316 8269   6.575   6.436   8.839  0.4103 -0.4530 -0.1732
   86SAPS  H16X 8270   6.636   6.527   8.855  0.1999  0.3256 -3.2352
   86SAPS  H16Y 8271   6.466   6.457   8.827  0.7466  0.2694 -2.4216
   86SAPS  C317 8272   6.609   6.392   8.693  0.3830 -0.3353  0.3146
   86SAPS  H17X 8273   6.564   6.292   8.676  1.5260 -0.7233 -0.4957
   86SAPS  H17Y 8274   6.720   6.383   8.694  0.5349  1.2292 -0.1565
   86SAPS  C318 8275   6.576   6.496   8.584  0.2308  0.2228 -0.3882
   86SAPS  H18X 8276   6.630   6.591   8.601 -1.4721  1.4190 -1.4514
   86SAPS  H18Y 8277   6.470   6.528   8.585  0.5915  1.6330  2.4567
   86SAPS  H18Z 8278   6.578   6.455   8.481 -2.8331 -2.6354  0.5111
   87SAPS     N 8279   4.328   1.997  10.830  0.5553 -0.9686 -0.6198
   87SAPS   HN1 8280   4.252   2.067  10.815 -0.3832 -2.3433 -2.9668
   87SAPS   HN2 8281   4.404   2.048  10.780 -0.0174 -0.1257 -0.6474
   87SAPS   HN3 8282   4.302   1.908  10.782  0.9321 -1.3995 -0.0397
   87SAPS   C12 8283   4.361   1.966  10.975  0.6133  0.1774  0.6237
   87SAPS  H12A 8284   4.425   2.043  11.015  1.3657 -0.1391  0.0572
   87SAPS   C13 8285   4.240   1.936  11.071  0.2544 -0.7575 -0.1896
   87SAPS  O13A 8286   4.118   1.934  11.032 -0.5580 -0.0293 -0.0830
   87SAPS  O13B 8287   4.262   1.907  11.189  0.1761 -0.2480 -0.1751
   87SAPS   C11 8288   4.444   1.833  10.970  0.1598 -0.4390 -0.1659
   87SAPS  H11A 8289   4.395   1.741  10.933  0.6236 -0.4648 -0.7259
   87SAPS  H11B 8290   4.467   1.817  11.078  1.8479 -2.5946 -0.7907
   87SAPS     P 8291   4.692   1.762  10.910  0.1361 -0.2808 -0.3631
   87SAPS   O13 8292   4.803   1.830  10.839 -0.6153 -0.1210  0.3765
   87SAPS   O14 8293   4.710   1.712  11.054 -0.1087 -0.5660  0.2342
   87SAPS   O12 8294   4.567   1.849  10.896  0.9898 -0.6499 -0.2161
   87SAPS   O11 8295   4.664   1.632  10.821 -0.6588  0.4284  0.0817
   87SAPS    C1 8296   4.553   1.617  10.735 -0.9926  0.5671  0.1493
   87SAPS    HA 8297   4.462   1.590  10.793 -0.1342 -3.1731 -0.0335
   87SAPS    HB 8298   4.523   1.710  10.682 -1.6748  0.3826  0.2131
   87SAPS    C2 8299   4.593   1.516  10.620 -0.7925 -0.1956  0.6685
   87SAPS    HS 8300   4.615   1.418  10.666  1.7684 -0.2474 -0.5163
   87SAPS   O21 8301   4.709   1.570  10.545  0.3654  0.4907  0.3067
   87SAPS   C21 8302   4.785   1.473  10.482  0.5539  0.0536 -0.1516
   87SAPS   O22 8303   4.767   1.356  10.481  1.1110  0.4762 -0.0010
   87SAPS   C22 8304   4.919   1.534  10.435  0.5886  0.1803  0.3370
   87SAPS   H2R 8305   4.899   1.640  10.411  2.9665  0.3358 -1.3146
   87SAPS   H2S 8306   4.981   1.535  10.527 -1.9701 -0.3037  2.2095
   87SAPS    C3 8307   4.472   1.506  10.530 -0.2014 -1.0592  0.1238
   87SAPS    HX 8308   4.459   1.609  10.490 -0.0417 -0.1595  2.2538
   87SAPS    HY 8309   4.387   1.479  10.596  0.2988  1.3948  1.9322
   87SAPS   O31 8310   4.494   1.421  10.416 -0.1746 -0.1842  0.2480
   87SAPS   C31 8311   4.485   1.291  10.440 -0.5135 -0.4200 -0.2193
   87SAPS   O32 8312   4.453   1.243  10.549 -0.1489 -0.2561  0.5996
   87SAPS   C32 8313   4.511   1.209  10.314  0.7235 -0.1327  0.4836
   87SAPS   H2X 8314   4.614   1.170  10.321  0.7669  0.1208  1.2712
   87SAPS   H2Y 8315   4.504   1.288  10.236 -1.2197  0.5425  1.2746
   87SAPS   C23 8316   4.985   1.461  10.319  0.0059  0.1056  0.8343
   87SAPS   H3R 8317   4.990   1.354  10.350  1.3165 -0.1446 -0.1406
   87SAPS   H3S 8318   5.086   1.501  10.293 -0.2017 -0.3621 -0.8302
   87SAPS   C24 8319   4.904   1.467  10.185  0.1785 -0.0229  0.2901
   87SAPS   H4R 8320   4.811   1.406  10.188 -1.0218  1.7754  1.1686
   87SAPS   H4S 8321   4.975   1.429  10.109 -0.5982  2.9026 -2.0827
   87SAPS   C25 8322   4.878   1.607  10.148  0.1245 -0.1213  0.6255
   87SAPS   H5R 8323   4.945   1.681  10.194  0.8134  0.0119 -0.5626
   87SAPS   C26 8324   4.770   1.651  10.072  0.7485  0.6120 -0.0748
   87SAPS   H6R 8325   4.760   1.755  10.037 -0.1669  0.3259 -0.6867
   87SAPS   C27 8326   4.666   1.562  10.007  0.0834  0.4133  0.4242
   87SAPS   H7R 8327   4.563   1.590  10.037  0.0356 -0.4644  1.1140
   87SAPS   H7S 8328   4.691   1.459  10.040  3.3409 -0.5157 -3.9674
   87SAPS   C28 8329   4.664   1.564   9.855 -0.1562 -0.3592 -0.6233
   87SAPS   H8R 8330   4.615   1.647   9.804 -1.9661 -1.3522 -0.5885
   87SAPS   C29 8331   4.707   1.461   9.777 -0.0528  0.1175  0.6893
   87SAPS   H9R 8332   4.724   1.476   9.669 -0.9205 -0.8994  0.3903
   87SAPS  C210 8333   4.763   1.329   9.828  0.2723  0.0809  0.7511
   87SAPS  H10R 8334   4.680   1.256   9.846 -0.0879 -0.0107 -1.0774
   87SAPS  H10S 8335   4.811   1.345   9.927  0.3308 -0.3336  0.7944
   87SAPS  C211 8336   4.874   1.271   9.733 -0.0098 -0.2461  0.1632
   87SAPS  H11R 8337   4.970   1.279   9.787 -0.7107 -0.1099  1.4257
   87SAPS  C212 8338   4.866   1.222   9.606  0.0796  0.1391 -0.8146
   87SAPS  H12R 8339   4.951   1.158   9.578  0.0262 -0.2347 -0.1482
   87SAPS  C213 8340   4.739   1.209   9.529 -0.8212 -0.2759 -0.6504
   87SAPS  H13R 8341   4.666   1.293   9.534 -1.1159 -0.5418 -0.4190
   87SAPS  H13S 8342   4.681   1.122   9.567  0.8165 -0.8312  0.7112
   87SAPS  C214 8343   4.767   1.189   9.382 -0.4817  0.0541  0.0723
   87SAPS  H14R 8344   4.858   1.130   9.365  0.3536  1.3657 -0.1929
   87SAPS  C215 8345   4.703   1.240   9.273 -0.7418  0.6472 -0.0714
   87SAPS  H15R 8346   4.735   1.203   9.174 -0.9936 -0.6985  0.3263
   87SAPS  C216 8347   4.573   1.314   9.279  0.5231 -0.6206 -0.1605
   87SAPS  H16R 8348   4.553   1.341   9.385  1.5225 -0.2342 -0.0595
   87SAPS  H16S 8349   4.491   1.248   9.244 -1.4614  2.1877 -1.1108
   87SAPS  C217 8350   4.580   1.437   9.182 -0.2229 -0.6009  0.0949
   87SAPS  H17R 8351   4.473   1.469   9.174 -0.4222 -1.4108 -0.6905
   87SAPS  H17S 8352   4.613   1.414   9.078 -2.5683 -0.3765 -0.7654
   87SAPS  C218 8353   4.666   1.545   9.247  0.0838  0.7569 -0.3241
   87SAPS  H18R 8354   4.770   1.545   9.206  0.3253  1.1487  0.2865
   87SAPS  H18S 8355   4.671   1.533   9.357  2.6478 -1.9335 -0.5651
   87SAPS  C219 8356   4.604   1.688   9.225  0.2618 -0.7799 -0.0447
   87SAPS  H19R 8357   4.666   1.770   9.269 -0.3247  0.6547 -1.7926
   87SAPS  H19S 8358   4.501   1.686   9.267  0.3294 -0.4010  0.1475
   87SAPS  C220 8359   4.581   1.720   9.079 -0.3225 -0.0502  0.8113
   87SAPS  H20R 8360   4.516   1.644   9.032 -0.0040 -1.7971  3.0425
   87SAPS  H20S 8361   4.676   1.699   9.025 -0.9273  0.5592 -0.5334
   87SAPS  H20T 8362   4.544   1.823   9.058  0.4669 -0.0962 -0.9320
   87SAPS   C33 8363   4.408   1.102  10.285 -0.5298  0.7080 -0.0200
   87SAPS   H3X 8364   4.308   1.128  10.326 -0.0428  0.4862  1.3934
   87SAPS   H3Y 8365   4.445   1.007  10.331 -1.1316 -0.6813 -2.2532
   87SAPS   C34 8366   4.399   1.080  10.131 -0.4165 -0.2968  1.1678
   87SAPS   H4X 8367   4.364   1.174  10.082 -0.2807 -0.5528  0.5759
   87SAPS   H4Y 8368   4.328   0.996  10.117  0.5528 -0.6999 -2.4283
   87SAPS   C35 8369   4.527   1.036  10.069 -0.7245 -0.2984  0.1139
   87SAPS   H5X 8370   4.577   0.945  10.110  1.4809 -0.5490 -2.7874
   87SAPS   H5Y 8371   4.600   1.115  10.096 -0.2596 -0.6346 -0.1306
   87SAPS   C36 8372   4.517   0.996   9.919  0.6025 -0.0492  0.7061
   87SAPS   H6X 8373   4.462   1.072   9.859  0.8671 -1.2388 -1.1419
   87SAPS   H6Y 8374   4.446   0.912   9.907 -0.1385  0.9048 -3.2707
   87SAPS   C37 8375   4.648   0.934   9.858 -0.4099 -0.4975 -0.0686
   87SAPS   H7X 8376   4.685   0.856   9.927  0.0648 -0.2375 -0.0191
   87SAPS   H7Y 8377   4.726   1.014   9.866 -2.7125  1.6966  2.7761
   87SAPS   C38 8378   4.621   0.880   9.719  0.7513  0.4553 -0.0945
   87SAPS   H8X 8379   4.579   0.958   9.652 -0.8623  0.9069  1.3849
   87SAPS   H8Y 8380   4.555   0.791   9.733  0.6006  0.4624 -0.7211
   87SAPS   C39 8381   4.747   0.832   9.648 -0.1795  0.0815 -0.0627
   87SAPS   H9X 8382   4.792   0.754   9.713 -0.1078 -0.5286 -0.8305
   87SAPS   H9Y 8383   4.807   0.926   9.644 -1.6390  1.0247 -0.8759
   87SAPS  C310 8384   4.750   0.770   9.504  0.1999 -0.4148 -0.4733
   87SAPS  H10X 8385   4.695   0.841   9.438  0.8963 -1.0075 -1.7073
   87SAPS  H10Y 8386   4.690   0.677   9.501  0.8499 -0.8566  0.1495
   87SAPS  C311 8387   4.886   0.741   9.444 -0.0650 -0.4951  0.1032
   87SAPS  H11X 8388   4.929   0.644   9.477 -0.7833 -0.8224  0.0793
   87SAPS  H11Y 8389   4.954   0.828   9.462 -2.7147  1.8332 -0.4779
   87SAPS  C312 8390   4.873   0.716   9.282  0.2227 -0.3915  1.1628
   87SAPS  H12X 8391   4.801   0.636   9.255 -1.5141  0.8815  1.9019
   87SAPS  H12Y 8392   4.968   0.665   9.252  0.8611 -0.3027  2.9449
   87SAPS  C313 8393   4.853   0.840   9.201  0.2864  0.3890  0.2078
   87SAPS  H13X 8394   4.940   0.909   9.215  0.4156  1.3649 -3.9516
   87SAPS  H13Y 8395   4.762   0.889   9.240  0.8972  1.2766  0.5601
   87SAPS  C314 8396   4.845   0.814   9.051 -0.1010  0.3302 -0.0886
   87SAPS  H14X 8397   4.778   0.728   9.029  0.5595 -0.5232  1.0894
   87SAPS  H14Y 8398   4.943   0.782   9.011 -0.9474 -0.1297 -1.8857
   87SAPS  C315 8399   4.808   0.933   8.964  0.3338  0.2495  0.2490
   87SAPS  H15X 8400   4.709   0.970   9.000  0.6794  0.5824  0.8798
   87SAPS  H15Y 8401   4.799   0.901   8.858 -1.9271  1.5043 -0.0119
   87SAPS  C316 8402   4.897   1.055   8.966  1.0977  0.2261 -0.2749
   87SAPS  H16X 8403   4.998   1.040   8.923  1.4683 -0.3061  0.7435
   87SAPS  H16Y 8404   4.919   1.081   9.071  1.5395 -0.5421 -0.1686
   87SAPS  C317 8405   4.825   1.185   8.918  0.7312  0.0065 -0.0066
   87SAPS  H17X 8406   4.724   1.198   8.962 -0.6595 -0.4400 -2.8561
   87SAPS  H17Y 8407   4.813   1.168   8.809 -1.5198  0.6615  0.0888
   87SAPS  C318 8408   4.903   1.314   8.934  0.6153 -0.0072 -0.1795
   87SAPS  H18X 8409   4.993   1.306   8.869  0.8581 -0.5205  0.2142
   87SAPS  H18Y 8410   4.932   1.319   9.041 -0.2637 -2.0248  0.2084
   87SAPS  H18Z 8411   4.840   1.403   8.913  0.1888 -0.3593 -0.3906
   88SAPS     N 8412   1.860   5.631  10.922  0.6315  0.2292  0.5050
   88SAPS   HN1 8413   1.774   5.596  10.874  0.6876  0.2314  0.4034
   88SAPS   HN2 8414   1.827   5.700  10.992  0.7717 -2.1993  3.1631
   88SAPS   HN3 8415   1.925   5.672  10.851 -1.3973  1.7401 -0.6045
   88SAPS   C12 8416   1.927   5.520  11.010 -0.1034  0.3510  0.3127
   88SAPS  H12A 8417   2.015   5.566  11.050 -0.3078  1.2136 -0.1973
   88SAPS   C13 8418   1.851   5.444  11.121 -0.7536 -0.0526  0.3837
   88SAPS  O13A 8419   1.736   5.490  11.144  0.0399  0.6105  0.2810
   88SAPS  O13B 8420   1.910   5.371  11.205 -0.4432  0.3170 -0.0446
   88SAPS   C11 8421   1.975   5.406  10.909  0.1742 -0.0176 -0.0739
   88SAPS  H11A 8422   1.882   5.363  10.867  0.1041  1.7427 -1.8689
   88SAPS  H11B 8423   2.009   5.313  10.958 -2.5872 -1.1867 -0.1711
   88SAPS     P 8424   2.034   5.450  10.661  0.0054 -0.1313 -0.0347
   88SAPS   O13 8425   1.943   5.557  10.630 -0.0242 -0.5382 -0.4448
   88SAPS   O14 8426   2.163   5.456  10.589 -0.1547 -0.1256 -0.0542
   88SAPS   O12 8427   2.071   5.448  10.812 -0.0730 -0.5781  0.1190
   88SAPS   O11 8428   1.971   5.305  10.647  0.2194  0.4849  0.5028
   88SAPS    C1 8429   1.829   5.280  10.623  0.2014 -0.2607  0.9834
   88SAPS    HA 8430   1.786   5.218  10.704 -2.9522 -1.3712 -1.3475
   88SAPS    HB 8431   1.765   5.369  10.604  2.0682  0.7025 -1.3075
   88SAPS    C2 8432   1.806   5.189  10.500 -0.8208  0.0761 -0.0137
   88SAPS    HS 8433   1.879   5.107  10.514  0.9719  1.5410 -0.4648
   88SAPS   O21 8434   1.821   5.262  10.373  0.1760 -0.1379  0.4315
   88SAPS   C21 8435   1.942   5.254  10.331  0.1669  0.3416  0.1220
   88SAPS   O22 8436   2.033   5.184  10.379  0.1462 -0.5508 -0.3966
   88SAPS   C22 8437   1.948   5.317  10.192 -0.3314  0.3211  0.6381
   88SAPS   H2R 8438   1.889   5.258  10.119 -0.0890  0.1698  0.5631
   88SAPS   H2S 8439   1.924   5.425  10.189  2.9177  1.1348  0.2027
   88SAPS    C3 8440   1.668   5.114  10.501 -0.2054 -0.6795 -0.4017
   88SAPS    HX 8441   1.586   5.178  10.539 -0.3986 -1.4734  0.5497
   88SAPS    HY 8442   1.676   5.043  10.586  0.5157 -0.0708  0.0495
   88SAPS   O31 8443   1.632   5.049  10.379  0.1101  0.0812  0.4476
   88SAPS   C31 8444   1.689   4.933  10.367  0.6214 -0.1105  0.0698
   88SAPS   O32 8445   1.757   4.875  10.447  0.1279 -0.9698 -0.2022
   88SAPS   C32 8446   1.662   4.883  10.223 -0.1578 -0.3807 -0.0455
   88SAPS   H2X 8447   1.678   4.773  10.231 -0.8783 -0.3463  2.7825
   88SAPS   H2Y 8448   1.728   4.934  10.150  0.4678  0.6467  1.2160
   88SAPS   C23 8449   2.090   5.298  10.131 -0.3549  0.0814  0.2479
   88SAPS   H3R 8450   2.106   5.188  10.135 -0.7341  0.0502  3.3311
   88SAPS   H3S 8451   2.165   5.348  10.196 -0.3978 -1.3075  1.4214
   88SAPS   C24 8452   2.108   5.349   9.987  1.0139 -0.1203  0.1511
   88SAPS   H4R 8453   2.085   5.457   9.999 -0.4584 -0.5480  1.4539
   88SAPS   H4S 8454   2.028   5.305   9.923  0.4781  1.9085 -0.6366
   88SAPS   C25 8455   2.234   5.332   9.916 -0.5937  0.1430 -0.6092
   88SAPS   H5R 8456   2.315   5.399   9.950  0.1155 -2.4001  3.2823
   88SAPS   C26 8457   2.260   5.256   9.812  0.0889 -0.4811 -0.3670
   88SAPS   H6R 8458   2.364   5.240   9.782  0.2551  0.9611 -0.6303
   88SAPS   C27 8459   2.163   5.158   9.752 -0.0533  0.3665 -0.4384
   88SAPS   H7R 8460   2.076   5.215   9.710 -0.6712 -0.4603 -0.3124
   88SAPS   H7S 8461   2.125   5.103   9.840 -0.2019  1.6496  0.3184
   88SAPS   C28 8462   2.218   5.051   9.660 -0.3893  0.4414 -0.5711
   88SAPS   H8R 8463   2.327   5.039   9.671 -0.3207  0.8283 -0.8065
   88SAPS   C29 8464   2.146   4.985   9.565  0.6942  0.3365  0.0406
   88SAPS   H9R 8465   2.203   4.917   9.499 -0.6530  0.8036 -1.6907
   88SAPS  C210 8466   1.996   4.996   9.528  0.3023 -0.1788 -0.4018
   88SAPS  H10R 8467   1.932   4.996   9.619 -2.1297 -0.2253 -2.0233
   88SAPS  H10S 8468   1.970   4.894   9.493  2.4161 -1.5838  1.7511
   88SAPS  C211 8469   1.965   5.107   9.433 -0.3858 -0.2523 -0.2324
   88SAPS  H11R 8470   1.924   5.199   9.477 -0.1807  0.3968 -1.3490
   88SAPS  C212 8471   1.991   5.096   9.301  0.1108 -0.1109 -0.4957
   88SAPS  H12R 8472   1.969   5.186   9.241  2.1849 -0.3567 -1.7516
   88SAPS  C213 8473   2.055   4.981   9.231  0.2718  0.1038 -0.2620
   88SAPS  H13R 8474   1.986   4.941   9.153 -0.1525 -0.1802  0.2530
   88SAPS  H13S 8475   2.080   4.894   9.295  2.9600  0.2253 -1.0081
   88SAPS  C214 8476   2.184   5.036   9.176 -0.3925 -0.5555 -0.7245
   88SAPS  H14R 8477   2.256   5.073   9.250  0.6118  0.9539 -2.3806
   88SAPS  C215 8478   2.227   5.035   9.049 -0.1750  0.0207 -0.2082
   88SAPS  H15R 8479   2.321   5.088   9.026 -0.5479  0.3161 -1.0900
   88SAPS  C216 8480   2.156   4.990   8.924 -0.1116 -0.1054  1.1215
   88SAPS  H16R 8481   2.114   5.073   8.864 -2.0929 -1.3531  0.6848
   88SAPS  H16S 8482   2.065   4.938   8.959  0.3460 -0.7692  1.3473
   88SAPS  C217 8483   2.250   4.918   8.824  0.3215 -1.0160 -0.0822
   88SAPS  H17R 8484   2.271   4.815   8.859  0.7526 -0.6397  0.8004
   88SAPS  H17S 8485   2.341   4.979   8.807 -0.7081  0.2808 -1.1502
   88SAPS  C218 8486   2.181   4.920   8.682  0.3492 -0.3107  0.6492
   88SAPS  H18R 8487   2.171   5.024   8.646  0.8727 -0.9406 -1.4651
   88SAPS  H18S 8488   2.079   4.879   8.698 -0.8703  1.3431 -2.2073
   88SAPS  C219 8489   2.257   4.839   8.571 -0.5336  0.2115 -0.1591
   88SAPS  H19R 8490   2.250   4.729   8.578 -0.3936  0.1864 -0.4120
   88SAPS  H19S 8491   2.362   4.873   8.585 -0.1999 -0.6563 -0.4669
   88SAPS  C220 8492   2.230   4.888   8.430  0.5635 -0.3925 -0.2892
   88SAPS  H20R 8493   2.239   4.999   8.422 -1.5031 -0.0994  0.8231
   88SAPS  H20S 8494   2.138   4.854   8.379  0.2922 -0.5575  0.2976
   88SAPS  H20T 8495   2.309   4.839   8.369  0.1642  1.6621 -2.5859
   88SAPS   C33 8496   1.517   4.912  10.183  0.1937 -0.4578  0.3311
   88SAPS   H3X 8497   1.508   5.019  10.154 -1.7008 -0.3238  1.2135
   88SAPS   H3Y 8498   1.438   4.892  10.259 -1.4119 -1.4569 -1.5127
   88SAPS   C34 8499   1.480   4.825  10.063 -0.4342 -0.0236 -0.4005
   88SAPS   H4X 8500   1.372   4.834  10.038 -0.9906 -1.9906  1.0141
   88SAPS   H4Y 8501   1.485   4.717  10.089  0.7911  0.3344  1.0678
   88SAPS   C35 8502   1.565   4.837   9.934 -0.4316 -0.2546 -0.1870
   88SAPS   H5X 8503   1.667   4.798   9.956 -2.0433 -5.5567 -0.9207
   88SAPS   H5Y 8504   1.565   4.937   9.886  0.0154 -0.0490  0.2265
   88SAPS   C36 8505   1.501   4.751   9.830  0.6973  0.2010  0.3690
   88SAPS   H6X 8506   1.395   4.773   9.805  0.6033  0.3480  0.8977
   88SAPS   H6Y 8507   1.496   4.652   9.881 -0.0682 -1.0035 -1.9102
   88SAPS   C37 8508   1.575   4.733   9.701  0.0616  0.5506 -0.3914
   88SAPS   H7X 8509   1.540   4.635   9.663  1.9804  0.4774 -2.1508
   88SAPS   H7Y 8510   1.684   4.730   9.719  0.0902  0.9858 -0.4642
   88SAPS   C38 8511   1.547   4.846   9.596  0.2633 -0.0867  0.1312
   88SAPS   H8X 8512   1.590   4.941   9.636 -0.1063 -0.1983  0.8219
   88SAPS   H8Y 8513   1.439   4.871   9.580 -0.4506 -3.1475 -0.3809
   88SAPS   C39 8514   1.607   4.810   9.458 -0.0078 -0.1161  0.0260
   88SAPS   H9X 8515   1.550   4.727   9.412 -0.9294  0.8757 -0.6925
   88SAPS   H9Y 8516   1.715   4.785   9.468  0.0907 -0.1361 -0.9480
   88SAPS  C310 8517   1.600   4.921   9.359 -0.4925 -0.3713  0.4576
   88SAPS  H10X 8518   1.673   5.001   9.384 -1.0408  0.0678  0.6783
   88SAPS  H10Y 8519   1.499   4.966   9.348  0.0310  0.8944  0.6836
   88SAPS  C311 8520   1.636   4.874   9.220 -0.6116 -0.3034 -0.1889
   88SAPS  H11X 8521   1.558   4.804   9.183 -2.0692  1.1372  0.0434
   88SAPS  H11Y 8522   1.733   4.821   9.228  0.1954  1.3509  2.8977
   88SAPS  C312 8523   1.637   5.000   9.131 -0.0932  0.6766  0.3223
   88SAPS  H12X 8524   1.716   5.063   9.177  0.6982  0.2556 -0.4357
   88SAPS  H12Y 8525   1.541   5.055   9.141 -0.4286  0.1404  0.0739
   88SAPS  C313 8526   1.670   4.975   8.983 -0.0205  0.6622 -0.1372
   88SAPS  H13X 8527   1.585   4.942   8.921 -0.6783  0.7770  0.6909
   88SAPS  H13Y 8528   1.746   4.895   8.990 -1.1801 -0.4223  0.3401
   88SAPS  C314 8529   1.734   5.097   8.912 -0.2303  0.3049  0.3271
   88SAPS  H14X 8530   1.827   5.125   8.966 -0.3033 -1.9209  1.7256
   88SAPS  H14Y 8531   1.664   5.183   8.904 -0.0004  0.2913 -2.5388
   88SAPS  C315 8532   1.765   5.068   8.766 -1.1080 -0.7443 -0.2791
   88SAPS  H15X 8533   1.665   5.057   8.720 -1.5631 -0.0303  0.5123
   88SAPS  H15Y 8534   1.823   4.976   8.745 -1.5304 -0.6054 -2.2550
   88SAPS  C316 8535   1.816   5.189   8.684  0.5037 -0.1146 -0.2366
   88SAPS  H16X 8536   1.921   5.211   8.715  0.5617  2.8153 -2.0091
   88SAPS  H16Y 8537   1.752   5.276   8.711 -0.3071 -0.7979  0.0525
   88SAPS  C317 8538   1.815   5.166   8.531  0.2580 -0.0393  0.2060
   88SAPS  H17X 8539   1.714   5.168   8.486  2.1102 -0.5938 -4.5355
   88SAPS  H17Y 8540   1.846   5.060   8.516  0.6632  0.1698 -0.4702
   88SAPS  C318 8541   1.906   5.258   8.446 -0.4671  0.5982  0.3869
   88SAPS  H18X 8542   1.868   5.277   8.344  1.1833  3.4443  0.1949
   88SAPS  H18Y 8543   2.012   5.225   8.436 -0.3043  0.7507  1.4450
   88SAPS  H18Z 8544   1.914   5.358   8.494 -2.6137  0.8953  0.2017
   89SAPS     N 8545   3.938   1.764  10.936 -0.1843  0.2821  0.2280
   89SAPS   HN1 8546   3.984   1.674  10.958  1.6575  1.0303 -0.3946
   89SAPS   HN2 8547   3.937   1.777  10.833  1.5617  0.0565  0.1611
   89SAPS   HN3 8548   4.000   1.834  10.980  0.4209  2.0922 -3.1318
   89SAPS   C12 8549   3.796   1.779  10.985 -0.4844  0.2829 -0.2431
   89SAPS  H12A 8550   3.738   1.695  10.951  0.7426 -0.3518 -0.8050
   89SAPS   C13 8551   3.777   1.781  11.133 -0.5764 -0.0422 -0.0044
   89SAPS  O13A 8552   3.871   1.738  11.203 -0.8901 -0.7761  0.3218
   89SAPS  O13B 8553   3.662   1.795  11.181  0.3682  0.2687 -0.0653
   89SAPS   C11 8554   3.733   1.908  10.927  0.3670 -0.5026  0.3081
   89SAPS  H11A 8555   3.794   1.994  10.962  1.0377 -1.5695  1.8939
   89SAPS  H11B 8556   3.631   1.926  10.966  0.4411  1.5502 -0.3630
   89SAPS     P 8557   3.627   1.855  10.690  0.0015  0.4521  0.1786
   89SAPS   O13 8558   3.699   1.786  10.582 -0.0231 -0.0839  0.2232
   89SAPS   O14 8559   3.528   1.773  10.766  0.0506 -0.1929  0.3934
   89SAPS   O12 8560   3.738   1.907  10.787 -0.1418  0.3796 -0.2494
   89SAPS   O11 8561   3.568   1.986  10.634 -0.0135 -0.0588 -0.0612
   89SAPS    C1 8562   3.485   2.076  10.703  0.0831  0.2399 -0.4157
   89SAPS    HA 8563   3.485   2.071  10.814  1.6980  1.5359 -0.3079
   89SAPS    HB 8564   3.520   2.181  10.686 -0.1152  0.5989  1.2408
   89SAPS    C2 8565   3.337   2.084  10.648 -0.7697 -0.3532  0.2005
   89SAPS    HS 8566   3.281   2.000  10.694 -0.6192 -1.1995 -1.1084
   89SAPS   O21 8567   3.344   2.094  10.505  0.0004  1.0323  0.1801
   89SAPS   C21 8568   3.346   1.971  10.452 -1.1747 -0.5464  0.8705
   89SAPS   O22 8569   3.319   1.867  10.509 -0.5462  0.4681 -0.9953
   89SAPS   C22 8570   3.364   1.984  10.302  0.4066 -0.1725  0.4417
   89SAPS   H2R 8571   3.275   2.039  10.264 -0.3336 -1.2809  0.4933
   89SAPS   H2S 8572   3.459   2.040  10.287  0.3242 -0.1652 -0.0820
   89SAPS    C3 8573   3.254   2.215  10.689  0.3188 -0.5416  0.1351
   89SAPS    HX 8574   3.320   2.305  10.684 -0.0997 -0.0084  2.6284
   89SAPS    HY 8575   3.223   2.203  10.796  1.3310  3.4420  1.0527
   89SAPS   O31 8576   3.132   2.226  10.609  0.4844  0.5766 -0.2029
   89SAPS   C31 8577   3.094   2.341  10.570  0.2263 -0.7429  0.1440
   89SAPS   O32 8578   3.133   2.450  10.613  0.5329  0.0751 -0.7083
   89SAPS   C32 8579   2.984   2.328  10.462  0.6730 -0.8334 -0.4393
   89SAPS   H2X 8580   2.894   2.343  10.526 -0.4322  3.1968 -2.5263
   89SAPS   H2Y 8581   2.991   2.230  10.410  0.5375  0.0521 -2.2184
   89SAPS   C23 8582   3.353   1.841  10.231  0.1953 -0.9074 -0.3103
   89SAPS   H3R 8583   3.253   1.798  10.255  0.7026 -3.3228 -2.1301
   89SAPS   H3S 8584   3.435   1.786  10.280 -0.3594 -0.9407  0.6024
   89SAPS   C24 8585   3.384   1.857  10.084 -0.2116 -0.0397  0.5163
   89SAPS   H4R 8586   3.488   1.888  10.061  0.0957 -1.4319 -0.0342
   89SAPS   H4S 8587   3.323   1.937  10.037 -0.2166  0.7222  1.7552
   89SAPS   C25 8588   3.365   1.730  10.010 -0.2998  0.3337  0.6458
   89SAPS   H5R 8589   3.402   1.637  10.055 -1.2100  0.4599  1.6894
   89SAPS   C26 8590   3.317   1.723   9.883 -0.4938 -0.2933 -0.4872
   89SAPS   H6R 8591   3.322   1.626   9.832 -0.3159 -0.7811  0.4456
   89SAPS   C27 8592   3.270   1.838   9.795  0.6433  0.9288 -1.0157
   89SAPS   H7R 8593   3.275   1.937   9.846 -3.3003  0.1466  1.2752
   89SAPS   H7S 8594   3.160   1.828   9.780  0.7776  1.2918 -2.3380
   89SAPS   C28 8595   3.342   1.857   9.665 -0.7882  0.5619 -0.8424
   89SAPS   H8R 8596   3.446   1.891   9.675 -0.6900 -0.1269  0.8350
   89SAPS   C29 8597   3.300   1.824   9.539 -0.5989 -0.5933 -1.1324
   89SAPS   H9R 8598   3.362   1.853   9.452 -1.1666  0.7532 -1.1154
   89SAPS  C210 8599   3.163   1.761   9.517  0.4963  0.4016 -0.4653
   89SAPS  H10R 8600   3.089   1.841   9.495 -1.0375 -0.7505  0.3661
   89SAPS  H10S 8601   3.113   1.708   9.601 -0.8253  0.9448 -0.8861
   89SAPS  C211 8602   3.163   1.671   9.398 -0.1673  1.0329 -0.7833
   89SAPS  H11R 8603   3.191   1.569   9.429 -3.4107  0.5199  0.8739
   89SAPS  C212 8604   3.128   1.694   9.270 -0.8230 -0.1576  0.3493
   89SAPS  H12R 8605   3.129   1.606   9.205  0.2289 -1.3517  1.9221
   89SAPS  C213 8606   3.091   1.829   9.219  0.6987 -0.1578  0.0096
   89SAPS  H13R 8607   3.097   1.838   9.109 -0.4633  0.6434 -0.0006
   89SAPS  H13S 8608   3.158   1.904   9.267 -1.5369  1.7218  0.3593
   89SAPS  C214 8609   2.950   1.863   9.255  0.4284  0.4368 -0.5542
   89SAPS  H14R 8610   2.944   1.849   9.364  2.8598 -1.1780 -0.5522
   89SAPS  C215 8611   2.839   1.908   9.190  0.0191 -0.2858  0.1207
   89SAPS  H15R 8612   2.748   1.912   9.252  1.9575 -0.7426  3.2014
   89SAPS  C216 8613   2.823   1.933   9.042  0.4612  0.5259 -0.6007
   89SAPS  H16R 8614   2.912   1.967   8.984  1.0409 -0.4540 -0.3054
   89SAPS  H16S 8615   2.746   2.012   9.033  2.6497  2.7977 -0.4011
   89SAPS  C217 8616   2.762   1.819   8.957  0.2315  0.4207  0.1271
   89SAPS  H17R 8617   2.661   1.787   8.988  0.6929 -1.2944 -0.0642
   89SAPS  H17S 8618   2.831   1.732   8.959 -0.4312 -0.2140 -2.2197
   89SAPS  C218 8619   2.741   1.855   8.808 -0.2618 -0.3707  0.1364
   89SAPS  H18R 8620   2.723   1.760   8.753 -1.2273 -0.2612  0.2532
   89SAPS  H18S 8621   2.829   1.909   8.766 -2.0962  0.2014 -3.3071
   89SAPS  C219 8622   2.612   1.938   8.784 -0.8573 -0.5677  0.9189
   89SAPS  H19R 8623   2.534   1.900   8.854  1.1504 -1.4416  2.8078
   89SAPS  H19S 8624   2.579   1.924   8.679  3.9460 -0.8566 -0.8060
   89SAPS  C220 8625   2.627   2.089   8.794  0.0567  0.0830  0.2979
   89SAPS  H20R 8626   2.710   2.114   8.724  0.4349 -2.3812 -0.2205
   89SAPS  H20S 8627   2.638   2.129   8.897 -1.5590 -0.7438  0.8298
   89SAPS  H20T 8628   2.541   2.133   8.739  0.5611  0.1436 -0.4483
   89SAPS   C33 8629   2.993   2.429  10.340  0.0506  0.2240  0.4319
   89SAPS   H3X 8630   2.981   2.532  10.380 -1.0676  1.4191 -2.6542
   89SAPS   H3Y 8631   2.900   2.408  10.284 -0.6821 -1.3359  2.1466
   89SAPS   C34 8632   3.117   2.406  10.256 -0.1532 -0.7725 -0.1104
   89SAPS   H4X 8633   3.141   2.303  10.224  1.2371 -0.2311 -0.9187
   89SAPS   H4Y 8634   3.207   2.427  10.318  0.8844  0.2337 -1.8586
   89SAPS   C35 8635   3.128   2.499  10.131 -0.1178 -0.6266  0.4396
   89SAPS   H5X 8636   3.235   2.502  10.099 -0.9345  0.9666 -2.5234
   89SAPS   H5Y 8637   3.085   2.601  10.142 -0.2859 -0.7242  0.6934
   89SAPS   C36 8638   3.053   2.441  10.007  0.6593  0.2497  0.2140
   89SAPS   H6X 8639   2.952   2.408  10.039  0.0228 -0.1266 -2.0188
   89SAPS   H6Y 8640   3.103   2.345   9.980 -0.4710 -0.0634 -0.8276
   89SAPS   C37 8641   3.055   2.527   9.876 -0.6365 -0.1212  0.2084
   89SAPS   H7X 8642   3.044   2.636   9.895  2.0929  0.0100  1.5449
   89SAPS   H7Y 8643   2.970   2.505   9.808 -0.3559  1.1855 -0.6157
   89SAPS   C38 8644   3.189   2.527   9.813 -0.0634 -0.3709 -0.6873
   89SAPS   H8X 8645   3.225   2.423   9.803  1.4597 -0.0227  0.7243
   89SAPS   H8Y 8646   3.246   2.582   9.891 -1.5645 -1.6148  1.3915
   89SAPS   C39 8647   3.195   2.622   9.686 -0.0020  0.4767  0.5318
   89SAPS   H9X 8648   3.179   2.725   9.723  0.6269  0.4249  0.9600
   89SAPS   H9Y 8649   3.103   2.604   9.626  0.3606  0.0259  0.0985
   89SAPS  C310 8650   3.326   2.605   9.611  0.9165  0.4218  0.0452
   89SAPS  H10X 8651   3.333   2.498   9.581  2.2453  0.4214  0.3132
   89SAPS  H10Y 8652   3.401   2.622   9.691 -0.8910 -2.1014  2.4752
   89SAPS  C311 8653   3.345   2.703   9.492 -0.0289  0.6076  0.7665
   89SAPS  H11X 8654   3.448   2.682   9.457 -0.8430 -0.5308 -1.0518
   89SAPS  H11Y 8655   3.331   2.808   9.526 -1.3192  0.5070  0.5865
   89SAPS  C312 8656   3.252   2.684   9.367 -0.3227 -0.0021  0.1870
   89SAPS  H12X 8657   3.251   2.781   9.313  2.5679 -0.2748 -0.5331
   89SAPS  H12Y 8658   3.146   2.662   9.393 -1.2157  0.7111 -2.5111
   89SAPS  C313 8659   3.303   2.570   9.273  0.8805 -0.8068  0.1405
   89SAPS  H13X 8660   3.233   2.572   9.186 -1.2993 -0.6871  1.7946
   89SAPS  H13Y 8661   3.293   2.472   9.324  0.6929 -1.0566 -0.3626
   89SAPS  C314 8662   3.452   2.588   9.227  0.6721  0.2525 -0.3997
   89SAPS  H14X 8663   3.520   2.569   9.312 -0.6233 -0.3532  0.5254
   89SAPS  H14Y 8664   3.459   2.696   9.202  0.4655  0.0298 -1.4912
   89SAPS  C315 8665   3.496   2.510   9.109  0.0121  0.5663  0.8212
   89SAPS  H15X 8666   3.495   2.402   9.132  0.0949  0.3601 -0.1222
   89SAPS  H15Y 8667   3.597   2.554   9.097  0.5947 -0.7983  0.5916
   89SAPS  C316 8668   3.407   2.539   8.979 -0.7810 -0.3541 -0.3553
   89SAPS  H16X 8669   3.397   2.649   8.969  0.7875 -0.3028 -2.0331
   89SAPS  H16Y 8670   3.306   2.497   8.994 -1.3915  0.9471 -0.6392
   89SAPS  C317 8671   3.474   2.484   8.854  0.2823  0.4172  0.0946
   89SAPS  H17X 8672   3.517   2.382   8.857  1.5264  0.8987 -0.5432
   89SAPS  H17Y 8673   3.568   2.540   8.831  0.1999  0.9007  0.8939
   89SAPS  C318 8674   3.386   2.490   8.729  0.0497 -0.2959 -0.0766
   89SAPS  H18X 8675   3.418   2.434   8.639 -2.1886  0.2194 -1.2812
   89SAPS  H18Y 8676   3.381   2.596   8.697  2.5686 -0.2610 -0.5399
   89SAPS  H18Z 8677   3.285   2.453   8.757 -0.1001 -0.4210 -0.7599
   90SAPS     N 8678   1.647   0.582  10.863 -0.4099 -0.1941  0.2387
   90SAPS   HN1 8679   1.550   0.561  10.830 -1.3462  3.3084  0.3340
   90SAPS   HN2 8680   1.624   0.665  10.921 -2.8422 -1.1583  0.7814
   90SAPS   HN3 8681   1.704   0.596  10.778 -0.1140 -1.2867  0.2330
   90SAPS   C12 8682   1.691   0.467  10.945 -0.0442 -0.0821  0.3483
   90SAPS  H12A 8683   1.774   0.497  11.008  0.1532 -0.0012  0.0523
   90SAPS   C13 8684   1.579   0.415  11.029 -0.3345  0.5149 -0.6428
   90SAPS  O13A 8685   1.466   0.465  11.021  0.0971 -0.2230  0.2899
   90SAPS  O13B 8686   1.607   0.334  11.121 -1.0560 -0.0848 -0.2163
   90SAPS   C11 8687   1.746   0.350  10.853  0.3302  0.4293 -0.3425
   90SAPS  H11A 8688   1.666   0.303  10.792  2.1949 -2.9016 -0.4702
   90SAPS  H11B 8689   1.788   0.269  10.917 -1.8086  0.9320  1.8754
   90SAPS     P 8690   1.905   0.318  10.648 -0.3674 -0.0451  0.4176
   90SAPS   O13 8691   2.032   0.252  10.693  0.1161 -0.5036 -0.0560
   90SAPS   O14 8692   1.794   0.240  10.587 -0.0929 -0.0231  0.1810
   90SAPS   O12 8693   1.847   0.398  10.771 -0.9898  0.4176  0.1926
   90SAPS   O11 8694   1.945   0.432  10.544 -0.0854 -0.4948 -0.6652
   90SAPS    C1 8695   1.861   0.547  10.534 -0.4875  0.1105 -0.7229
   90SAPS    HA 8696   1.838   0.605  10.626 -2.4992 -2.0111  0.2368
   90SAPS    HB 8697   1.916   0.614  10.465  0.2630 -1.1905 -1.4324
   90SAPS    C2 8698   1.727   0.515  10.458  0.0322 -0.2460  0.3101
   90SAPS    HS 8699   1.661   0.462  10.530 -0.2388 -0.3280  0.0032
   90SAPS   O21 8700   1.761   0.440  10.337 -0.2479  0.2744 -0.5167
   90SAPS   C21 8701   1.680   0.349  10.311  0.2876 -0.0690  0.2899
   90SAPS   O22 8702   1.580   0.322  10.374  0.3194 -0.0638 -0.1437
   90SAPS   C22 8703   1.731   0.257  10.201 -0.9083 -0.5164 -0.1651
   90SAPS   H2R 8704   1.836   0.227  10.219 -0.2003  0.2752 -2.5591
   90SAPS   H2S 8705   1.671   0.165  10.217  1.2925 -2.0822 -0.6202
   90SAPS    C3 8706   1.654   0.651  10.413 -0.0207 -0.4914 -0.4439
   90SAPS    HX 8707   1.661   0.735  10.485 -1.8933 -1.3689  0.8406
   90SAPS    HY 8708   1.551   0.611  10.422  0.2877 -0.9858  1.1022
   90SAPS   O31 8709   1.695   0.689  10.283  0.7336  0.1908 -0.0079
   90SAPS   C31 8710   1.617   0.660  10.184 -0.1434 -0.1013 -0.8025
   90SAPS   O32 8711   1.520   0.586  10.188  0.0145  0.2352 -0.0850
   90SAPS   C32 8712   1.675   0.724  10.054 -0.1724  0.1119 -0.0139
   90SAPS   H2X 8713   1.786   0.712  10.056 -0.2025 -0.5719 -1.3034
   90SAPS   H2Y 8714   1.648   0.831  10.052 -0.1104  0.1223 -0.8485
   90SAPS   C23 8715   1.710   0.320  10.056  0.2397 -0.4451  0.6579
   90SAPS   H3R 8716   1.762   0.417  10.048  1.5267 -1.1644  0.0931
   90SAPS   H3S 8717   1.604   0.352  10.045  1.0809  1.7826 -2.0698
   90SAPS   C24 8718   1.750   0.228   9.940 -0.2133  0.2317  0.4050
   90SAPS   H4R 8719   1.701   0.131   9.962  0.9362  0.0689  2.5323
   90SAPS   H4S 8720   1.858   0.206   9.956 -0.3859  0.7903  2.8571
   90SAPS   C25 8721   1.718   0.276   9.798  0.1770 -0.0585  0.2830
   90SAPS   H5R 8722   1.657   0.366   9.785  0.8758  0.0826 -2.6932
   90SAPS   C26 8723   1.754   0.215   9.680 -0.6267 -0.4250  0.2428
   90SAPS   H6R 8724   1.716   0.254   9.585  1.0786 -2.1313 -1.2121
   90SAPS   C27 8725   1.843   0.093   9.681  0.4823  0.8673  0.4975
   90SAPS   H7R 8726   1.775   0.007   9.662  0.3986  1.3884 -1.7620
   90SAPS   H7S 8727   1.879   0.077   9.785 -2.4791 -0.0303  1.4749
   90SAPS   C28 8728   1.966   0.093   9.591  0.4481 -0.7951  0.3897
   90SAPS   H8R 8729   2.036   0.170   9.627  1.6684 -1.7463  0.1157
   90SAPS   C29 8730   1.994   0.038   9.472  0.4681  0.7571  0.3350
   90SAPS   H9R 8731   2.091   0.067   9.428  0.2904  0.4319 -0.2809
   90SAPS  C210 8732   1.908  -0.048   9.381  1.0605 -0.2688  0.7559
   90SAPS  H10R 8733   1.857  -0.123   9.446 -0.0694  1.9867  2.5791
   90SAPS  H10S 8734   1.960  -0.102   9.298  1.0880 -0.8876  1.1669
   90SAPS  C211 8735   1.788   0.033   9.340  0.6755 -0.2279 -0.4075
   90SAPS  H11R 8736   1.727   0.069   9.425  1.5122 -1.6114  0.8453
   90SAPS  C212 8737   1.741   0.062   9.217 -0.6815 -0.0178  0.2034
   90SAPS  H12R 8738   1.650   0.123   9.204  0.2052  1.0779 -1.1999
   90SAPS  C213 8739   1.803   0.012   9.090  0.3343  0.2664  0.3061
   90SAPS  H13R 8740   1.782  -0.097   9.095 -1.4397  0.5799  0.4725
   90SAPS  H13S 8741   1.911   0.006   9.114  0.5564 -2.7203 -1.0181
   90SAPS  C214 8742   1.771   0.090   8.969 -0.6387 -0.4287  0.7555
   90SAPS  H14R 8743   1.846   0.153   8.917 -2.2407 -1.4010 -3.0982
   90SAPS  C215 8744   1.653   0.083   8.904  0.6310 -0.3245  0.3810
   90SAPS  H15R 8745   1.644   0.147   8.815 -1.8656 -2.0366 -0.6980
   90SAPS  C216 8746   1.539  -0.007   8.936 -0.7129  0.5313  0.3975
   90SAPS  H16R 8747   1.524  -0.013   9.045 -1.4571  0.1417  0.2769
   90SAPS  H16S 8748   1.540  -0.107   8.888 -1.8345  0.3994  0.6287
   90SAPS  C217 8749   1.407   0.051   8.878  0.6823 -0.1790  0.4764
   90SAPS  H17R 8750   1.377   0.156   8.896 -1.4734 -0.8009  0.7535
   90SAPS  H17S 8751   1.326  -0.013   8.918  0.8282  0.1407  1.3039
   90SAPS  C218 8752   1.403   0.055   8.725 -0.5824  0.0156  0.3719
   90SAPS  H18R 8753   1.455  -0.036   8.689 -1.9679 -0.4813 -0.4053
   90SAPS  H18S 8754   1.474   0.135   8.693  0.1598 -1.0625 -0.7838
   90SAPS  C219 8755   1.264   0.080   8.673  0.2734 -0.4004  0.0059
   90SAPS  H19R 8756   1.228   0.183   8.694  1.8349  0.1672  0.0301
   90SAPS  H19S 8757   1.192   0.003   8.708  0.2122 -0.0418  0.6946
   90SAPS  C220 8758   1.270   0.086   8.518 -0.6582 -0.5077  0.0475
   90SAPS  H20R 8759   1.275  -0.020   8.483 -0.8476 -0.5985  0.2910
   90SAPS  H20S 8760   1.353   0.145   8.474 -0.6687 -1.2867 -1.0928
   90SAPS  H20T 8761   1.174   0.129   8.482  0.0877  3.4646  2.2632
   90SAPS   C33 8762   1.638   0.659   9.921  0.2899  0.2717  0.6272
   90SAPS   H3X 8763   1.540   0.692   9.881  1.6207  2.1416 -1.3063
   90SAPS   H3Y 8764   1.645   0.549   9.939  3.4327  0.4366  0.9678
   90SAPS   C34 8765   1.725   0.699   9.805 -0.1741 -0.3436 -0.1704
   90SAPS   H4X 8766   1.680   0.639   9.722 -1.1352  0.4004 -0.2109
   90SAPS   H4Y 8767   1.834   0.679   9.814 -0.0569  0.3309 -0.0167
   90SAPS   C35 8768   1.699   0.847   9.770  0.4777 -0.3135 -0.3316
   90SAPS   H5X 8769   1.730   0.923   9.845 -1.1788  0.0260  0.0577
   90SAPS   H5Y 8770   1.592   0.873   9.760  0.5571  0.9770  1.6448
   90SAPS   C36 8771   1.777   0.897   9.651  0.2770  0.1290 -0.1695
   90SAPS   H6X 8772   1.756   0.835   9.561 -0.6388  0.4931 -0.2123
   90SAPS   H6Y 8773   1.884   0.890   9.679  0.0471 -0.6809  0.5650
   90SAPS   C37 8774   1.733   1.040   9.629 -0.7759  0.2063 -0.3887
   90SAPS   H7X 8775   1.760   1.100   9.719 -0.6973 -1.2200  0.5617
   90SAPS   H7Y 8776   1.622   1.048   9.619 -0.8730 -0.2745  0.2577
   90SAPS   C38 8777   1.809   1.103   9.507  0.5878 -0.3224 -0.3159
   90SAPS   H8X 8778   1.808   1.031   9.422  1.9636  1.4860 -1.9406
   90SAPS   H8Y 8779   1.913   1.122   9.538  0.6650  0.1660 -0.8759
   90SAPS   C39 8780   1.746   1.233   9.463 -0.0050 -0.1970 -0.3052
   90SAPS   H9X 8781   1.759   1.301   9.551  3.4179 -1.6244  0.4762
   90SAPS   H9Y 8782   1.639   1.210   9.450  0.3979 -3.3478  1.0025
   90SAPS  C310 8783   1.796   1.301   9.331  0.7631 -0.3915  0.5150
   90SAPS  H10X 8784   1.905   1.318   9.325  0.6793 -0.1541 -0.6456
   90SAPS  H10Y 8785   1.736   1.390   9.302 -1.3724 -2.1892 -1.0671
   90SAPS  C311 8786   1.748   1.212   9.210  0.5855  0.1749 -0.0592
   90SAPS  H11X 8787   1.638   1.224   9.196  0.6363 -0.8012 -1.4566
   90SAPS  H11Y 8788   1.756   1.105   9.237  0.8409 -0.7018 -3.2285
   90SAPS  C312 8789   1.803   1.244   9.074  0.4699 -0.1808  0.2239
   90SAPS  H12X 8790   1.787   1.349   9.042 -0.6614 -0.2552  0.5204
   90SAPS  H12Y 8791   1.746   1.181   9.003  0.5510  1.4152 -1.3500
   90SAPS  C313 8792   1.946   1.211   9.039 -0.4758 -0.7233  0.6996
   90SAPS  H13X 8793   1.972   1.103   9.039 -0.2482 -0.7165 -1.4244
   90SAPS  H13Y 8794   2.021   1.270   9.096  0.0324  1.2137 -1.7911
   90SAPS  C314 8795   1.976   1.261   8.892  0.2675  0.3380 -0.2889
   90SAPS  H14X 8796   1.996   1.370   8.891 -1.6945  0.7635  0.7825
   90SAPS  H14Y 8797   1.889   1.239   8.827  0.2647 -0.0400 -0.1594
   90SAPS  C315 8798   2.099   1.190   8.833  0.6571 -1.2275 -0.4372
   90SAPS  H15X 8799   2.097   1.086   8.871  0.5281 -0.2072  2.6473
   90SAPS  H15Y 8800   2.185   1.232   8.890  0.2540 -2.2919  1.0161
   90SAPS  C316 8801   2.104   1.220   8.686 -0.0018  0.3335  0.4122
   90SAPS  H16X 8802   2.098   1.330   8.673  1.1279  0.3663  0.0648
   90SAPS  H16Y 8803   2.013   1.187   8.633 -1.3043  1.6378  1.7336
   90SAPS  C317 8804   2.235   1.184   8.622 -0.2953  0.0908 -0.3301
   90SAPS  H17X 8805   2.306   1.270   8.628 -0.5798  0.3366 -0.4198
   90SAPS  H17Y 8806   2.229   1.174   8.511  0.2040  1.9139 -0.5675
   90SAPS  C318 8807   2.311   1.063   8.683  0.1343  0.2591 -0.1424
   90SAPS  H18X 8808   2.249   0.971   8.672  1.3282 -0.9668  2.5659
   90SAPS  H18Y 8809   2.329   1.082   8.791 -3.1761 -0.9734  0.7261
   90SAPS  H18Z 8810   2.403   1.043   8.624 -0.3096 -4.3810  0.3864
   91SAPS     N 8811   1.571   4.827   6.060  0.1675  0.6568 -0.4227
   91SAPS   HN1 8812   1.607   4.868   5.971 -2.2901  1.4453 -1.1407
   91SAPS   HN2 8813   1.496   4.759   6.037  1.4651 -1.6411  1.6059
   91SAPS   HN3 8814   1.526   4.909   6.106 -0.6011  1.2922 -2.1954
   91SAPS   C12 8815   1.669   4.754   6.145 -0.0025  0.3797 -0.2871
   91SAPS  H12A 8816   1.734   4.693   6.084  1.8059  2.3821 -0.4749
   91SAPS   C13 8817   1.755   4.849   6.234  0.3272  0.1184  0.6288
   91SAPS  O13A 8818   1.760   4.970   6.204 -0.4246 -0.3102 -0.5108
   91SAPS  O13B 8819   1.842   4.797   6.301  0.1418  0.3282 -0.2740
   91SAPS   C11 8820   1.597   4.668   6.259  0.8196 -0.2571  0.3338
   91SAPS  H11A 8821   1.523   4.736   6.306  0.9594  0.4269 -0.4060
   91SAPS  H11B 8822   1.667   4.632   6.336  0.0936 -3.5240 -0.3996
   91SAPS     P 8823   1.595   4.424   6.194 -0.1250  0.0853  0.0509
   91SAPS   O13 8824   1.524   4.337   6.096  0.7097 -0.3755  0.0982
   91SAPS   O14 8825   1.739   4.456   6.167  0.3796  0.3930  0.4019
   91SAPS   O12 8826   1.526   4.561   6.194  0.1371  0.0523  0.3030
   91SAPS   O11 8827   1.583   4.376   6.344  0.7302  0.3605  0.7034
   91SAPS    C1 8828   1.460   4.317   6.394  0.4097 -0.4564  0.0076
   91SAPS    HA 8829   1.387   4.290   6.315 -0.1680  1.6632 -0.2362
   91SAPS    HB 8830   1.489   4.228   6.454 -0.0191 -1.4824 -1.2755
   91SAPS    C2 8831   1.389   4.417   6.498  0.8096  0.4379  0.4605
   91SAPS    HS 8832   1.336   4.491   6.434  2.0831  0.2094 -0.9379
   91SAPS   O21 8833   1.495   4.488   6.572 -0.3389 -0.1382  0.3678
   91SAPS   C21 8834   1.472   4.605   6.604 -0.4659  0.3139  0.0039
   91SAPS   O22 8835   1.370   4.667   6.589 -0.2547  0.2720  0.3131
   91SAPS   C22 8836   1.594   4.666   6.668  0.1422  0.7523 -0.3453
   91SAPS   H2R 8837   1.579   4.654   6.777 -0.6238  0.3114 -0.4963
   91SAPS   H2S 8838   1.677   4.596   6.643  0.9015  0.6159  2.2992
   91SAPS    C3 8839   1.290   4.339   6.591  0.1097  0.2370  0.4588
   91SAPS    HX 8840   1.338   4.245   6.626 -0.8819 -0.5441 -0.2177
   91SAPS    HY 8841   1.212   4.304   6.521  0.1125 -2.2049  1.5672
   91SAPS   O31 8842   1.236   4.424   6.700  0.0886  0.3010  0.4663
   91SAPS   C31 8843   1.183   4.356   6.802 -0.7130 -0.3192 -0.1048
   91SAPS   O32 8844   1.169   4.236   6.805 -0.4164 -0.2189 -0.7162
   91SAPS   C32 8845   1.151   4.452   6.912 -0.1649  0.4039  0.0307
   91SAPS   H2X 8846   1.042   4.475   6.912 -0.1841  0.3244 -0.2913
   91SAPS   H2Y 8847   1.194   4.554   6.897 -0.4480  0.1804 -2.8685
   91SAPS   C23 8848   1.651   4.803   6.638  0.0145 -0.1724 -0.4958
   91SAPS   H3R 8849   1.566   4.874   6.648  0.7921  0.5442  1.6510
   91SAPS   H3S 8850   1.681   4.811   6.531 -2.5464  1.7529 -1.1557
   91SAPS   C24 8851   1.785   4.835   6.711 -0.4752 -0.5173  0.0450
   91SAPS   H4R 8852   1.862   4.758   6.689 -0.7672 -0.4377 -1.3196
   91SAPS   H4S 8853   1.763   4.815   6.818 -0.1147 -2.1298 -0.1602
   91SAPS   C25 8854   1.830   4.981   6.690 -0.5267  0.3385  0.7021
   91SAPS   H5R 8855   1.829   5.013   6.585  1.8163  0.6458  0.7027
   91SAPS   C26 8856   1.876   5.063   6.784 -0.3099  0.3980  0.0050
   91SAPS   H6R 8857   1.913   5.164   6.762 -0.7457  0.4395 -0.5682
   91SAPS   C27 8858   1.898   5.027   6.925 -0.4486 -0.4871  0.4044
   91SAPS   H7R 8859   2.000   5.058   6.955 -0.5603 -1.3672  1.7803
   91SAPS   H7S 8860   1.900   4.917   6.944 -1.6094 -0.1611  2.7960
   91SAPS   C28 8861   1.796   5.094   7.015 -0.5394  0.4525  0.1070
   91SAPS   H8R 8862   1.702   5.120   6.965 -0.1180 -0.8362 -1.4313
   91SAPS   C29 8863   1.809   5.110   7.149  0.0684 -0.5979  0.0352
   91SAPS   H9R 8864   1.729   5.148   7.215  0.9926 -1.9621  2.0294
   91SAPS  C210 8865   1.928   5.056   7.225  0.2853 -0.1457 -0.1608
   91SAPS  H10R 8866   2.022   5.073   7.170 -0.7656 -0.7069 -2.2241
   91SAPS  H10S 8867   1.909   4.947   7.238 -2.3086  0.1521 -0.8114
   91SAPS  C211 8868   1.938   5.128   7.362  0.7547  0.1671 -0.0701
   91SAPS  H11R 8869   1.890   5.227   7.368 -0.3251 -0.3384 -0.0958
   91SAPS  C212 8870   2.000   5.083   7.474  0.1937  0.4983  0.2054
   91SAPS  H12R 8871   1.985   5.140   7.567  2.7982  1.4337  0.1437
   91SAPS  C213 8872   2.069   4.946   7.496  0.2555 -0.7307 -0.0584
   91SAPS  H13R 8873   2.074   4.888   7.402 -0.9680 -2.6127  0.9855
   91SAPS  H13S 8874   2.010   4.891   7.572  0.4819  1.1819  1.6016
   91SAPS  C214 8875   2.214   4.958   7.544 -0.6206  0.1141 -0.3830
   91SAPS  H14R 8876   2.292   4.998   7.477  0.9428 -1.1559  0.5971
   91SAPS  C215 8877   2.251   4.939   7.675 -0.7614  0.1208 -0.4433
   91SAPS  H15R 8878   2.351   4.975   7.704 -0.7683 -1.0891  1.2490
   91SAPS  C216 8879   2.162   4.905   7.793 -0.4179 -0.2651 -0.5947
   91SAPS  H16R 8880   2.215   4.825   7.849  0.8610  1.2032  0.3751
   91SAPS  H16S 8881   2.068   4.852   7.766  1.0089 -3.4296  0.2031
   91SAPS  C217 8882   2.151   5.024   7.894  0.8443  0.4121  0.3119
   91SAPS  H17R 8883   2.093   5.100   7.837 -2.3049 -2.1656 -0.2404
   91SAPS  H17S 8884   2.253   5.066   7.908  0.5779  1.1861 -0.0091
   91SAPS  C218 8885   2.084   4.998   8.033 -0.2790 -0.1808  0.6020
   91SAPS  H18R 8886   2.131   4.901   8.059  0.0705 -0.2509 -0.2371
   91SAPS  H18S 8887   1.974   4.988   8.021 -0.3557 -0.4791  1.4922
   91SAPS  C219 8888   2.091   5.107   8.137  0.0060 -0.2471  0.3394
   91SAPS  H19R 8889   2.198   5.123   8.162 -0.0922  0.7258  0.1799
   91SAPS  H19S 8890   2.039   5.062   8.225 -0.8927  0.9224  0.4500
   91SAPS  C220 8891   2.027   5.231   8.087 -0.3531 -0.4801 -0.2957
   91SAPS  H20R 8892   2.095   5.293   8.026 -1.7586 -0.6134 -2.0837
   91SAPS  H20S 8893   1.998   5.287   8.179  1.7966  1.2157 -0.5723
   91SAPS  H20T 8894   1.934   5.210   8.030 -0.6300 -3.7486  1.0980
   91SAPS   C33 8895   1.202   4.394   7.041  0.1631 -0.2352  0.3062
   91SAPS   H3X 8896   1.310   4.375   7.021  1.0393  2.4184  2.0086
   91SAPS   H3Y 8897   1.153   4.299   7.072 -2.0638  0.7113 -0.1012
   91SAPS   C34 8898   1.186   4.495   7.156 -0.1033  0.2499  0.3692
   91SAPS   H4X 8899   1.083   4.484   7.195 -0.2085  0.5070  0.1593
   91SAPS   H4Y 8900   1.186   4.601   7.125  0.3486  0.1837  0.1282
   91SAPS   C35 8901   1.284   4.470   7.270 -0.7934 -0.8657  0.4071
   91SAPS   H5X 8902   1.389   4.483   7.236  0.0341 -0.5871  2.8661
   91SAPS   H5Y 8903   1.274   4.374   7.325  0.4676 -0.5497  1.2265
   91SAPS   C36 8904   1.277   4.579   7.382  0.0195 -0.3196 -0.1857
   91SAPS   H6X 8905   1.169   4.586   7.405  0.1421 -2.7368  1.5429
   91SAPS   H6Y 8906   1.300   4.682   7.347  1.9776 -0.5132  0.3928
   91SAPS   C37 8907   1.344   4.556   7.522 -0.5862 -0.1818  0.1205
   91SAPS   H7X 8908   1.454   4.555   7.512 -0.5998 -1.3365  0.0041
   91SAPS   H7Y 8909   1.309   4.459   7.562 -4.0725  0.4755 -1.0103
   91SAPS   C38 8910   1.304   4.677   7.608  0.2333  0.1781 -0.5772
   91SAPS   H8X 8911   1.196   4.692   7.591 -0.1142 -0.6609  0.6978
   91SAPS   H8Y 8912   1.362   4.771   7.594  0.1158  0.6694  1.8087
   91SAPS   C39 8913   1.308   4.635   7.759  0.3380 -0.6537  0.3559
   91SAPS   H9X 8914   1.400   4.580   7.787  1.4397  0.3891 -1.0605
   91SAPS   H9Y 8915   1.220   4.567   7.762  0.8982 -1.5302 -1.5501
   91SAPS  C310 8916   1.294   4.742   7.855  0.4952 -0.1805  0.5448
   91SAPS  H10X 8917   1.205   4.803   7.828  0.8056  0.0835  0.0999
   91SAPS  H10Y 8918   1.381   4.810   7.842 -0.0723  0.1480 -1.9319
   91SAPS  C311 8919   1.269   4.694   7.996 -0.7928 -0.2485 -0.5751
   91SAPS  H11X 8920   1.359   4.646   8.041 -0.1788  0.9057 -0.5283
   91SAPS  H11Y 8921   1.190   4.616   7.998 -1.8231  0.7759 -0.0437
   91SAPS  C312 8922   1.216   4.803   8.085 -0.5589  0.7174  0.0397
   91SAPS  H12X 8923   1.117   4.843   8.057  0.0039  1.8014 -0.4775
   91SAPS  H12Y 8924   1.275   4.897   8.093 -1.5942  1.3522  0.3937
   91SAPS  C313 8925   1.208   4.746   8.227 -0.2289  0.0925 -0.3855
   91SAPS  H13X 8926   1.294   4.678   8.250  1.3919  1.3326 -2.4267
   91SAPS  H13Y 8927   1.116   4.685   8.239  0.5806 -1.1966 -0.4390
   91SAPS  C314 8928   1.188   4.853   8.338 -0.5951 -0.8633  0.7821
   91SAPS  H14X 8929   1.094   4.904   8.308  0.5567  0.5788 -0.5063
   91SAPS  H14Y 8930   1.258   4.939   8.337 -1.6655  0.0768  2.2514
   91SAPS  C315 8931   1.186   4.782   8.472  0.4197 -0.6751  0.3459
   91SAPS  H15X 8932   1.124   4.690   8.460  0.0849 -0.3249 -0.7055
   91SAPS  H15Y 8933   1.128   4.838   8.548 -0.0223  1.3807 -1.4342
   91SAPS  C316 8934   1.325   4.757   8.534 -0.5625 -0.8173  0.1537
   91SAPS  H16X 8935   1.376   4.851   8.562 -1.3847 -0.6193  1.0434
   91SAPS  H16Y 8936   1.376   4.704   8.451 -0.5460  1.5070 -1.4094
   91SAPS  C317 8937   1.304   4.686   8.667 -0.4731 -0.1028  0.1030
   91SAPS  H17X 8938   1.253   4.597   8.625 -3.5273  1.2184  0.7684
   91SAPS  H17Y 8939   1.224   4.738   8.724  0.7920 -1.8963  3.8536
   91SAPS  C318 8940   1.437   4.666   8.742 -0.5597 -0.4195  0.2371
   91SAPS  H18X 8941   1.461   4.756   8.804 -2.4992  0.9477 -0.8846
   91SAPS  H18Y 8942   1.523   4.657   8.672  0.7426  2.2449  1.3287
   91SAPS  H18Z 8943   1.431   4.579   8.811 -0.4800 -0.6142 -0.0013
   92SAPS     N 8944   6.652   2.919   6.361 -0.3597 -0.1577  0.2541
   92SAPS   HN1 8945   6.626   2.838   6.421 -2.5279  0.7404  0.6069
   92SAPS   HN2 8946   6.705   2.991   6.414 -1.5343 -0.3222  1.6972
   92SAPS   HN3 8947   6.562   2.963   6.334  0.2267 -0.0880 -1.7374
   92SAPS   C12 8948   6.728   2.882   6.248  0.1393 -0.4561 -0.2444
   92SAPS  H12A 8949   6.684   2.791   6.211 -1.1228 -0.9779  2.2771
   92SAPS   C13 8950   6.723   2.981   6.126 -0.4913  0.1424  0.5598
   92SAPS  O13A 8951   6.631   3.065   6.126  0.2609 -0.1769  0.1575
   92SAPS  O13B 8952   6.790   2.950   6.021 -0.5500  0.3169 -0.3565
   92SAPS   C11 8953   6.883   2.851   6.280  0.0925 -0.1406 -0.4172
   92SAPS  H11A 8954   6.931   2.817   6.186 -0.6034  1.5396 -1.4418
   92SAPS  H11B 8955   6.890   2.765   6.350  0.8447  0.2146 -0.0421
   92SAPS     P 8956   7.112   2.944   6.367  0.2270 -0.6906 -0.3953
   92SAPS   O13 8957   7.190   2.963   6.244  0.3189 -0.4042 -0.1080
   92SAPS   O14 8958   7.148   3.037   6.482 -0.0523  0.1979  0.4233
   92SAPS   O12 8959   6.955   2.957   6.349  0.3861 -0.6141  0.6223
   92SAPS   O11 8960   7.125   2.794   6.413 -0.0951 -0.1788  1.0383
   92SAPS    C1 8961   7.253   2.748   6.465  0.7040  0.1657  0.2606
   92SAPS    HA 8962   7.292   2.679   6.386 -2.7817 -3.9163  1.7218
   92SAPS    HB 8963   7.336   2.821   6.473  0.9651  0.1449 -1.7134
   92SAPS    C2 8964   7.235   2.678   6.598  0.0317  0.3595  0.2515
   92SAPS    HS 8965   7.177   2.584   6.585 -0.8173  0.7295  1.2076
   92SAPS   O21 8966   7.182   2.764   6.697 -0.2508 -0.3595 -0.7249
   92SAPS   C21 8967   7.053   2.782   6.702  1.2634  0.6617  0.1931
   92SAPS   O22 8968   6.967   2.705   6.654 -0.6575 -0.6940  0.3513
   92SAPS   C22 8969   7.012   2.890   6.799 -1.0081 -0.1230 -0.5015
   92SAPS   H2R 8970   7.019   2.990   6.750  2.1646 -0.8269 -1.7537
   92SAPS   H2S 8971   6.906   2.871   6.823 -1.8529  1.2727 -2.8221
   92SAPS    C3 8972   7.373   2.622   6.641 -0.7767 -0.0520  0.1451
   92SAPS    HX 8973   7.392   2.552   6.557 -1.4118 -0.0941  0.0299
   92SAPS    HY 8974   7.358   2.556   6.730 -0.6628 -0.3104 -0.0253
   92SAPS   O31 8975   7.489   2.708   6.660 -0.3274 -0.2847  0.7048
   92SAPS   C31 8976   7.511   2.754   6.791 -0.0400 -0.2761  0.6030
   92SAPS   O32 8977   7.449   2.709   6.887 -0.3149  0.8688  0.1780
   92SAPS   C32 8978   7.631   2.846   6.794 -0.1036  0.0151 -0.0131
   92SAPS   H2X 8979   7.602   2.953   6.788 -0.2113  0.1007  1.5591
   92SAPS   H2Y 8980   7.696   2.812   6.711  1.4640  0.7360  0.8789
   92SAPS   C23 8981   7.104   2.902   6.925 -0.1594 -0.1033  0.3850
   92SAPS   H3R 8982   7.079   2.990   6.988 -1.1924 -0.8866  1.1067
   92SAPS   H3S 8983   7.210   2.911   6.894 -0.5207  0.0891 -0.8483
   92SAPS   C24 8984   7.101   2.771   7.012 -0.4326  0.0711 -0.1408
   92SAPS   H4R 8985   7.120   2.684   6.946 -3.7131 -0.8100 -0.0835
   92SAPS   H4S 8986   6.994   2.764   7.042 -1.2785  1.3505 -2.5924
   92SAPS   C25 8987   7.203   2.780   7.128  0.1959  0.2680 -0.7211
   92SAPS   H5R 8988   7.308   2.764   7.101  0.7896  3.3079 -0.5789
   92SAPS   C26 8989   7.173   2.831   7.252 -0.1521 -0.2165 -0.3611
   92SAPS   H6R 8990   7.251   2.833   7.329  0.4103 -2.0705 -0.8363
   92SAPS   C27 8991   7.039   2.885   7.300  0.0114 -0.2740  0.4855
   92SAPS   H7R 8992   7.009   2.825   7.388 -0.1898  0.4614  0.9207
   92SAPS   H7S 8993   6.959   2.855   7.229 -0.7618  0.8161  0.8621
   92SAPS   C28 8994   7.037   3.036   7.318  0.0889  0.0981 -0.1224
   92SAPS   H8R 8995   7.038   3.085   7.220  3.0144 -0.8863 -0.6849
   92SAPS   C29 8996   7.034   3.103   7.426  0.4367  0.5600 -0.4340
   92SAPS   H9R 8997   7.044   3.212   7.416  0.5377  0.4357 -1.8872
   92SAPS  C210 8998   7.035   3.029   7.560  0.0179  0.0371  0.2379
   92SAPS  H10R 8999   7.103   2.941   7.554  0.0200  0.0917 -0.6664
   92SAPS  H10S 9000   6.938   2.987   7.591  0.4935 -1.4687 -0.2138
   92SAPS  C211 9001   7.076   3.123   7.675  0.5048  0.5901  1.1655
   92SAPS  H11R 9002   7.140   3.207   7.643  1.1067 -0.7604 -1.4218
   92SAPS  C212 9003   7.043   3.109   7.807 -0.3851 -0.2025 -0.4817
   92SAPS  H12R 9004   7.079   3.187   7.876  0.8496 -0.6810 -0.5487
   92SAPS  C213 9005   6.967   3.002   7.881  0.2299  0.4215  0.1685
   92SAPS  H13R 9006   6.904   2.944   7.811 -1.5076  1.1017  1.1098
   92SAPS  H13S 9007   6.892   3.045   7.950 -1.7424 -3.5569  0.8112
   92SAPS  C214 9008   7.052   2.904   7.959 -0.2081  0.0745  0.0636
   92SAPS  H14R 9009   7.120   2.846   7.896 -2.4980 -2.6704 -0.0511
   92SAPS  C215 9010   7.053   2.880   8.087 -0.5265  0.1243 -0.6969
   92SAPS  H15R 9011   7.128   2.806   8.117 -0.4630  1.0047  1.4663
   92SAPS  C216 9012   6.968   2.948   8.191  0.3351 -0.4281  0.1500
   92SAPS  H16R 9013   6.877   2.993   8.146  1.7392 -0.5381 -3.0556
   92SAPS  H16S 9014   7.019   3.030   8.245  1.6577 -1.3169  0.2878
   92SAPS  C217 9015   6.919   2.855   8.304 -0.1218  0.4669  0.0169
   92SAPS  H17R 9016   7.003   2.820   8.368 -1.8339 -0.3478  1.9355
   92SAPS  H17S 9017   6.873   2.767   8.255  1.0043  0.0523 -0.3237
   92SAPS  C218 9018   6.815   2.919   8.397  0.0687  0.1406  0.0938
   92SAPS  H18R 9019   6.717   2.900   8.350 -0.4980 -1.3369  1.7833
   92SAPS  H18S 9020   6.841   3.025   8.419  0.4930  0.0241  0.1659
   92SAPS  C219 9021   6.813   2.855   8.537  0.5851 -0.3961 -0.3968
   92SAPS  H19R 9022   6.772   2.752   8.535 -1.0059  0.1695  0.9169
   92SAPS  H19S 9023   6.742   2.906   8.605  1.9259 -1.1676  1.6748
   92SAPS  C220 9024   6.942   2.839   8.613  0.2327 -0.7445 -0.1341
   92SAPS  H20R 9025   6.986   2.940   8.611 -1.6596  0.1225 -0.8175
   92SAPS  H20S 9026   7.004   2.762   8.563  1.7016  0.7901 -0.7357
   92SAPS  H20T 9027   6.909   2.804   8.714 -0.8240 -1.8946 -0.8375
   92SAPS   C33 9028   7.712   2.828   6.921  0.2984  0.6121  0.1179
   92SAPS   H3X 9029   7.815   2.864   6.900  0.2335  0.9721  0.4020
   92SAPS   H3Y 9030   7.704   2.725   6.962 -0.4878 -0.3669 -2.3113
   92SAPS   C34 9031   7.664   2.933   7.019 -0.5683  0.0228 -0.4841
   92SAPS   H4X 9032   7.554   2.916   7.013 -0.3307 -1.6069 -0.6164
   92SAPS   H4Y 9033   7.682   3.039   6.990 -1.4573  0.9951  2.1580
   92SAPS   C35 9034   7.693   2.911   7.171 -0.5403  0.6898  0.2869
   92SAPS   H5X 9035   7.635   2.984   7.230 -0.6015 -0.2909  1.4851
   92SAPS   H5Y 9036   7.802   2.932   7.176 -0.2713 -0.7503  0.9223
   92SAPS   C36 9037   7.681   2.760   7.216  0.0201  0.2936 -0.4910
   92SAPS   H6X 9038   7.779   2.718   7.185  0.0797  1.1132 -1.4642
   92SAPS   H6Y 9039   7.596   2.713   7.163 -1.1781 -0.4620  1.9381
   92SAPS   C37 9040   7.660   2.736   7.366  0.3653  0.2777 -0.3215
   92SAPS   H7X 9041   7.730   2.798   7.426  1.8724 -2.4601  0.9092
   92SAPS   H7Y 9042   7.671   2.631   7.400 -1.7178  0.2604  0.4725
   92SAPS   C38 9043   7.513   2.781   7.399 -0.3325 -0.2967  0.3726
   92SAPS   H8X 9044   7.442   2.746   7.321  2.1363  1.8732 -3.1712
   92SAPS   H8Y 9045   7.518   2.892   7.399  3.1047 -0.3502  1.4369
   92SAPS   C39 9046   7.471   2.740   7.543 -0.2931 -0.0692  0.5803
   92SAPS   H9X 9047   7.546   2.668   7.583  0.3282 -0.5659 -1.3471
   92SAPS   H9Y 9048   7.373   2.688   7.539 -1.3082  1.5616  2.3593
   92SAPS  C310 9049   7.460   2.852   7.644  0.1857 -0.2980 -0.9046
   92SAPS  H10X 9050   7.374   2.918   7.620  0.2988 -0.4443 -1.7583
   92SAPS  H10Y 9051   7.554   2.909   7.655  0.1970 -0.2568 -1.1916
   92SAPS  C311 9052   7.438   2.799   7.782 -0.0745  0.7906 -0.2012
   92SAPS  H11X 9053   7.490   2.703   7.802 -0.4680  0.4376 -0.8351
   92SAPS  H11Y 9054   7.332   2.772   7.804 -0.6009  1.4658 -1.7254
   92SAPS  C312 9055   7.489   2.900   7.894  0.4104 -0.1932  0.4707
   92SAPS  H12X 9056   7.452   3.003   7.870 -0.1500 -0.9144 -2.0726
   92SAPS  H12Y 9057   7.600   2.900   7.883  0.5510  0.7954  1.6376
   92SAPS  C313 9058   7.459   2.862   8.037  0.0393 -0.2987  0.0212
   92SAPS  H13X 9059   7.354   2.864   8.075 -0.5612 -0.1057 -1.5924
   92SAPS  H13Y 9060   7.520   2.927   8.103  0.4910 -0.5161 -0.1788
   92SAPS  C314 9061   7.512   2.719   8.061 -0.1354 -0.2770 -0.1635
   92SAPS  H14X 9062   7.614   2.703   8.022 -0.0169 -0.5136  0.2335
   92SAPS  H14Y 9063   7.450   2.644   8.007 -1.0214  1.4527 -1.6602
   92SAPS  C315 9064   7.511   2.699   8.217 -0.3313 -0.8439 -0.0515
   92SAPS  H15X 9065   7.531   2.798   8.263 -0.8657 -0.7676  0.0266
   92SAPS  H15Y 9066   7.592   2.630   8.248 -0.4577  0.0390  2.4990
   92SAPS  C316 9067   7.370   2.644   8.253 -0.3184 -0.2356  0.0838
   92SAPS  H16X 9068   7.340   2.565   8.180  1.8840 -2.4063  1.3906
   92SAPS  H16Y 9069   7.306   2.735   8.256 -0.3521 -0.2916  2.6536
   92SAPS  C317 9070   7.365   2.591   8.400  0.2236  0.0511  1.0624
   92SAPS  H17X 9071   7.262   2.555   8.419 -1.0072  2.9506  0.5300
   92SAPS  H17Y 9072   7.394   2.667   8.475 -0.4710  0.4297  0.9621
   92SAPS  C318 9073   7.456   2.468   8.425 -0.5041  0.3229 -0.6874
   92SAPS  H18X 9074   7.420   2.380   8.367  2.6494 -1.7142  0.2014
   92SAPS  H18Y 9075   7.462   2.453   8.535 -0.4943  1.2984 -0.5529
   92SAPS  H18Z 9076   7.559   2.493   8.393  0.2085  1.8040  2.4301
   93SAPS     N 9077   2.061   2.799   6.247 -0.3048  0.0044  0.6794
   93SAPS   HN1 9078   2.062   2.725   6.320 -0.6283 -1.0718 -0.3727
   93SAPS   HN2 9079   2.051   2.897   6.277  0.9197  0.7548 -1.1570
   93SAPS   HN3 9080   1.973   2.766   6.201  0.7614 -1.8617 -0.1318
   93SAPS   C12 9081   2.169   2.785   6.146 -0.5413 -0.6264 -1.1184
   93SAPS  H12A 9082   2.167   2.698   6.083 -2.1353 -0.0175 -1.9710
   93SAPS   C13 9083   2.188   2.902   6.047 -0.3757  0.1722 -0.0835
   93SAPS  O13A 9084   2.095   2.990   6.041 -0.2199  0.3032  0.5140
   93SAPS  O13B 9085   2.286   2.905   5.973 -0.1136  0.1398 -0.0775
   93SAPS   C11 9086   2.300   2.782   6.223  0.3156 -0.3446  0.5257
   93SAPS  H11A 9087   2.312   2.876   6.280  1.7533  0.0781 -0.4289
   93SAPS  H11B 9088   2.380   2.777   6.147  0.8883 -2.4354  1.1957
   93SAPS     P 9089   2.435   2.657   6.414  0.5416  0.3825  0.0519
   93SAPS   O13 9090   2.442   2.517   6.460 -0.8917  0.0935  0.1579
   93SAPS   O14 9091   2.562   2.712   6.368 -0.4250 -0.1460 -0.5322
   93SAPS   O12 9092   2.319   2.665   6.304 -0.1015 -0.5326 -0.3456
   93SAPS   O11 9093   2.382   2.751   6.535  0.1922 -0.6904  0.2704
   93SAPS    C1 9094   2.241   2.753   6.560 -0.5673  0.0774 -0.0772
   93SAPS    HA 9095   2.187   2.817   6.488  1.3532  0.8323 -0.9079
   93SAPS    HB 9096   2.203   2.648   6.562 -0.0004 -0.1324 -0.2404
   93SAPS    C2 9097   2.205   2.819   6.700  0.2758 -0.9935 -0.6316
   93SAPS    HS 9098   2.094   2.810   6.703  0.2502 -0.6423 -0.4017
   93SAPS   O21 9099   2.241   2.964   6.692  0.0750  0.8700  0.1022
   93SAPS   C21 9100   2.224   3.037   6.798  0.3133  1.1085 -0.0076
   93SAPS   O22 9101   2.161   3.004   6.896  0.9710  0.2895  0.1409
   93SAPS   C22 9102   2.266   3.183   6.765 -0.2262 -0.6182 -0.0012
   93SAPS   H2R 9103   2.350   3.184   6.693  0.9484 -1.5640  1.2893
   93SAPS   H2S 9104   2.186   3.242   6.715 -2.4008 -1.2639  2.4677
   93SAPS    C3 9105   2.269   2.740   6.818 -0.8368 -0.6079 -0.4106
   93SAPS    HX 9106   2.214   2.643   6.824 -0.7911 -0.5615  1.3651
   93SAPS    HY 9107   2.250   2.793   6.913  1.1682  0.9555 -0.8223
   93SAPS   O31 9108   2.417   2.726   6.807  0.2372 -0.4668 -0.3921
   93SAPS   C31 9109   2.463   2.610   6.796 -0.0208  0.1401  0.2993
   93SAPS   O32 9110   2.401   2.504   6.826  0.0481  0.2346 -0.3464
   93SAPS   C32 9111   2.611   2.617   6.756 -0.0037 -0.6292 -0.3574
   93SAPS   H2X 9112   2.643   2.723   6.746  3.3635 -1.3242  1.5458
   93SAPS   H2Y 9113   2.615   2.575   6.653 -0.1070  1.4495 -1.2781
   93SAPS   C23 9114   2.319   3.264   6.885 -0.1477 -0.2236  0.0797
   93SAPS   H3R 9115   2.262   3.273   6.980  2.4866  1.4137  1.6430
   93SAPS   H3S 9116   2.330   3.363   6.836 -0.2598  0.0807  0.6525
   93SAPS   C24 9117   2.465   3.220   6.926  0.5108  0.7933 -0.2107
   93SAPS   H4R 9118   2.506   3.285   7.006  0.2701 -0.5826  1.0926
   93SAPS   H4S 9119   2.519   3.245   6.832  3.8539  0.7398  1.5342
   93SAPS   C25 9120   2.495   3.077   6.965 -0.4136 -0.9737  0.5235
   93SAPS   H5R 9121   2.540   3.012   6.889 -2.1559  0.1765 -1.6359
   93SAPS   C26 9122   2.453   3.014   7.077  0.0598  0.1552 -0.8151
   93SAPS   H6R 9123   2.490   2.912   7.096  0.9859  0.3300 -1.5935
   93SAPS   C27 9124   2.381   3.084   7.194  0.6363  0.4739  0.1933
   93SAPS   H7R 9125   2.325   3.177   7.165  0.3574  0.1534 -0.3201
   93SAPS   H7S 9126   2.458   3.110   7.268  0.9748  1.5859 -0.5194
   93SAPS   C28 9127   2.275   2.996   7.251  0.3027  0.3608  0.0444
   93SAPS   H8R 9128   2.186   2.989   7.185  0.8145  2.6499 -0.9828
   93SAPS   C29 9129   2.279   2.918   7.365 -0.2976  0.4729  0.5950
   93SAPS   H9R 9130   2.188   2.863   7.392  0.7557 -0.9692  1.4009
   93SAPS  C210 9131   2.394   2.918   7.467  0.0253  1.1103 -0.1269
   93SAPS  H10R 9132   2.387   3.005   7.536 -0.1113  0.0046  1.3269
   93SAPS  H10S 9133   2.490   2.937   7.415  0.7982 -1.0867  0.3701
   93SAPS  C211 9134   2.401   2.794   7.541  0.3271 -0.4262 -0.1860
   93SAPS  H11R 9135   2.417   2.702   7.482 -0.8111 -1.0663  0.4556
   93SAPS  C212 9136   2.397   2.783   7.675  0.4763  0.0881 -0.6814
   93SAPS  H12R 9137   2.400   2.682   7.719  2.2015  0.9266  1.2813
   93SAPS  C213 9138   2.385   2.888   7.779  0.8315 -0.4169  0.4988
   93SAPS  H13R 9139   2.314   2.962   7.737  1.2845 -0.0028  0.4447
   93SAPS  H13S 9140   2.484   2.934   7.802  0.2029  1.2550 -0.0245
   93SAPS  C214 9141   2.330   2.822   7.904  0.6932  0.1908 -0.6367
   93SAPS  H14R 9142   2.235   2.768   7.892  0.3897  0.3785  0.7688
   93SAPS  C215 9143   2.389   2.833   8.024 -0.4351  0.1529 -0.0645
   93SAPS  H15R 9144   2.349   2.787   8.116  0.2947 -1.2551 -0.4323
   93SAPS  C216 9145   2.510   2.914   8.059  0.3045  0.6728 -0.1202
   93SAPS  H16R 9146   2.482   3.018   8.032 -0.2479  0.8644  1.1496
   93SAPS  H16S 9147   2.589   2.890   7.984  0.7909  0.9688  0.2966
   93SAPS  C217 9148   2.557   2.899   8.207 -0.0696 -0.1080 -1.4066
   93SAPS  H17R 9149   2.657   2.948   8.219  0.2985 -1.3962  1.8187
   93SAPS  H17S 9150   2.557   2.795   8.244 -1.7708  0.2300 -0.3543
   93SAPS  C218 9151   2.460   2.969   8.311  0.1570  0.0567  0.0751
   93SAPS  H18R 9152   2.364   2.914   8.303  0.2280 -0.1652  0.6865
   93SAPS  H18S 9153   2.451   3.074   8.276  1.5152  1.3880  3.2228
   93SAPS  C219 9154   2.515   2.953   8.451 -0.0899  0.2630 -0.9732
   93SAPS  H19R 9155   2.490   2.853   8.492  0.3341 -0.0484 -1.4659
   93SAPS  H19S 9156   2.457   3.019   8.518  1.4268  1.4341 -0.7657
   93SAPS  C220 9157   2.663   2.984   8.482  0.0759 -0.2360  0.5041
   93SAPS  H20R 9158   2.678   2.991   8.592 -3.0875  0.7257  0.9572
   93SAPS  H20S 9159   2.706   3.078   8.443 -0.4932 -0.4163 -0.5858
   93SAPS  H20T 9160   2.722   2.894   8.452 -1.6638 -1.6715  1.1814
   93SAPS   C33 9161   2.708   2.576   6.863 -0.1030 -0.6066  0.0326
   93SAPS   H3X 9162   2.812   2.606   6.836  0.1498 -1.8113 -0.3994
   93SAPS   H3Y 9163   2.704   2.465   6.872  0.6184 -0.6619 -0.2408
   93SAPS   C34 9164   2.668   2.640   6.992 -0.2616  0.2326  0.1190
   93SAPS   H4X 9165   2.586   2.572   7.023  0.6444 -0.5919  0.7726
   93SAPS   H4Y 9166   2.622   2.739   6.973 -1.7063 -0.7326 -1.8259
   93SAPS   C35 9167   2.780   2.661   7.104  0.5888 -0.7112 -0.0519
   93SAPS   H5X 9168   2.873   2.676   7.044  0.7077 -2.0653 -0.2280
   93SAPS   H5Y 9169   2.785   2.564   7.156  2.8002  0.4000  2.0307
   93SAPS   C36 9170   2.750   2.789   7.192 -0.5071  0.5456 -0.1100
   93SAPS   H6X 9171   2.656   2.781   7.251 -1.2185 -0.0412 -1.2675
   93SAPS   H6Y 9172   2.756   2.870   7.116  4.0480 -0.7485 -1.4775
   93SAPS   C37 9173   2.860   2.825   7.296  0.3676 -0.6921  0.1836
   93SAPS   H7X 9174   2.844   2.917   7.355 -0.5895 -0.2547 -0.7274
   93SAPS   H7Y 9175   2.955   2.843   7.242  1.6960 -2.2064  1.8850
   93SAPS   C38 9176   2.884   2.709   7.392 -0.1880 -0.0702  0.5269
   93SAPS   H8X 9177   2.991   2.723   7.419 -0.7609  3.0289  1.5502
   93SAPS   H8Y 9178   2.885   2.613   7.336 -0.8665 -0.7411  1.6314
   93SAPS   C39 9179   2.797   2.721   7.516  0.1798  0.0946 -0.0843
   93SAPS   H9X 9180   2.695   2.677   7.514  0.5992 -1.0342  1.6762
   93SAPS   H9Y 9181   2.793   2.829   7.542  0.1571  0.2561 -0.7516
   93SAPS  C310 9182   2.862   2.651   7.638 -0.6640  0.4267  1.0806
   93SAPS  H10X 9183   2.971   2.673   7.637 -0.1681 -1.7596 -0.8197
   93SAPS  H10Y 9184   2.861   2.542   7.615  1.3049  0.5768  0.0507
   93SAPS  C311 9185   2.788   2.671   7.763 -0.1760  0.8698 -0.2032
   93SAPS  H11X 9186   2.679   2.653   7.764 -0.2399  1.0075 -1.9919
   93SAPS  H11Y 9187   2.802   2.778   7.789 -2.8164  0.9970  0.9323
   93SAPS  C312 9188   2.843   2.586   7.881  0.4768  1.3403  0.2912
   93SAPS  H12X 9189   2.954   2.580   7.885  0.5362  0.2965 -1.6986
   93SAPS  H12Y 9190   2.797   2.486   7.873 -0.2726  1.7532 -0.7366
   93SAPS  C313 9191   2.794   2.657   8.002 -0.0977 -0.1820  0.0323
   93SAPS  H13X 9192   2.683   2.654   7.999 -0.1595 -0.1369  1.4511
   93SAPS  H13Y 9193   2.836   2.760   8.007  0.3727 -0.2614 -1.6651
   93SAPS  C314 9194   2.847   2.579   8.129  0.2129  0.3381  0.5132
   93SAPS  H14X 9195   2.958   2.577   8.123  0.1918  0.3250  0.0649
   93SAPS  H14Y 9196   2.819   2.472   8.134 -0.7583  0.4261 -1.7268
   93SAPS  C315 9197   2.813   2.634   8.266 -0.2276 -0.5218 -1.0855
   93SAPS  H15X 9198   2.703   2.650   8.269  0.0839  1.8742  0.2774
   93SAPS  H15Y 9199   2.857   2.735   8.280  0.0519 -1.0266  3.2897
   93SAPS  C316 9200   2.843   2.554   8.394 -0.5070  0.6195  0.3530
   93SAPS  H16X 9201   2.797   2.453   8.401  1.1527 -0.1253  0.9432
   93SAPS  H16Y 9202   2.782   2.594   8.479 -1.0029 -2.4765  1.5753
   93SAPS  C317 9203   2.995   2.556   8.430  0.0155  0.1731 -0.4856
   93SAPS  H17X 9204   3.026   2.662   8.438  1.8982 -0.3212 -0.7998
   93SAPS  H17Y 9205   3.052   2.504   8.350  0.0659 -1.2937  0.4522
   93SAPS  C318 9206   3.022   2.489   8.563 -0.1791  0.5018 -0.0059
   93SAPS  H18X 9207   3.122   2.517   8.601 -0.3550 -2.8358  3.5982
   93SAPS  H18Y 9208   3.018   2.378   8.565  0.1826  0.4901  0.0741
   93SAPS  H18Z 9209   2.949   2.516   8.642 -3.1887  0.6335 -2.6469
   94SAPS     N 9210   3.029   5.214   6.155  0.3385 -0.4381 -0.9368
   94SAPS   HN1 9211   3.010   5.315   6.172  1.3131 -0.4509  0.4252
   94SAPS   HN2 9212   2.938   5.166   6.167  0.2388 -0.1991 -0.7329
   94SAPS   HN3 9213   3.086   5.180   6.236 -1.2725  1.5602  1.1824
   94SAPS   C12 9214   3.080   5.208   6.014 -0.3213  0.0894  0.0060
   94SAPS  H12A 9215   3.113   5.107   5.994 -2.2881 -0.3414 -1.3978
   94SAPS   C13 9216   2.963   5.229   5.908  0.1307  0.0214  0.0890
   94SAPS  O13A 9217   2.840   5.244   5.948  0.0480  0.2996 -0.0357
   94SAPS  O13B 9218   2.982   5.221   5.781 -0.4119 -0.2013 -0.3414
   94SAPS   C11 9219   3.196   5.306   5.992 -0.2955 -0.1613 -0.7402
   94SAPS  H11A 9220   3.259   5.275   5.906  1.1704  1.8769 -0.4819
   94SAPS  H11B 9221   3.260   5.287   6.081 -2.1850 -1.1491  0.4719
   94SAPS     P 9222   3.124   5.547   6.085  0.3888  0.0298 -0.2810
   94SAPS   O13 9223   3.236   5.566   6.180 -0.0631  0.1553 -0.3358
   94SAPS   O14 9224   3.058   5.672   6.027  0.2173 -0.1306  0.4286
   94SAPS   O12 9225   3.168   5.443   5.976 -0.4633  0.0061  0.0440
   94SAPS   O11 9226   3.008   5.473   6.169  0.3057 -0.2052 -0.5980
   94SAPS    C1 9227   2.932   5.555   6.260 -0.6951 -0.1274  0.8297
   94SAPS    HA 9228   2.999   5.604   6.334 -0.4801  0.6154  0.1473
   94SAPS    HB 9229   2.884   5.637   6.202 -0.4767 -1.8205 -1.9361
   94SAPS    C2 9230   2.836   5.480   6.343  0.2143  0.9600 -0.3990
   94SAPS    HS 9231   2.794   5.549   6.420 -0.7514 -1.7558  1.6912
   94SAPS   O21 9232   2.887   5.365   6.424  0.6889  0.0798 -0.0506
   94SAPS   C21 9233   2.954   5.397   6.538  0.9310 -0.7340 -0.5805
   94SAPS   O22 9234   2.987   5.513   6.569  0.2054  0.0065 -0.4851
   94SAPS   C22 9235   2.977   5.270   6.614 -0.7328  0.0533 -0.2222
   94SAPS   H2R 9236   3.042   5.203   6.553  2.0091  1.4867  0.9042
   94SAPS   H2S 9237   3.034   5.296   6.706  0.9060 -2.1041 -0.5327
   94SAPS    C3 9238   2.711   5.433   6.251  0.4936 -0.1009 -0.6545
   94SAPS    HX 9239   2.757   5.371   6.171 -0.4857 -1.0126 -0.5428
   94SAPS    HY 9240   2.672   5.527   6.207 -2.5377 -0.1052  1.7066
   94SAPS   O31 9241   2.608   5.348   6.319 -0.3471 -0.1957 -0.4994
   94SAPS   C31 9242   2.537   5.409   6.410 -0.5875 -0.8839 -0.3069
   94SAPS   O32 9243   2.539   5.526   6.441 -0.1009  0.4378 -0.1799
   94SAPS   C32 9244   2.444   5.305   6.481  0.0480 -0.3594 -0.0810
   94SAPS   H2X 9245   2.511   5.245   6.545 -0.9185 -1.3015  0.0796
   94SAPS   H2Y 9246   2.401   5.238   6.403  2.4330  0.6808 -2.4367
   94SAPS   C23 9247   2.856   5.187   6.666  0.6669  0.0052  0.0087
   94SAPS   H3R 9248   2.880   5.085   6.701 -1.1320 -0.3987  0.1417
   94SAPS   H3S 9249   2.790   5.164   6.580 -0.1024 -2.1213  1.0991
   94SAPS   C24 9250   2.785   5.258   6.784  0.7888  0.4430  0.2451
   94SAPS   H4R 9251   2.741   5.355   6.756 -1.0853 -0.3399  0.3140
   94SAPS   H4S 9252   2.863   5.278   6.861  0.6966  0.6124  0.2945
   94SAPS   C25 9253   2.681   5.169   6.832 -0.1079 -0.5332 -0.2643
   94SAPS   H5R 9254   2.635   5.100   6.759  1.3137 -0.9712 -0.7903
   94SAPS   C26 9255   2.636   5.165   6.956  0.2489 -0.5601  0.1590
   94SAPS   H6R 9256   2.554   5.093   6.970 -0.8472  0.5047 -0.5822
   94SAPS   C27 9257   2.662   5.245   7.082  0.1650 -0.3675  0.1703
   94SAPS   H7R 9258   2.567   5.257   7.138  0.0504  2.5049 -0.5016
   94SAPS   H7S 9259   2.706   5.343   7.053  0.4575 -0.3696  0.6005
   94SAPS   C28 9260   2.760   5.167   7.166  0.1539 -0.2007  0.3233
   94SAPS   H8R 9261   2.844   5.129   7.105  0.1388  1.6188 -0.8966
   94SAPS   C29 9262   2.747   5.129   7.296  0.0216  0.0861  0.6135
   94SAPS   H9R 9263   2.820   5.063   7.346 -0.5110 -0.4856  0.6404
   94SAPS  C210 9264   2.618   5.164   7.374 -0.1140  0.2287  0.0090
   94SAPS  H10R 9265   2.533   5.123   7.316 -0.2650  1.0495 -0.3583
   94SAPS  H10S 9266   2.611   5.275   7.373 -0.6868  0.1949 -0.4861
   94SAPS  C211 9267   2.604   5.099   7.503  0.0377  0.6664  0.4280
   94SAPS  H11R 9268   2.572   4.994   7.493  1.3692  0.1997  0.8419
   94SAPS  C212 9269   2.639   5.146   7.623 -0.1264 -0.9404  0.7269
   94SAPS  H12R 9270   2.617   5.073   7.702 -0.8995 -2.3010 -0.6791
   94SAPS  C213 9271   2.703   5.274   7.664  0.2766 -0.1425  0.1852
   94SAPS  H13R 9272   2.666   5.334   7.750  1.4062 -0.0771  0.6401
   94SAPS  H13S 9273   2.687   5.343   7.579 -2.0286  1.2363  1.6166
   94SAPS  C214 9274   2.846   5.242   7.684 -0.7157  0.9040  0.5000
   94SAPS  H14R 9275   2.917   5.288   7.615  0.2166 -2.3321 -0.8861
   94SAPS  C215 9276   2.906   5.158   7.773 -0.1575 -0.1752  0.0340
   94SAPS  H15R 9277   3.014   5.150   7.757 -0.1283  2.9362 -2.2704
   94SAPS  C216 9278   2.831   5.083   7.886  0.2496  0.1264  0.1003
   94SAPS  H16R 9279   2.828   4.974   7.868 -1.6403  0.3317 -1.1333
   94SAPS  H16S 9280   2.725   5.117   7.889  0.1838  0.0586 -1.1611
   94SAPS  C217 9281   2.894   5.097   8.026 -0.7353 -0.5886  0.1693
   94SAPS  H17R 9282   2.873   5.201   8.057  1.6065  1.1382 -3.4141
   94SAPS  H17S 9283   3.004   5.094   8.011 -0.4873  1.7622  1.0660
   94SAPS  C218 9284   2.843   5.010   8.137 -0.3182 -0.3357  0.0117
   94SAPS  H18R 9285   2.855   4.906   8.101 -0.5216 -0.5194  0.4629
   94SAPS  H18S 9286   2.733   5.019   8.149 -0.3841 -0.1349 -0.7133
   94SAPS  C219 9287   2.912   5.032   8.270 -0.1495  0.3229 -0.9439
   94SAPS  H19R 9288   2.882   5.126   8.322 -0.6302 -0.7601  0.8124
   94SAPS  H19S 9289   3.022   5.041   8.256  0.3479  0.5867  2.3194
   94SAPS  C220 9290   2.886   4.920   8.377 -0.5461  0.1544  0.3797
   94SAPS  H20R 9291   2.953   4.936   8.465  2.9232 -2.3678 -1.5472
   94SAPS  H20S 9292   2.925   4.821   8.343 -0.2986  0.7877 -1.2546
   94SAPS  H20T 9293   2.776   4.927   8.393 -0.7750  3.7701 -1.8421
   94SAPS   C33 9294   2.344   5.372   6.575 -0.9941  0.4035 -0.0865
   94SAPS   H3X 9295   2.262   5.299   6.592  0.2970 -1.2644 -0.6689
   94SAPS   H3Y 9296   2.301   5.466   6.535 -1.1049  1.1088  1.6021
   94SAPS   C34 9297   2.401   5.411   6.711  0.8128  0.0205  0.0741
   94SAPS   H4X 9298   2.476   5.492   6.697  1.2369 -0.7709 -2.9450
   94SAPS   H4Y 9299   2.447   5.320   6.754 -1.2536 -1.4775 -0.7090
   94SAPS   C35 9300   2.296   5.462   6.816  0.1906 -0.5614 -0.3209
   94SAPS   H5X 9301   2.210   5.395   6.835  0.5023 -0.4311  1.6718
   94SAPS   H5Y 9302   2.256   5.561   6.786 -1.7287 -0.4216  2.3841
   94SAPS   C36 9303   2.370   5.483   6.955 -0.3812  0.0733  0.9122
   94SAPS   H6X 9304   2.416   5.583   6.941 -0.2216 -0.3905 -2.8051
   94SAPS   H6Y 9305   2.438   5.395   6.957 -0.9660 -0.4184  3.9947
   94SAPS   C37 9306   2.282   5.488   7.075  0.0970  0.4608  0.4613
   94SAPS   H7X 9307   2.252   5.381   7.083  0.7691  0.0772 -1.5791
   94SAPS   H7Y 9308   2.199   5.557   7.052 -0.5296 -0.7073 -0.9847
   94SAPS   C38 9309   2.362   5.521   7.198  0.0042  0.3413  0.0840
   94SAPS   H8X 9310   2.419   5.616   7.195  1.9504 -0.7983 -1.9438
   94SAPS   H8Y 9311   2.439   5.441   7.202 -1.2449 -0.8781  0.8367
   94SAPS   C39 9312   2.276   5.508   7.316 -0.2246 -0.7253  0.2031
   94SAPS   H9X 9313   2.219   5.414   7.307  1.7519 -1.8813 -1.0207
   94SAPS   H9Y 9314   2.202   5.590   7.319  1.9008  1.4324 -1.7157
   94SAPS  C310 9315   2.357   5.504   7.443 -0.0075  0.0776  0.2230
   94SAPS  H10X 9316   2.419   5.595   7.459  0.4869 -0.0055 -1.1189
   94SAPS  H10Y 9317   2.423   5.415   7.441 -0.4476 -0.2569 -2.0352
   94SAPS  C311 9318   2.268   5.487   7.568  0.4628 -1.0634  0.7516
   94SAPS  H11X 9319   2.182   5.422   7.541 -1.3921  1.2230  0.8692
   94SAPS  H11Y 9320   2.226   5.588   7.585 -0.9841 -1.2051 -1.5282
   94SAPS  C312 9321   2.356   5.447   7.687 -0.0251 -0.1644 -0.2192
   94SAPS  H12X 9322   2.446   5.512   7.683 -0.1211  0.2398  2.4194
   94SAPS  H12Y 9323   2.386   5.340   7.674 -0.5844 -0.7132  2.3246
   94SAPS  C313 9324   2.289   5.458   7.823  0.2867 -0.1322 -0.3972
   94SAPS  H13X 9325   2.220   5.371   7.832  1.1366 -1.0147 -2.1185
   94SAPS  H13Y 9326   2.225   5.549   7.823  1.6210  0.8377 -1.2611
   94SAPS  C314 9327   2.385   5.450   7.951  0.4555 -0.1696 -0.1044
   94SAPS  H14X 9328   2.329   5.501   8.033  0.6219  0.3727 -0.3221
   94SAPS  H14Y 9329   2.479   5.504   7.927  1.9094 -3.0716 -1.5462
   94SAPS  C315 9330   2.413   5.308   7.995  0.0826  0.3622 -0.1030
   94SAPS  H15X 9331   2.414   5.245   7.903  2.3283 -1.1387  0.8573
   94SAPS  H15Y 9332   2.340   5.276   8.072  1.3220 -1.6777  0.3009
   94SAPS  C316 9333   2.548   5.285   8.058 -0.3533  0.0437 -0.1287
   94SAPS  H16X 9334   2.630   5.297   7.983 -0.2425 -0.1574 -0.0407
   94SAPS  H16Y 9335   2.561   5.183   8.101  0.8319 -0.1573 -0.9089
   94SAPS  C317 9336   2.565   5.374   8.185 -0.0957  0.9184 -0.1852
   94SAPS  H17X 9337   2.471   5.360   8.241 -1.3123  1.1961 -2.0636
   94SAPS  H17Y 9338   2.554   5.473   8.136 -0.3353  1.0729  0.1837
   94SAPS  C318 9339   2.697   5.347   8.266  0.2181 -0.0785  0.0093
   94SAPS  H18X 9340   2.696   5.242   8.303 -0.3026 -0.0200  0.1703
   94SAPS  H18Y 9341   2.717   5.408   8.357 -0.9018 -0.2858  0.4054
   94SAPS  H18Z 9342   2.778   5.376   8.195  1.7231 -0.2485  1.5761
   95SAPS     N 9343   5.566   4.189   6.126 -0.3468  0.1508  0.0998
   95SAPS   HN1 9344   5.473   4.157   6.159 -0.5652 -0.8870 -1.3783
   95SAPS   HN2 9345   5.597   4.098   6.086 -1.0219 -0.3370  0.6692
   95SAPS   HN3 9346   5.625   4.209   6.209 -1.1793 -2.0716  1.3012
   95SAPS   C12 9347   5.558   4.299   6.033  0.8091  0.8758  0.2374
   95SAPS  H12A 9348   5.658   4.308   5.993  2.1244  3.0360  3.5969
   95SAPS   C13 9349   5.449   4.274   5.928  0.4767 -0.4680  0.3039
   95SAPS  O13A 9350   5.386   4.164   5.928  0.3076  0.6818 -0.1027
   95SAPS  O13B 9351   5.440   4.347   5.824  0.4161  0.6220 -0.2784
   95SAPS   C11 9352   5.507   4.423   6.108  0.2039  0.2616 -0.1620
   95SAPS  H11A 9353   5.403   4.406   6.144  0.1012  0.6019 -0.2924
   95SAPS  H11B 9354   5.489   4.504   6.034 -2.4686  1.7807  2.0093
   95SAPS     P 9355   5.571   4.586   6.294  0.0324 -0.2220 -0.1195
   95SAPS   O13 9356   5.701   4.637   6.342  0.1455 -0.3794 -0.2910
   95SAPS   O14 9357   5.481   4.681   6.224 -0.1037 -0.3147 -0.3854
   95SAPS   O12 9358   5.599   4.453   6.206  0.6093  0.4649 -0.3096
   95SAPS   O11 9359   5.504   4.530   6.418 -0.1677  0.0089 -0.4292
   95SAPS    C1 9360   5.534   4.395   6.458 -0.3507  0.8008  0.2682
   95SAPS    HA 9361   5.495   4.308   6.401 -1.7629  0.2549  2.0015
   95SAPS    HB 9362   5.644   4.382   6.458 -0.5553 -2.3741 -2.7729
   95SAPS    C2 9363   5.501   4.362   6.606  0.5532 -0.0130 -0.1483
   95SAPS    HS 9364   5.390   4.358   6.616  0.1266  2.7596 -2.4376
   95SAPS   O21 9365   5.556   4.467   6.698  0.0366 -0.2684 -0.3397
   95SAPS   C21 9366   5.498   4.585   6.704  0.2489 -0.4750  1.1198
   95SAPS   O22 9367   5.385   4.616   6.660  0.0704  0.1534 -0.0693
   95SAPS   C22 9368   5.588   4.683   6.785 -0.5231  0.1306 -0.1891
   95SAPS   H2R 9369   5.619   4.618   6.870  2.3928 -1.2310 -2.1386
   95SAPS   H2S 9370   5.670   4.717   6.718  0.8353  0.4610  1.5596
   95SAPS    C3 9371   5.562   4.228   6.642 -0.2751  1.4660 -0.1711
   95SAPS    HX 9372   5.672   4.234   6.626  0.0213  1.4552  1.5732
   95SAPS    HY 9373   5.518   4.167   6.561 -2.9726  1.6160  1.0706
   95SAPS   O31 9374   5.524   4.169   6.762  0.4857  0.0039 -0.8771
   95SAPS   C31 9375   5.596   4.208   6.867  0.7827  0.3616  0.0870
   95SAPS   O32 9376   5.693   4.280   6.860 -0.3626  0.2929  0.6509
   95SAPS   C32 9377   5.542   4.131   6.988 -0.7509  0.1392  0.4371
   95SAPS   H2X 9378   5.583   4.028   6.987  1.2651  0.8867 -0.8284
   95SAPS   H2Y 9379   5.432   4.116   6.980 -0.4684 -2.8578  1.1166
   95SAPS   C23 9380   5.521   4.816   6.831 -0.1815  0.2732 -0.6002
   95SAPS   H3R 9381   5.460   4.791   6.920  1.4854 -1.3120  0.1800
   95SAPS   H3S 9382   5.448   4.857   6.759 -0.9615  1.1369  0.6394
   95SAPS   C24 9383   5.629   4.905   6.872 -0.9894 -0.8474 -0.4620
   95SAPS   H4R 9384   5.694   4.934   6.786 -1.4348  1.2753 -0.1349
   95SAPS   H4S 9385   5.696   4.844   6.937  1.0953  0.3605 -1.3610
   95SAPS   C25 9386   5.600   5.031   6.950  0.0256  0.7403 -0.0743
   95SAPS   H5R 9387   5.495   5.062   6.952 -0.3305 -0.4412  0.2922
   95SAPS   C26 9388   5.680   5.105   7.040  0.2866  0.4871  0.2798
   95SAPS   H6R 9389   5.635   5.198   7.080 -0.3987  0.2286  0.1297
   95SAPS   C27 9390   5.826   5.080   7.072 -0.3084 -0.3776  0.6567
   95SAPS   H7R 9391   5.855   4.987   7.019 -0.0081  0.5103 -0.7926
   95SAPS   H7S 9392   5.831   5.049   7.179  0.5876 -0.7535  0.5215
   95SAPS   C28 9393   5.926   5.189   7.036 -0.3020  0.1789  0.1767
   95SAPS   H8R 9394   5.952   5.205   6.930  1.5355  4.5169  1.0672
   95SAPS   C29 9395   5.984   5.270   7.128 -0.2167 -0.0392  0.4613
   95SAPS   H9R 9396   6.055   5.348   7.098 -1.8319  2.0127  1.7374
   95SAPS  C210 9397   5.958   5.266   7.273 -0.4611  0.5452 -0.6639
   95SAPS  H10R 9398   6.055   5.280   7.325 -0.6337  1.3604 -0.5552
   95SAPS  H10S 9399   5.916   5.170   7.310 -1.0480  0.8406 -0.5437
   95SAPS  C211 9400   5.871   5.374   7.335 -0.1617  0.3876  0.3904
   95SAPS  H11R 9401   5.785   5.394   7.270 -0.1936  0.2704  0.3962
   95SAPS  C212 9402   5.895   5.452   7.441 -0.2394 -0.2082 -0.6033
   95SAPS  H12R 9403   5.827   5.535   7.465  0.8700  0.5576 -0.0364
   95SAPS  C213 9404   6.015   5.432   7.533 -0.2907 -0.0665  0.5790
   95SAPS  H13R 9405   6.022   5.529   7.587 -0.2133  0.2065  0.0868
   95SAPS  H13S 9406   6.107   5.423   7.472 -1.2781 -2.8292 -0.6815
   95SAPS  C214 9407   5.996   5.313   7.627 -0.3969 -0.1259  0.7156
   95SAPS  H14R 9408   5.986   5.216   7.576  0.5928  0.2031 -0.1400
   95SAPS  C215 9409   6.010   5.312   7.761  0.7999 -0.4854  0.2808
   95SAPS  H15R 9410   5.972   5.228   7.821 -1.5496  0.3276  0.0473
   95SAPS  C216 9411   6.045   5.427   7.852 -0.1436  0.4175 -0.7474
   95SAPS  H16R 9412   6.044   5.520   7.791  0.7718 -0.0431 -1.4897
   95SAPS  H16S 9413   6.151   5.409   7.879 -0.3494 -0.5270 -0.5437
   95SAPS  C217 9414   5.970   5.437   7.993 -0.3653  0.0259  0.5263
   95SAPS  H17R 9415   5.868   5.480   7.982  0.1327  1.2808  0.7399
   95SAPS  H17S 9416   6.019   5.511   8.059 -1.6366  1.4516 -0.0606
   95SAPS  C218 9417   5.968   5.306   8.069  0.9457  0.0603 -0.2911
   95SAPS  H18R 9418   5.975   5.212   8.010 -0.3254 -0.8946  0.9967
   95SAPS  H18S 9419   5.873   5.314   8.126  1.0102  0.1653 -0.1979
   95SAPS  C219 9420   6.066   5.289   8.184  0.4331  0.6945 -0.1673
   95SAPS  H19R 9421   6.032   5.200   8.241  3.2204  0.5865  1.5238
   95SAPS  H19S 9422   6.046   5.378   8.248 -1.5444 -1.4363  2.4405
   95SAPS  C220 9423   6.212   5.281   8.140 -0.0920 -0.4274 -0.3366
   95SAPS  H20R 9424   6.288   5.277   8.221 -1.4984 -0.3046  1.0284
   95SAPS  H20S 9425   6.240   5.374   8.085  1.1660  0.5285  1.7921
   95SAPS  H20T 9426   6.222   5.196   8.069 -1.6764 -1.5037  0.6929
   95SAPS   C33 9427   5.592   4.191   7.116  0.6384  0.1171 -0.0592
   95SAPS   H3X 9428   5.561   4.297   7.123  1.7887  0.7173 -2.7331
   95SAPS   H3Y 9429   5.702   4.181   7.107  0.5430 -0.1415 -1.1834
   95SAPS   C34 9430   5.564   4.112   7.243  0.4028  0.3854 -0.1845
   95SAPS   H4X 9431   5.583   4.003   7.241  1.7318  0.5444  1.4255
   95SAPS   H4Y 9432   5.454   4.126   7.253  0.5430  1.0467  0.5682
   95SAPS   C35 9433   5.633   4.162   7.364 -0.1366 -0.1986 -0.7577
   95SAPS   H5X 9434   5.652   4.271   7.354  0.5165 -0.2571 -0.1941
   95SAPS   H5Y 9435   5.735   4.118   7.364  1.9159  3.9164 -2.6543
   95SAPS   C36 9436   5.569   4.123   7.495  0.4125  0.6190  0.0961
   95SAPS   H6X 9437   5.562   4.012   7.500 -0.8605  0.4558 -3.1426
   95SAPS   H6Y 9438   5.467   4.166   7.500  0.3941  0.5053  0.9162
   95SAPS   C37 9439   5.644   4.177   7.614 -0.2818  0.6340  0.2876
   95SAPS   H7X 9440   5.747   4.136   7.618 -0.1383  0.7442 -1.5709
   95SAPS   H7Y 9441   5.589   4.149   7.707  0.1697  1.6861  0.8833
   95SAPS   C38 9442   5.671   4.326   7.605  0.3592  0.5535 -0.1298
   95SAPS   H8X 9443   5.585   4.388   7.572  0.3633  0.3596 -0.5176
   95SAPS   H8Y 9444   5.757   4.344   7.537 -0.3470 -0.6727 -1.4052
   95SAPS   C39 9445   5.701   4.386   7.743 -0.0372  0.1269  1.1031
   95SAPS   H9X 9446   5.772   4.320   7.799 -0.4192  0.5294  2.0699
   95SAPS   H9Y 9447   5.611   4.391   7.808  0.2017 -1.3681  1.5900
   95SAPS  C310 9448   5.757   4.533   7.728  0.0893  0.2987  0.7906
   95SAPS  H10X 9449   5.687   4.598   7.671  0.6106  0.0885 -0.1046
   95SAPS  H10Y 9450   5.854   4.519   7.675 -0.5253 -0.5338 -0.1776
   95SAPS  C311 9451   5.801   4.588   7.866 -0.6683  0.6572 -0.3982
   95SAPS  H11X 9452   5.859   4.516   7.927  0.5174  3.2694  1.8048
   95SAPS  H11Y 9453   5.708   4.605   7.924  0.7181  0.0901  2.1501
   95SAPS  C312 9454   5.896   4.713   7.856  0.0581 -0.9595 -0.2317
   95SAPS  H12X 9455   5.986   4.681   7.800  0.3368 -1.3897  0.4485
   95SAPS  H12Y 9456   5.927   4.746   7.958 -0.4804 -0.1629 -0.3151
   95SAPS  C313 9457   5.824   4.829   7.786  0.2307 -0.3595 -0.0534
   95SAPS  H13X 9458   5.741   4.869   7.849  1.0785 -1.7106  2.0375
   95SAPS  H13Y 9459   5.779   4.776   7.700  0.9526  0.7397 -1.1310
   95SAPS  C314 9460   5.910   4.944   7.742  0.0418  0.3462  0.9004
   95SAPS  H14X 9461   5.948   5.002   7.829  0.5910  0.9262  0.2811
   95SAPS  H14Y 9462   5.846   5.023   7.698  0.4913  0.7721  0.9976
   95SAPS  C315 9463   6.043   4.909   7.668 -0.4573  0.2841 -0.0569
   95SAPS  H15X 9464   6.105   4.837   7.725  0.1047  0.5807 -0.2921
   95SAPS  H15Y 9465   6.100   5.003   7.658  1.9192 -1.1450 -0.8944
   95SAPS  C316 9466   6.035   4.852   7.523 -0.4811 -0.3745  0.8087
   95SAPS  H16X 9467   5.960   4.919   7.476  0.1651  0.3715  0.8121
   95SAPS  H16Y 9468   5.991   4.751   7.515 -2.7139  0.7114 -3.1866
   95SAPS  C317 9469   6.169   4.858   7.437 -0.1686  0.2354 -0.4338
   95SAPS  H17X 9470   6.238   4.784   7.482  0.7247  1.0629 -0.3991
   95SAPS  H17Y 9471   6.218   4.956   7.456 -0.3611 -0.0970  2.1762
   95SAPS  C318 9472   6.151   4.828   7.294 -0.0859  0.5686  0.7325
   95SAPS  H18X 9473   6.104   4.919   7.250  0.4883  0.5327  0.0244
   95SAPS  H18Y 9474   6.098   4.731   7.297  2.6431 -1.0446  0.3597
   95SAPS  H18Z 9475   6.252   4.815   7.249 -0.3327  0.5756  0.1633
   96SAPS     N 9476   6.216   6.516   6.088 -0.0723  0.0509  0.4276
   96SAPS   HN1 9477   6.154   6.562   6.158 -1.5027 -1.0202 -0.0899
   96SAPS   HN2 9478   6.306   6.479   6.126  0.1082 -0.2093 -0.2515
   96SAPS   HN3 9479   6.237   6.576   6.006  2.9012 -1.6403 -0.2091
   96SAPS   C12 9480   6.145   6.391   6.044 -0.2853  0.3226 -0.5428
   96SAPS  H12A 9481   6.049   6.429   6.014 -0.2549 -0.0729 -1.1683
   96SAPS   C13 9482   6.210   6.321   5.921 -1.1491 -0.6647  0.1740
   96SAPS  O13A 9483   6.327   6.351   5.877 -0.1510  0.3127 -0.7967
   96SAPS  O13B 9484   6.168   6.209   5.888 -0.1495 -0.2618 -0.4154
   96SAPS   C11 9485   6.135   6.295   6.160  0.1982  0.0418  0.1621
   96SAPS  H11A 9486   6.239   6.292   6.198  0.3506  2.8025  0.1760
   96SAPS  H11B 9487   6.093   6.195   6.133 -1.3025  0.7546 -0.2581
   96SAPS     P 9488   6.081   6.325   6.413  0.4289  0.3369  0.5849
   96SAPS   O13 9489   5.995   6.422   6.488  0.2664  0.1073 -0.2889
   96SAPS   O14 9490   6.051   6.184   6.443  0.0269  0.7162  0.0276
   96SAPS   O12 9491   6.050   6.347   6.261  0.1847  0.1286  0.0046
   96SAPS   O11 9492   6.234   6.363   6.430 -0.1133  0.1485  0.1560
   96SAPS    C1 9493   6.328   6.263   6.468  0.3119  0.2847  1.0533
   96SAPS    HA 9494   6.307   6.165   6.420 -0.7321  0.8502  0.3315
   96SAPS    HB 9495   6.426   6.292   6.426 -0.1492  1.6614  0.8803
   96SAPS    C2 9496   6.346   6.240   6.621 -0.3310  0.3007  0.6776
   96SAPS    HS 9497   6.247   6.202   6.654 -0.2839  0.5091  1.0727
   96SAPS   O21 9498   6.372   6.364   6.690 -0.1381  0.3892 -0.4410
   96SAPS   C21 9499   6.291   6.402   6.785 -0.7005 -0.5797 -0.2735
   96SAPS   O22 9500   6.196   6.341   6.830  0.2035  0.0345  0.1538
   96SAPS   C22 9501   6.331   6.548   6.826 -0.7503  0.5818  0.2956
   96SAPS   H2R 9502   6.440   6.564   6.842 -0.6605 -1.2053  1.8119
   96SAPS   H2S 9503   6.291   6.614   6.746 -0.6830  4.2086  2.9987
   96SAPS    C3 9504   6.470   6.148   6.639  0.1130 -0.1653 -0.7114
   96SAPS    HX 9505   6.557   6.185   6.580  1.0347  1.5705  1.6033
   96SAPS    HY 9506   6.448   6.044   6.606  0.0644 -0.7143  0.9518
   96SAPS   O31 9507   6.500   6.143   6.781 -0.0651  0.1078 -0.7083
   96SAPS   C31 9508   6.610   6.080   6.816  0.1601  0.1218 -0.0805
   96SAPS   O32 9509   6.697   6.040   6.743 -0.2762  0.4044  0.1126
   96SAPS   C32 9510   6.613   6.071   6.974  0.4999  0.5479 -0.2709
   96SAPS   H2X 9511   6.680   5.986   6.999 -0.2733 -0.0930 -0.3363
   96SAPS   H2Y 9512   6.505   6.057   6.998  0.6810 -0.5052 -0.0097
   96SAPS   C23 9513   6.266   6.592   6.958  0.1875 -0.7452  0.5724
   96SAPS   H3R 9514   6.292   6.530   7.046 -0.7175 -0.0143  1.3829
   96SAPS   H3S 9515   6.157   6.595   6.936  0.3730  0.9433 -0.2545
   96SAPS   C24 9516   6.307   6.739   6.982 -0.4858  0.3442  0.3093
   96SAPS   H4R 9517   6.260   6.770   7.078  0.2626  0.0419  0.7906
   96SAPS   H4S 9518   6.268   6.799   6.898 -1.4609 -2.3972 -1.3189
   96SAPS   C25 9519   6.460   6.765   6.998 -0.8431  0.3354  0.0437
   96SAPS   H5R 9520   6.517   6.781   6.905  0.3833  0.5400  0.8098
   96SAPS   C26 9521   6.532   6.772   7.113  0.7178 -0.4391 -0.0982
   96SAPS   H6R 9522   6.641   6.786   7.108  0.7638  0.1695  1.8544
   96SAPS   C27 9523   6.482   6.777   7.257  0.2603 -0.2125  0.6343
   96SAPS   H7R 9524   6.395   6.712   7.280  0.8216 -1.2696 -0.1603
   96SAPS   H7S 9525   6.434   6.876   7.272 -0.1175 -0.3392  0.2792
   96SAPS   C28 9526   6.578   6.750   7.366  0.3891  0.1709 -0.1726
   96SAPS   H8R 9527   6.644   6.664   7.352  1.4483  0.4514  2.4898
   96SAPS   C29 9528   6.581   6.800   7.491 -0.7830 -0.1599 -0.1646
   96SAPS   H9R 9529   6.666   6.767   7.552  0.4133  2.0448 -0.5603
   96SAPS  C210 9530   6.491   6.902   7.554  0.0185  0.0347 -0.3798
   96SAPS  H10R 9531   6.438   6.844   7.634 -1.0835  0.5489 -0.7166
   96SAPS  H10S 9532   6.414   6.954   7.493  1.1891  0.4300 -1.5450
   96SAPS  C211 9533   6.584   7.001   7.630  0.0197  0.4607 -0.2336
   96SAPS  H11R 9534   6.687   7.012   7.593  0.1012 -1.4138 -0.6787
   96SAPS  C212 9535   6.553   7.075   7.731 -0.4984  0.0515  0.0050
   96SAPS  H12R 9536   6.633   7.130   7.784 -1.8657  0.0172  2.2447
   96SAPS  C213 9537   6.422   7.095   7.796  1.0281  0.0636  0.2944
   96SAPS  H13R 9538   6.420   7.022   7.880  1.1531 -0.2514  0.0281
   96SAPS  H13S 9539   6.343   7.063   7.724  1.5246  1.7359 -1.0616
   96SAPS  C214 9540   6.404   7.237   7.819  0.0203 -0.6974  0.0491
   96SAPS  H14R 9541   6.338   7.291   7.749 -2.7560 -2.6501  1.0172
   96SAPS  C215 9542   6.444   7.300   7.929 -0.4649 -0.4225 -0.2123
   96SAPS  H15R 9543   6.444   7.409   7.936  0.4970 -0.4545  0.5667
   96SAPS  C216 9544   6.507   7.243   8.050  0.0922  0.5455 -0.1574
   96SAPS  H16R 9545   6.614   7.271   8.059  0.3466 -0.4107 -0.0262
   96SAPS  H16S 9546   6.525   7.133   8.055  0.0577  0.5842  1.3045
   96SAPS  C217 9547   6.458   7.305   8.186 -0.0378 -0.7200 -0.5244
   96SAPS  H17R 9548   6.493   7.411   8.188 -2.1976  0.0734 -1.9698
   96SAPS  H17S 9549   6.506   7.258   8.275 -2.1832 -0.6492  0.7516
   96SAPS  C218 9550   6.305   7.305   8.206  0.0395 -0.2126 -0.2199
   96SAPS  H18R 9551   6.273   7.199   8.198  2.7219 -0.9796 -1.8029
   96SAPS  H18S 9552   6.261   7.364   8.123 -2.5885 -0.9708  0.5372
   96SAPS  C219 9553   6.269   7.365   8.339  0.3138  0.6004 -0.9757
   96SAPS  H19R 9554   6.167   7.410   8.342  0.6036  1.2482  1.7940
   96SAPS  H19S 9555   6.335   7.450   8.365 -0.3299  0.9563 -0.4872
   96SAPS  C220 9556   6.279   7.267   8.455 -0.0741 -0.3106  0.0012
   96SAPS  H20R 9557   6.251   7.305   8.555  1.5615  2.3681 -0.4630
   96SAPS  H20S 9558   6.386   7.247   8.478  0.0796 -0.3439 -0.7013
   96SAPS  H20T 9559   6.218   7.175   8.440 -0.2051 -0.0133 -1.4157
   96SAPS   C33 9560   6.666   6.190   7.047 -0.0796 -0.4961 -0.9520
   96SAPS   H3X 9561   6.769   6.222   7.019  0.7270 -2.4118 -0.2975
   96SAPS   H3Y 9562   6.677   6.163   7.154 -0.5588 -0.1961 -0.8215
   96SAPS   C34 9563   6.575   6.317   7.054  0.1207 -0.8275 -0.2470
   96SAPS   H4X 9564   6.478   6.276   7.020 -0.1119 -0.2433 -0.2877
   96SAPS   H4Y 9565   6.613   6.389   6.979 -1.1575  0.7446  0.5669
   96SAPS   C35 9566   6.570   6.375   7.186 -0.2549  0.1417 -0.7923
   96SAPS   H5X 9567   6.526   6.477   7.184 -0.9875 -0.1602 -0.4393
   96SAPS   H5Y 9568   6.676   6.393   7.215 -0.2506 -2.8682  1.5736
   96SAPS   C36 9569   6.498   6.303   7.294 -0.3612  0.2139 -0.8891
   96SAPS   H6X 9570   6.542   6.202   7.310  1.6068  1.1322 -0.1474
   96SAPS   H6Y 9571   6.395   6.286   7.256 -0.2351 -0.0680 -1.1050
   96SAPS   C37 9572   6.497   6.367   7.435  0.1259  0.0665  0.1703
   96SAPS   H7X 9573   6.420   6.321   7.501 -2.4053  0.5094 -2.3125
   96SAPS   H7Y 9574   6.460   6.471   7.427  0.9070  0.6216  2.6454
   96SAPS   C38 9575   6.631   6.373   7.509 -0.1754 -0.5232 -0.0356
   96SAPS   H8X 9576   6.687   6.458   7.466 -0.1264 -0.2324  0.5933
   96SAPS   H8Y 9577   6.690   6.284   7.479 -0.1765  0.6633 -4.1290
   96SAPS   C39 9578   6.634   6.401   7.656  0.6743  0.8413 -0.4689
   96SAPS   H9X 9579   6.586   6.499   7.675  0.8183  0.4304  2.3611
   96SAPS   H9Y 9580   6.732   6.411   7.706 -0.8291  2.1367  2.4430
   96SAPS  C310 9581   6.561   6.287   7.728  0.1082 -0.0324  0.0122
   96SAPS  H10X 9582   6.621   6.196   7.704  0.2630  0.2630 -0.7496
   96SAPS  H10Y 9583   6.458   6.267   7.690  0.5299 -0.5072 -0.9319
   96SAPS  C311 9584   6.574   6.296   7.873 -0.0183 -0.3933  0.1858
   96SAPS  H11X 9585   6.531   6.392   7.908  1.4491  0.6664 -0.7914
   96SAPS  H11Y 9586   6.680   6.292   7.904  0.3971  1.7057 -0.7287
   96SAPS  C312 9587   6.511   6.183   7.951  0.3532  0.0396  0.1456
   96SAPS  H12X 9588   6.547   6.091   7.900  3.1562  1.7089 -1.1185
   96SAPS  H12Y 9589   6.402   6.199   7.932  0.2187 -2.1290 -1.2685
   96SAPS  C313 9590   6.550   6.171   8.100 -0.2576 -0.4176 -0.3161
   96SAPS  H13X 9591   6.467   6.134   8.164 -0.0949  0.3076  0.3239
   96SAPS  H13Y 9592   6.575   6.273   8.136 -0.3358 -0.7758  0.8042
   96SAPS  C314 9593   6.673   6.081   8.121  0.3385  0.5725 -0.9446
   96SAPS  H14X 9594   6.759   6.119   8.062  0.9990 -0.1054 -0.4282
   96SAPS  H14Y 9595   6.643   5.984   8.077  3.4506 -1.0463  0.1862
   96SAPS  C315 9596   6.694   6.060   8.275  0.2746  0.4880  0.1816
   96SAPS  H15X 9597   6.606   6.006   8.315  0.0036 -0.1288 -1.2052
   96SAPS  H15Y 9598   6.686   6.159   8.325  0.0889  0.5974 -0.0631
   96SAPS  C316 9599   6.812   5.973   8.313 -0.2604  0.3239  0.2164
   96SAPS  H16X 9600   6.901   6.037   8.300 -0.7287  0.7269 -1.1268
   96SAPS  H16Y 9601   6.816   5.882   8.249 -0.8680 -0.5485  1.3766
   96SAPS  C317 9602   6.811   5.936   8.464 -0.8347  0.9931 -0.4812
   96SAPS  H17X 9603   6.900   5.876   8.491 -2.8102 -1.2138  1.5541
   96SAPS  H17Y 9604   6.719   5.875   8.478 -1.4831  1.9858 -0.3226
   96SAPS  C318 9605   6.807   6.049   8.563 -0.3409 -0.2657  0.3797
   96SAPS  H18X 9606   6.729   6.125   8.541  1.2821  1.3858  0.0038
   96SAPS  H18Y 9607   6.912   6.087   8.564 -0.9212  1.4306  0.7170
   96SAPS  H18Z 9608   6.776   6.004   8.660  0.3205 -1.3413  0.1114
   97SAPS     N 9609   6.004   4.791   6.053 -0.3396 -0.0862 -0.9277
   97SAPS   HN1 9610   5.903   4.804   6.074 -0.5083  1.0926 -2.2727
   97SAPS   HN2 9611   6.014   4.799   5.949  1.0603  0.2676 -0.7792
   97SAPS   HN3 9612   6.024   4.692   6.079 -1.2492 -0.3262 -1.1038
   97SAPS   C12 9613   6.074   4.901   6.120 -0.2639 -0.6567  0.0310
   97SAPS  H12A 9614   6.176   4.907   6.084  0.2426 -2.5087  1.0343
   97SAPS   C13 9615   6.004   5.036   6.102 -0.7339 -0.2068  0.6966
   97SAPS  O13A 9616   5.901   5.044   6.033 -0.0303  0.1371 -0.4981
   97SAPS  O13B 9617   6.087   5.131   6.118 -0.3903  0.4890  0.3168
   97SAPS   C11 9618   6.082   4.867   6.276 -0.8337 -0.3352 -0.0549
   97SAPS  H11A 9619   5.985   4.892   6.324  0.3769  2.3548  1.1903
   97SAPS  H11B 9620   6.152   4.945   6.314  0.0556 -0.9394 -0.4014
   97SAPS     P 9621   6.181   4.700   6.449 -0.3286 -0.4771 -0.3600
   97SAPS   O13 9622   6.123   4.575   6.495  0.2430  1.0642 -0.1704
   97SAPS   O14 9623   6.327   4.713   6.450 -0.7602 -0.1033  0.0143
   97SAPS   O12 9624   6.127   4.731   6.304 -0.2512 -0.1208 -0.0327
   97SAPS   O11 9625   6.116   4.826   6.526 -0.2230 -0.1150  0.4032
   97SAPS    C1 9626   6.200   4.893   6.624  0.0225  0.2448  0.1963
   97SAPS    HA 9627   6.298   4.925   6.582  0.1950 -0.4077  0.0806
   97SAPS    HB 9628   6.165   4.992   6.660  0.3700 -0.2479  1.9682
   97SAPS    C2 9629   6.222   4.804   6.747 -0.0127 -0.1820  0.4623
   97SAPS    HS 9630   6.285   4.717   6.719 -0.1810  0.2073 -1.2878
   97SAPS   O21 9631   6.092   4.766   6.794  1.2410  0.4718 -1.1232
   97SAPS   C21 9632   6.090   4.649   6.864  0.8014  0.0007  0.5673
   97SAPS   O22 9633   6.173   4.565   6.876  0.1641 -0.0257  0.0196
   97SAPS   C22 9634   5.946   4.637   6.919 -0.3541 -0.8219  0.3430
   97SAPS   H2R 9635   5.890   4.723   6.875 -0.2603 -0.4902  0.8635
   97SAPS   H2S 9636   5.900   4.559   6.855  1.6724 -0.2039 -2.0610
   97SAPS    C3 9637   6.311   4.880   6.847  0.1238 -0.4762 -1.1522
   97SAPS    HX 9638   6.253   4.961   6.895 -1.0054 -0.6872 -2.1170
   97SAPS    HY 9639   6.397   4.927   6.794  2.3390 -0.3130  2.2759
   97SAPS   O31 9640   6.362   4.793   6.957  0.0077  0.3844 -0.6755
   97SAPS   C31 9641   6.483   4.743   6.944 -0.6354 -0.2158  0.0417
   97SAPS   O32 9642   6.546   4.737   6.837  0.5926 -0.4286 -0.2644
   97SAPS   C32 9643   6.528   4.685   7.081 -0.5637  0.5860 -0.4941
   97SAPS   H2X 9644   6.435   4.665   7.138  0.3552  0.6057  1.0589
   97SAPS   H2Y 9645   6.583   4.765   7.135 -0.6761  0.2687  0.1039
   97SAPS   C23 9646   5.929   4.608   7.069 -0.7094 -0.1868 -0.4417
   97SAPS   H3R 9647   5.976   4.687   7.132 -0.1276  0.8387 -2.1122
   97SAPS   H3S 9648   5.981   4.514   7.098  0.4342  0.4923 -0.2050
   97SAPS   C24 9649   5.780   4.593   7.114  0.6219 -0.4821 -0.7005
   97SAPS   H4R 9650   5.710   4.527   7.058 -1.1829  2.0873 -1.6308
   97SAPS   H4S 9651   5.723   4.688   7.106  0.1665 -0.4805  1.8784
   97SAPS   C25 9652   5.776   4.549   7.254  0.0286 -0.2430 -0.4494
   97SAPS   H5R 9653   5.795   4.441   7.261 -2.7159 -1.0601 -3.4565
   97SAPS   C26 9654   5.744   4.620   7.363 -0.1740 -1.1740  0.5311
   97SAPS   H6R 9655   5.759   4.575   7.462 -0.8764 -1.3628  0.5595
   97SAPS   C27 9656   5.727   4.776   7.365  0.2917  0.3895  0.1102
   97SAPS   H7R 9657   5.800   4.819   7.293  0.0960 -2.0535 -1.6842
   97SAPS   H7S 9658   5.759   4.797   7.469 -0.8561 -1.7844  0.9827
   97SAPS   C28 9659   5.595   4.839   7.325  0.3395  0.0624 -0.6446
   97SAPS   H8R 9660   5.553   4.791   7.236 -0.4162 -1.1216  0.3184
   97SAPS   C29 9661   5.535   4.935   7.388  0.1594 -0.4126 -0.1510
   97SAPS   H9R 9662   5.434   4.962   7.354 -0.2631 -0.8981  0.6802
   97SAPS  C210 9663   5.573   5.008   7.512 -0.4345 -0.0051 -0.3560
   97SAPS  H10R 9664   5.649   4.945   7.563 -0.2570 -1.3026 -2.1189
   97SAPS  H10S 9665   5.487   5.008   7.582  0.5742 -0.4360  0.9048
   97SAPS  C211 9666   5.646   5.137   7.488  0.7075  0.6209  0.0015
   97SAPS  H11R 9667   5.703   5.155   7.396 -0.2616  0.7933 -0.5795
   97SAPS  C212 9668   5.641   5.236   7.572  0.3206 -1.2729 -0.5366
   97SAPS  H12R 9669   5.687   5.324   7.524 -1.0818 -0.9067 -1.2534
   97SAPS  C213 9670   5.564   5.255   7.704 -0.1227 -0.9545 -0.1551
   97SAPS  H13R 9671   5.473   5.191   7.703 -2.0377  1.6275 -0.5911
   97SAPS  H13S 9672   5.531   5.360   7.692 -1.6498 -1.2756  0.9946
   97SAPS  C214 9673   5.656   5.236   7.827 -0.8758 -0.2725  0.0561
   97SAPS  H14R 9674   5.750   5.294   7.826 -1.2924  0.7092  3.5030
   97SAPS  C215 9675   5.633   5.149   7.926 -0.2752 -0.8811 -0.3383
   97SAPS  H15R 9676   5.704   5.155   8.010  0.3125  1.0256 -0.8964
   97SAPS  C216 9677   5.520   5.058   7.942  0.1155 -0.2620  0.1354
   97SAPS  H16R 9678   5.508   5.011   7.842 -0.9819  1.2704 -0.4964
   97SAPS  H16S 9679   5.427   5.116   7.957  0.9773  1.0772  0.4553
   97SAPS  C217 9680   5.540   4.955   8.059 -0.7235  0.4164  0.7804
   97SAPS  H17R 9681   5.648   4.929   8.053 -0.4452  1.6595  0.0338
   97SAPS  H17S 9682   5.477   4.870   8.024  1.1832 -1.1436  0.9553
   97SAPS  C218 9683   5.497   5.013   8.195 -0.4846 -0.6081  0.4070
   97SAPS  H18R 9684   5.394   5.054   8.186 -1.2000 -2.2160  0.7880
   97SAPS  H18S 9685   5.570   5.093   8.217  1.0304 -2.4354  2.5036
   97SAPS  C219 9686   5.509   4.914   8.307  0.3261 -0.0929  0.1597
   97SAPS  H19R 9687   5.615   4.906   8.341 -0.0208  1.0793  1.6013
   97SAPS  H19S 9688   5.467   4.816   8.276  0.3694  0.4069 -1.5888
   97SAPS  C220 9689   5.436   4.953   8.431 -0.1553  0.1489 -0.0821
   97SAPS  H20R 9690   5.463   4.887   8.517  0.6351 -0.5497 -0.8477
   97SAPS  H20S 9691   5.327   4.951   8.415 -0.1880 -0.6082  0.1712
   97SAPS  H20T 9692   5.455   5.061   8.449 -1.5386  0.5272 -0.8284
   97SAPS   C33 9693   6.610   4.562   7.082  0.3877  0.0248 -0.0272
   97SAPS   H3X 9694   6.716   4.596   7.080  0.0372  1.2078  0.5465
   97SAPS   H3Y 9695   6.588   4.495   6.997 -1.4746 -1.2555  1.3713
   97SAPS   C34 9696   6.603   4.479   7.208 -0.5437 -0.1637 -0.2639
   97SAPS   H4X 9697   6.687   4.406   7.204  0.2506  0.6846  0.3251
   97SAPS   H4Y 9698   6.506   4.426   7.216  0.1998 -2.0039 -2.4526
   97SAPS   C35 9699   6.618   4.559   7.339 -0.0966 -0.1199  0.7584
   97SAPS   H5X 9700   6.536   4.635   7.337 -0.2099 -0.2476  0.4825
   97SAPS   H5Y 9701   6.720   4.598   7.357  0.2804 -0.3150 -0.8371
   97SAPS   C36 9702   6.603   4.466   7.460  0.1199 -0.3093  0.2105
   97SAPS   H6X 9703   6.677   4.383   7.451  0.0402 -0.3054 -0.5424
   97SAPS   H6Y 9704   6.506   4.414   7.464  0.5601 -1.1228  3.4987
   97SAPS   C37 9705   6.612   4.531   7.598  0.1913  0.5583 -0.2929
   97SAPS   H7X 9706   6.527   4.599   7.617 -0.1529 -0.5084  2.5690
   97SAPS   H7Y 9707   6.692   4.608   7.607 -0.0201  0.7157  0.3029
   97SAPS   C38 9708   6.637   4.439   7.713  0.9928  0.3581 -0.9633
   97SAPS   H8X 9709   6.735   4.394   7.686 -0.1415 -1.8351 -1.7311
   97SAPS   H8Y 9710   6.559   4.360   7.726  2.2590 -1.0156 -1.4501
   97SAPS   C39 9711   6.656   4.509   7.850 -0.4614 -0.0988  0.1408
   97SAPS   H9X 9712   6.562   4.567   7.867 -1.9216 -1.4295 -2.7112
   97SAPS   H9Y 9713   6.740   4.579   7.868  0.4506 -1.2430  0.4422
   97SAPS  C310 9714   6.656   4.408   7.956  0.6467 -0.1509 -1.1090
   97SAPS  H10X 9715   6.748   4.346   7.957 -1.2156 -3.0974 -0.6266
   97SAPS  H10Y 9716   6.568   4.341   7.948 -0.9679  1.4206  1.9142
   97SAPS  C311 9717   6.656   4.477   8.098 -1.0848  0.2821 -0.6873
   97SAPS  H11X 9718   6.560   4.522   8.132 -0.6883 -0.0793  1.0411
   97SAPS  H11Y 9719   6.734   4.557   8.100 -1.3177  0.5026  0.6140
   97SAPS  C312 9720   6.698   4.378   8.206 -0.1913 -0.3977  0.3348
   97SAPS  H12X 9721   6.785   4.320   8.168 -0.7544 -1.1463  0.1704
   97SAPS  H12Y 9722   6.618   4.306   8.235  1.1999 -2.1942 -0.1282
   97SAPS  C313 9723   6.739   4.453   8.331  0.6402  0.2971 -0.6069
   97SAPS  H13X 9724   6.799   4.543   8.306  1.7342 -0.7143 -1.7522
   97SAPS  H13Y 9725   6.816   4.392   8.383 -0.4660 -1.3854 -0.8666
   97SAPS  C314 9726   6.637   4.469   8.440  0.0699  0.0955 -0.4107
   97SAPS  H14X 9727   6.606   4.368   8.473  0.4939  0.4151  1.0629
   97SAPS  H14Y 9728   6.550   4.528   8.402  0.3761  1.4154  0.8226
   97SAPS  C315 9729   6.689   4.527   8.571  0.0944  0.0496  0.3627
   97SAPS  H15X 9730   6.728   4.630   8.559 -1.5257  0.7983  1.1593
   97SAPS  H15Y 9731   6.773   4.470   8.617  2.0521  3.8328  1.8692
   97SAPS  C316 9732   6.570   4.552   8.663 -0.9894  0.6755  0.7728
   97SAPS  H16X 9733   6.508   4.460   8.674 -0.5321  0.0350 -1.4551
   97SAPS  H16Y 9734   6.501   4.627   8.620 -1.8327  0.7751  2.2301
   97SAPS  C317 9735   6.611   4.618   8.795 -0.1555 -0.6478  0.0988
   97SAPS  H17X 9736   6.604   4.728   8.785  0.9440 -0.5360  0.3785
   97SAPS  H17Y 9737   6.712   4.583   8.827  1.0233  1.3268 -1.2794
   97SAPS  C318 9738   6.507   4.592   8.907 -0.4926 -0.0167  0.0043
   97SAPS  H18X 9739   6.523   4.502   8.971 -0.3957 -1.2971 -1.7342
   97SAPS  H18Y 9740   6.401   4.593   8.874 -0.7158 -0.4055  0.6899
   97SAPS  H18Z 9741   6.510   4.683   8.970 -1.3217  0.2792 -0.3691
   98SAPS     N 9742   4.148   3.199   6.190  0.1449  0.3092  0.2274
   98SAPS   HN1 9743   4.045   3.201   6.176  0.1726  3.3465 -0.2427
   98SAPS   HN2 9744   4.184   3.115   6.238  0.7269  0.4648  0.0670
   98SAPS   HN3 9745   4.149   3.268   6.268  0.0444  1.3239 -0.6413
   98SAPS   C12 9746   4.215   3.250   6.067 -0.2585  0.5057  0.2642
   98SAPS  H12A 9747   4.322   3.256   6.081  0.4360 -1.9601 -2.9015
   98SAPS   C13 9748   4.198   3.156   5.945  0.6850 -0.1008 -0.1614
   98SAPS  O13A 9749   4.139   3.044   5.955 -0.0524 -0.0452 -0.0051
   98SAPS  O13B 9750   4.233   3.199   5.834 -0.2394 -0.6737  0.4590
   98SAPS   C11 9751   4.157   3.393   6.033 -0.1877  0.5543  0.2423
   98SAPS  H11A 9752   4.048   3.373   6.025 -0.3574  1.6565 -0.4061
   98SAPS  H11B 9753   4.199   3.431   5.937 -0.4616 -0.0212 -0.1133
   98SAPS     P 9754   4.262   3.617   6.142 -0.2137 -0.3305 -0.1266
   98SAPS   O13 9755   4.403   3.576   6.115  0.2346  0.3240  0.4398
   98SAPS   O14 9756   4.196   3.714   6.046 -0.3025  0.8061 -0.1865
   98SAPS   O12 9757   4.172   3.488   6.143  0.0483  0.8083  0.1993
   98SAPS   O11 9758   4.239   3.680   6.293 -0.4403  0.5372  0.4403
   98SAPS    C1 9759   4.346   3.639   6.381 -0.4009 -0.6770 -0.4119
   98SAPS    HA 9760   4.346   3.531   6.406 -3.0313 -0.3126  1.5940
   98SAPS    HB 9761   4.448   3.646   6.337 -0.0097 -2.4942  0.1328
   98SAPS    C2 9762   4.344   3.713   6.517  0.6804  0.5860 -0.1384
   98SAPS    HS 9763   4.446   3.697   6.557  0.3862 -0.0145  0.3919
   98SAPS   O21 9764   4.245   3.646   6.607 -0.0447 -0.3493  0.0009
   98SAPS   C21 9765   4.297   3.561   6.699  0.3959  0.1840  0.0665
   98SAPS   O22 9766   4.411   3.547   6.726  0.6843  0.0835 -0.0566
   98SAPS   C22 9767   4.186   3.491   6.760  0.4982  0.2062  0.1888
   98SAPS   H2R 9768   4.102   3.563   6.761  1.8360  1.8727 -1.3437
   98SAPS   H2S 9769   4.147   3.408   6.698 -0.1878 -1.3364  2.5587
   98SAPS    C3 9770   4.306   3.861   6.490  0.2978 -0.5177 -0.3754
   98SAPS    HX 9771   4.212   3.868   6.430  0.1288 -0.0778 -0.0659
   98SAPS    HY 9772   4.383   3.898   6.420 -0.9432 -0.7728 -1.9466
   98SAPS   O31 9773   4.297   3.937   6.613  0.5224 -0.2491 -0.7473
   98SAPS   C31 9774   4.182   3.930   6.681 -0.1626 -0.4306  0.2556
   98SAPS   O32 9775   4.076   3.893   6.632  0.2940 -0.3135  0.0593
   98SAPS   C32 9776   4.205   3.966   6.836  0.1013 -0.3099 -0.1862
   98SAPS   H2X 9777   4.249   4.068   6.844  0.4780 -0.5634  1.3934
   98SAPS   H2Y 9778   4.284   3.898   6.875 -0.5822 -0.4758  0.9580
   98SAPS   C23 9779   4.230   3.430   6.897 -0.2262  0.4895 -0.2464
   98SAPS   H3R 9780   4.335   3.393   6.907 -0.3229  0.1201 -0.5669
   98SAPS   H3S 9781   4.162   3.345   6.920 -3.0212  2.4447 -0.7853
   98SAPS   C24 9782   4.201   3.530   7.011 -0.1206  0.2233  0.3082
   98SAPS   H4R 9783   4.238   3.628   6.976 -0.2172 -0.6468 -2.4964
   98SAPS   H4S 9784   4.270   3.497   7.092 -0.7548 -2.1473 -0.0432
   98SAPS   C25 9785   4.058   3.540   7.057  0.5999 -0.7322  0.5051
   98SAPS   H5R 9786   3.984   3.519   6.978 -0.7792 -2.2804  2.1038
   98SAPS   C26 9787   4.017   3.575   7.184  0.7582 -0.2957 -0.1400
   98SAPS   H6R 9788   3.908   3.580   7.201  0.6154  2.2169 -1.2610
   98SAPS   C27 9789   4.113   3.608   7.293 -0.7842 -0.3281  0.7479
   98SAPS   H7R 9790   4.068   3.676   7.369  0.7287 -0.3269  1.6969
   98SAPS   H7S 9791   4.198   3.668   7.253 -0.8859 -1.0198 -0.5491
   98SAPS   C28 9792   4.171   3.487   7.365 -0.1300 -0.0075  0.3919
   98SAPS   H8R 9793   4.163   3.387   7.319  5.0686 -1.0483  1.0605
   98SAPS   C29 9794   4.224   3.499   7.482  0.2384 -0.1089 -0.0039
   98SAPS   H9R 9795   4.259   3.410   7.537  1.7694 -0.8385 -2.0098
   98SAPS  C210 9796   4.219   3.625   7.560 -0.0829  0.0925  0.6468
   98SAPS  H10R 9797   4.239   3.711   7.492  2.1830  0.8326  2.1042
   98SAPS  H10S 9798   4.312   3.621   7.622  0.4360  1.0805 -0.0320
   98SAPS  C211 9799   4.095   3.638   7.648 -0.0301 -0.0920  0.0042
   98SAPS  H11R 9800   4.006   3.691   7.611  0.0526 -0.4888 -0.7778
   98SAPS  C212 9801   4.078   3.593   7.772  0.7548 -0.3240  0.5293
   98SAPS  H12R 9802   3.990   3.632   7.824 -0.4839 -0.3749 -1.4335
   98SAPS  C213 9803   4.183   3.529   7.853  0.2689 -0.0647  0.2581
   98SAPS  H13R 9804   4.247   3.602   7.906 -0.2388  1.5084 -1.1809
   98SAPS  H13S 9805   4.254   3.480   7.783  1.8929  2.3502  0.1287
   98SAPS  C214 9806   4.129   3.425   7.945  0.2378 -0.1834 -0.4027
   98SAPS  H14R 9807   4.036   3.377   7.911  0.6231 -1.4303  0.2213
   98SAPS  C215 9808   4.182   3.402   8.063 -0.2052 -0.9042  0.3749
   98SAPS  H15R 9809   4.131   3.327   8.126 -1.3483 -1.5223 -1.2219
   98SAPS  C216 9810   4.302   3.470   8.131  0.3491 -0.0585 -0.0722
   98SAPS  H16R 9811   4.361   3.534   8.061  0.8562  0.7810  1.1004
   98SAPS  H16S 9812   4.365   3.395   8.183 -1.9939 -1.4515  0.8979
   98SAPS  C217 9813   4.246   3.578   8.235  0.3214 -0.1261  0.4767
   98SAPS  H17R 9814   4.163   3.539   8.297  0.6506  0.3058  1.2017
   98SAPS  H17S 9815   4.207   3.667   8.181 -1.5276 -1.6781 -0.8988
   98SAPS  C218 9816   4.362   3.619   8.337 -0.5599 -0.0705 -0.1022
   98SAPS  H18R 9817   4.438   3.660   8.268 -0.1536 -1.1184 -0.2973
   98SAPS  H18S 9818   4.407   3.529   8.385 -0.9204  0.0925  0.5572
   98SAPS  C219 9819   4.313   3.724   8.438  0.6833 -0.2123 -0.4965
   98SAPS  H19R 9820   4.265   3.679   8.527  0.1708 -1.0367 -1.1755
   98SAPS  H19S 9821   4.233   3.790   8.397  0.9158  0.2204 -0.2594
   98SAPS  C220 9822   4.428   3.807   8.495 -0.3949 -0.3998  0.0355
   98SAPS  H20R 9823   4.496   3.852   8.419  1.8539  0.3825  2.3302
   98SAPS  H20S 9824   4.496   3.741   8.553 -2.1921 -3.1256 -0.7853
   98SAPS  H20T 9825   4.397   3.889   8.563 -3.4397 -0.7760 -0.7944
   98SAPS   C33 9826   4.078   3.971   6.915  0.9737 -0.0117 -0.0224
   98SAPS   H3X 9827   4.058   3.866   6.947  1.6197  0.2238  1.2562
   98SAPS   H3Y 9828   3.997   4.012   6.852 -1.1534 -0.3289  2.3461
   98SAPS   C34 9829   4.084   4.054   7.042 -1.0232 -0.2604 -0.1252
   98SAPS   H4X 9830   3.979   4.072   7.074 -1.1005  0.9620 -0.9680
   98SAPS   H4Y 9831   4.111   4.160   7.019  0.7603 -0.3318  1.4195
   98SAPS   C35 9832   4.177   3.992   7.141  0.3485 -0.7786 -0.3848
   98SAPS   H5X 9833   4.282   4.022   7.118 -0.0662  3.0537  1.8744
   98SAPS   H5Y 9834   4.154   3.884   7.141  0.5331 -0.8174 -1.0881
   98SAPS   C36 9835   4.140   4.053   7.271 -1.0065 -0.4279 -0.6054
   98SAPS   H6X 9836   4.033   4.032   7.295 -0.9783  0.5990  0.4865
   98SAPS   H6Y 9837   4.142   4.164   7.271 -1.9496 -0.3498 -3.3585
   98SAPS   C37 9838   4.220   3.991   7.386 -0.1977 -0.3406  0.5387
   98SAPS   H7X 9839   4.329   4.011   7.378  0.3431 -2.3365  2.0318
   98SAPS   H7Y 9840   4.224   3.880   7.377  2.1414 -0.3690  1.3234
   98SAPS   C38 9841   4.182   4.041   7.523 -0.0339  0.0994 -0.2889
   98SAPS   H8X 9842   4.071   4.038   7.530 -0.2030  0.9282 -2.0408
   98SAPS   H8Y 9843   4.209   4.149   7.528 -0.3361  0.1989 -0.6704
   98SAPS   C39 9844   4.264   3.966   7.630  0.6256 -0.3284  0.5470
   98SAPS   H9X 9845   4.366   3.954   7.590 -0.0127  0.8695 -1.5764
   98SAPS   H9Y 9846   4.218   3.867   7.651 -0.9847  0.4767  1.0043
   98SAPS  C310 9847   4.251   4.045   7.759  0.1742  0.2408  0.4108
   98SAPS  H10X 9848   4.142   4.040   7.779  0.3359 -2.3245  1.0378
   98SAPS  H10Y 9849   4.286   4.146   7.728 -1.3438 -0.1158 -2.7701
   98SAPS  C311 9850   4.337   3.989   7.870 -0.6938 -0.7489  0.2122
   98SAPS  H11X 9851   4.393   4.079   7.905 -1.1661 -0.8412  1.2540
   98SAPS  H11Y 9852   4.405   3.920   7.815  0.1526  0.3891 -0.2177
   98SAPS  C312 9853   4.266   3.916   7.991  0.2979 -0.4593 -0.8204
   98SAPS  H12X 9854   4.341   3.856   8.046  0.0102 -0.1484 -0.0836
   98SAPS  H12Y 9855   4.190   3.853   7.941 -1.2394 -0.7161  1.6910
   98SAPS  C313 9856   4.208   4.017   8.086 -0.0898 -0.5063  0.2954
   98SAPS  H13X 9857   4.154   4.093   8.026  0.8167  0.8174  1.1023
   98SAPS  H13Y 9858   4.283   4.073   8.146  0.1508 -1.7378  1.1839
   98SAPS  C314 9859   4.094   3.956   8.160 -0.0826 -0.3766 -0.4304
   98SAPS  H14X 9860   4.139   3.897   8.242 -0.5467  0.6867  0.6280
   98SAPS  H14Y 9861   4.030   3.886   8.101 -1.1891 -0.0302  0.3312
   98SAPS  C315 9862   4.003   4.068   8.229  0.4542  0.5935 -0.2692
   98SAPS  H15X 9863   3.948   4.133   8.158 -1.8922 -1.1521 -0.1703
   98SAPS  H15Y 9864   4.075   4.112   8.300  0.6226 -0.5541  0.2941
   98SAPS  C316 9865   3.893   4.003   8.322 -0.2195  0.8645 -0.1090
   98SAPS  H16X 9866   3.947   3.944   8.400  0.1477  1.9194  0.4506
   98SAPS  H16Y 9867   3.833   3.944   8.250  1.3234 -0.6397 -0.2280
   98SAPS  C317 9868   3.804   4.108   8.403  0.4227  0.3441  0.2610
   98SAPS  H17X 9869   3.734   4.047   8.463  0.6419  1.3404  1.5872
   98SAPS  H17Y 9870   3.750   4.168   8.328  1.1987  0.0267 -0.5720
   98SAPS  C318 9871   3.883   4.202   8.486  0.2568 -0.3441 -0.1931
   98SAPS  H18X 9872   3.815   4.273   8.539  1.3417  0.4103  0.2114
   98SAPS  H18Y 9873   3.960   4.255   8.426  2.6247 -0.7972  2.2598
   98SAPS  H18Z 9874   3.934   4.147   8.567  0.9564 -2.8551 -2.1988
   99SAPS     N 9875   6.058   3.723   6.307  0.2303 -0.1344  0.5440
   99SAPS   HN1 9876   6.045   3.824   6.285 -0.3030 -0.3706 -0.2386
   99SAPS   HN2 9877   6.019   3.702   6.401  0.8610  3.3432  1.7152
   99SAPS   HN3 9878   6.161   3.713   6.301  0.1147 -0.3514 -3.4199
   99SAPS   C12 9879   6.015   3.633   6.193  0.3516 -0.3886 -0.5937
   99SAPS  H12A 9880   5.929   3.677   6.145  1.3874 -1.2054 -3.4037
   99SAPS   C13 9881   6.121   3.612   6.082  0.2537  0.0544  0.4480
   99SAPS  O13A 9882   6.237   3.650   6.096  0.2273  0.0067 -0.4855
   99SAPS  O13B 9883   6.080   3.563   5.971 -0.3485 -0.2785 -0.2257
   99SAPS   C11 9884   5.981   3.498   6.262  0.9456 -0.1552  0.1132
   99SAPS  H11A 9885   5.937   3.438   6.180 -1.2851  0.2579  0.9115
   99SAPS  H11B 9886   5.893   3.516   6.328 -0.8070  1.6273 -2.4908
   99SAPS     P 9887   6.083   3.293   6.375 -0.4898 -0.1651 -0.0854
   99SAPS   O13 9888   6.058   3.219   6.247  0.1884  0.3040  0.7097
   99SAPS   O14 9889   6.205   3.253   6.451  0.3244 -0.4847  0.2187
   99SAPS   O12 9890   6.083   3.442   6.337 -0.0274 -0.8859 -0.4284
   99SAPS   O11 9891   5.956   3.275   6.476 -0.6226  0.1091  0.3156
   99SAPS    C1 9892   5.949   3.371   6.584 -0.1999 -0.3791  0.3393
   99SAPS    HA 9893   6.015   3.458   6.569 -0.9660  0.5495  2.0297
   99SAPS    HB 9894   5.850   3.422   6.586 -0.9200 -1.5140 -2.1296
   99SAPS    C2 9895   5.975   3.301   6.723  0.3279 -0.3942  0.7637
   99SAPS    HS 9896   6.067   3.240   6.717  0.3242 -0.4508  1.2760
   99SAPS   O21 9897   5.860   3.215   6.754  0.3397  0.1158 -0.8737
   99SAPS   C21 9898   5.893   3.101   6.809 -0.2252  0.5765  0.3326
   99SAPS   O22 9899   6.008   3.055   6.820  0.0772  0.3033 -0.0301
   99SAPS   C22 9900   5.777   3.036   6.883  0.1496  0.3603 -0.3547
   99SAPS   H2R 9901   5.782   2.929   6.853  0.3749  0.5983 -1.2027
   99SAPS   H2S 9902   5.794   3.034   6.992 -4.7955  0.1233  0.6789
   99SAPS    C3 9903   6.002   3.415   6.826  0.0127  0.1163  0.3180
   99SAPS    HX 9904   5.916   3.481   6.802  0.6985  0.3478 -1.7784
   99SAPS    HY 9905   6.094   3.469   6.797 -0.4627  0.6958 -0.1488
   99SAPS   O31 9906   6.012   3.373   6.965 -0.5327 -0.1295 -0.3429
   99SAPS   C31 9907   5.931   3.430   7.047 -0.4329  0.1728  0.4469
   99SAPS   O32 9908   5.838   3.502   7.022 -0.3731 -0.4139 -0.1276
   99SAPS   C32 9909   5.988   3.405   7.187  0.2791 -0.9149  0.1176
   99SAPS   H2X 9910   6.062   3.487   7.206 -0.7879 -0.3482  2.1409
   99SAPS   H2Y 9911   6.036   3.307   7.204 -0.2523 -0.8532  2.2411
   99SAPS   C23 9912   5.646   3.116   6.863 -0.7099  0.1216  0.4174
   99SAPS   H3R 9913   5.624   3.124   6.755 -1.5556 -1.4355  0.4363
   99SAPS   H3S 9914   5.664   3.214   6.912 -1.3773 -0.8980  2.8972
   99SAPS   C24 9915   5.525   3.036   6.907 -0.5006  0.9061  0.2909
   99SAPS   H4R 9916   5.560   2.997   7.005 -1.3866 -1.7649 -0.3541
   99SAPS   H4S 9917   5.508   2.944   6.847  0.6270  0.5007  0.5738
   99SAPS   C25 9918   5.409   3.119   6.917  0.0478  0.6740  0.6191
   99SAPS   H5R 9919   5.418   3.223   6.880 -1.3391  0.3285 -0.7992
   99SAPS   C26 9920   5.307   3.094   7.002 -0.0670  0.5002  0.8071
   99SAPS   H6R 9921   5.230   3.173   7.011 -0.2040  0.4614  0.0436
   99SAPS   C27 9922   5.293   2.979   7.100 -0.3378 -0.5892 -0.1416
   99SAPS   H7R 9923   5.250   3.016   7.195 -1.4967 -1.2283 -0.3835
   99SAPS   H7S 9924   5.392   2.941   7.129 -0.2152  1.2734  2.1371
   99SAPS   C28 9925   5.215   2.868   7.037 -0.6082 -0.8164 -0.5782
   99SAPS   H8R 9926   5.255   2.812   6.951  1.1261 -1.6025  0.6660
   99SAPS   C29 9927   5.083   2.850   7.076  0.3957  0.0394 -0.8840
   99SAPS   H9R 9928   5.020   2.794   7.005  0.8409  0.5468 -1.6981
   99SAPS  C210 9929   5.007   2.932   7.184  0.3528 -0.8203 -0.1510
   99SAPS  H10R 9930   4.994   3.037   7.151 -0.1404 -0.9261 -0.3023
   99SAPS  H10S 9931   5.066   2.936   7.278  0.8966  0.4639 -0.5228
   99SAPS  C211 9932   4.873   2.870   7.216  0.6067  0.1935  0.4903
   99SAPS  H11R 9933   4.821   2.835   7.125  1.3219 -1.2858  0.6257
   99SAPS  C212 9934   4.811   2.864   7.332  0.4276 -0.4340 -0.4498
   99SAPS  H12R 9935   4.713   2.814   7.336  1.0672 -1.8180 -1.3637
   99SAPS  C213 9936   4.859   2.915   7.468 -0.0574 -0.2530  0.4188
   99SAPS  H13R 9937   4.840   3.024   7.474  1.9302  0.2133 -0.8541
   99SAPS  H13S 9938   4.969   2.899   7.464 -0.0977 -0.5552  0.4704
   99SAPS  C214 9939   4.800   2.840   7.582 -0.3560 -0.0240  0.6804
   99SAPS  H14R 9940   4.749   2.749   7.547  0.5539  0.2908 -1.6143
   99SAPS  C215 9941   4.795   2.875   7.707  0.0457 -0.1951  0.0824
   99SAPS  H15R 9942   4.743   2.809   7.779 -0.6426  2.3576  2.0609
   99SAPS  C216 9943   4.845   3.005   7.755 -0.3126  0.3072  0.1292
   99SAPS  H16R 9944   4.752   3.063   7.776 -1.5257 -0.9397 -1.5423
   99SAPS  H16S 9945   4.894   3.070   7.679  0.6353  0.6333  0.9813
   99SAPS  C217 9946   4.932   3.022   7.886  0.6858 -0.7480  0.4406
   99SAPS  H17R 9947   4.869   3.005   7.976  0.7812 -0.9851  0.4631
   99SAPS  H17S 9948   4.955   3.130   7.886 -3.3336  0.2751  1.3572
   99SAPS  C218 9949   5.064   2.935   7.894 -0.3111  0.2212  1.1081
   99SAPS  H18R 9950   5.127   2.949   7.804 -1.8121 -1.1007 -0.1912
   99SAPS  H18S 9951   5.030   2.829   7.896  0.8389 -0.1767  0.3037
   99SAPS  C219 9952   5.138   2.964   8.025  0.1617  0.0356  0.7130
   99SAPS  H19R 9953   5.203   2.877   8.042  0.4265  0.1652  0.3743
   99SAPS  H19S 9954   5.064   2.963   8.108 -0.5780  2.8217  0.2001
   99SAPS  C220 9955   5.226   3.085   8.036  0.4172  0.0910 -0.0222
   99SAPS  H20R 9956   5.310   3.080   8.109 -1.1911  1.9091  2.1279
   99SAPS  H20S 9957   5.173   3.183   8.043  1.5270  0.7865 -0.9422
   99SAPS  H20T 9958   5.280   3.081   7.939 -1.3456  1.1695 -1.1039
   99SAPS   C33 9959   5.877   3.405   7.296  0.6352  0.0490 -0.0341
   99SAPS   H3X 9960   5.805   3.321   7.282  1.3451 -0.1863 -2.9048
   99SAPS   H3Y 9961   5.812   3.496   7.294  1.5588  0.7111 -0.3207
   99SAPS   C34 9962   5.943   3.391   7.435 -0.1640  0.7941 -0.5755
   99SAPS   H4X 9963   5.999   3.486   7.444 -0.0515  0.6775 -0.0241
   99SAPS   H4Y 9964   6.018   3.310   7.451 -1.5809 -0.3361  0.5738
   99SAPS   C35 9965   5.829   3.378   7.547 -0.6414 -0.4894 -0.4555
   99SAPS   H5X 9966   5.794   3.275   7.528 -0.3255 -0.5778 -0.5704
   99SAPS   H5Y 9967   5.746   3.449   7.526 -1.0870 -0.6368  0.7315
   99SAPS   C36 9968   5.887   3.371   7.691 -0.0126  0.0130 -0.0865
   99SAPS   H6X 9969   5.950   3.460   7.711 -0.3326  0.4134 -0.8052
   99SAPS   H6Y 9970   5.948   3.278   7.687 -0.7815 -0.4756 -0.8272
   99SAPS   C37 9971   5.779   3.355   7.797 -0.4599 -0.2758  0.0962
   99SAPS   H7X 9972   5.711   3.269   7.781 -1.4222  0.2450  1.2761
   99SAPS   H7Y 9973   5.720   3.448   7.805  1.3675  0.9652 -0.2993
   99SAPS   C38 9974   5.827   3.323   7.941 -0.5047  0.4781 -0.0019
   99SAPS   H8X 9975   5.846   3.214   7.938  0.6590  0.5873  1.8425
   99SAPS   H8Y 9976   5.738   3.346   8.004 -0.5564  1.3321 -0.3704
   99SAPS   C39 9977   5.953   3.392   7.998 -0.3908  0.9049  0.6965
   99SAPS   H9X 9978   5.928   3.500   7.999 -0.0920  1.0037 -0.6138
   99SAPS   H9Y 9979   6.043   3.383   7.933 -3.6271 -0.0289 -4.0869
   99SAPS  C310 9980   5.985   3.350   8.141  0.3275  0.9453 -0.0137
   99SAPS  H10X 9981   6.067   3.416   8.179 -0.8602  1.6070  1.5021
   99SAPS  H10Y 9982   6.018   3.244   8.143 -0.9801  0.5285  1.1203
   99SAPS  C311 9983   5.859   3.372   8.230 -0.0109 -0.2437  0.3852
   99SAPS  H11X 9984   5.803   3.277   8.240 -4.0351  1.6646 -1.4047
   99SAPS  H11Y 9985   5.791   3.442   8.176  1.1522  1.1153  0.6208
   99SAPS  C312 9986   5.885   3.429   8.369 -1.0343 -0.1735  0.6110
   99SAPS  H12X 9987   5.963   3.361   8.410  1.6962  0.1288 -3.5234
   99SAPS  H12Y 9988   5.796   3.417   8.435 -2.8650  1.9736 -1.2875
   99SAPS  C313 9989   5.920   3.581   8.380  0.1251  0.4178  0.4554
   99SAPS  H13X 9990   5.842   3.643   8.331 -1.9750 -0.4624  2.4945
   99SAPS  H13Y 9991   6.019   3.600   8.333 -1.0754  1.7871 -1.6883
   99SAPS  C314 9992   5.933   3.631   8.532 -0.1024  0.1851  0.1739
   99SAPS  H14X 9993   6.012   3.558   8.559 -0.5834 -0.7375 -0.8715
   99SAPS  H14Y 9994   5.837   3.601   8.580 -0.2315 -0.3680 -0.4228
   99SAPS  C315 9995   5.964   3.777   8.563 -0.3232  0.3683  0.9099
   99SAPS  H15X 9996   5.875   3.842   8.563 -1.3481 -0.9826 -0.0346
   99SAPS  H15Y 9997   6.021   3.811   8.474 -3.0570  0.2862 -0.9614
   99SAPS  C316 9998   6.042   3.808   8.691  0.4120 -0.6844  0.1212
   99SAPS  H16X 9999   6.077   3.914   8.692 -0.9611 -0.2033  1.9236
   99SAPS  H16Y10000   6.139   3.756   8.679  0.8214  0.5696 -3.0819
   99SAPS  C31710001   5.967   3.775   8.820 -0.4776  0.2689 -0.1729
   99SAPS  H17X10002   5.929   3.671   8.814  0.5649 -0.1980  0.9805
   99SAPS  H17Y10003   5.873   3.834   8.815 -1.1011 -0.3700  2.5521
   99SAPS  C31810004   6.042   3.793   8.953 -0.4990  0.7070  0.0162
   99SAPS  H18X10005   6.119   3.716   8.974 -2.1311 -0.9904  0.0971
   99SAPS  H18Y10006   5.970   3.775   9.036  0.6776  1.0050  1.1415
   99SAPS  H18Z10007   6.078   3.896   8.971  1.9250 -0.2053  0.7282
  100SAPS     N10008   0.549   2.132   5.988 -0.3263 -0.2133  0.0663
  100SAPS   HN110009   0.577   2.137   6.088 -2.6230  4.0388  0.7224
  100SAPS   HN210010   0.544   2.230   5.955 -6.0881  0.6540  2.4087
  100SAPS   HN310011   0.453   2.093   5.991 -0.4924  0.2230  1.6452
  100SAPS   C1210012   0.639   2.058   5.887  0.3553 -0.8299  0.0970
  100SAPS  H12A10013   0.583   2.046   5.795  0.6225 -0.4834 -0.1134
  100SAPS   C1310014   0.771   2.127   5.849 -1.0355 -0.0498 -0.4559
  100SAPS  O13A10015   0.805   2.239   5.904  0.2921 -0.4079  0.6564
  100SAPS  O13B10016   0.842   2.074   5.766 -0.1644 -0.2224 -0.1249
  100SAPS   C1110017   0.669   1.921   5.951 -0.4690 -0.3022 -0.7174
  100SAPS  H11A10018   0.708   1.938   6.053 -0.6151 -0.8673 -0.5637
  100SAPS  H11B10019   0.743   1.869   5.887  0.1482 -0.4025  0.0759
  100SAPS     P10020   0.535   1.703   6.018 -0.1934 -0.1265  0.4013
  100SAPS   O1310021   0.396   1.652   6.015  0.0229  0.0624  0.1886
  100SAPS   O1410022   0.644   1.621   5.959 -0.2775  0.9610 -0.1981
  100SAPS   O1210023   0.546   1.849   5.947 -0.0795  0.4386  0.5449
  100SAPS   O1110024   0.571   1.743   6.162  0.4269  0.3251  0.3436
  100SAPS    C110025   0.520   1.843   6.245 -0.3491  0.6537 -0.6281
  100SAPS    HA10026   0.607   1.901   6.281 -0.9118  2.0247 -1.4279
  100SAPS    HB10027   0.448   1.917   6.204 -2.0481  1.0108  2.6314
  100SAPS    C210028   0.437   1.774   6.356 -0.7246  0.0881  0.3738
  100SAPS    HS10029   0.374   1.689   6.320 -0.1246  0.2217 -1.0939
  100SAPS   O2110030   0.365   1.878   6.436  0.4223  0.0052  0.1001
  100SAPS   C2110031   0.238   1.890   6.394 -0.3756  0.0985 -1.3352
  100SAPS   O2210032   0.189   1.851   6.289 -0.2900 -0.0241  0.2123
  100SAPS   C2210033   0.165   1.957   6.498  0.2922 -0.7970 -0.0050
  100SAPS   H2R10034   0.228   2.043   6.531  1.3105 -1.1390 -0.9947
  100SAPS   H2S10035   0.070   2.004   6.465  1.2719  1.3578  0.0105
  100SAPS    C310036   0.551   1.716   6.452  0.2726  0.5342 -0.2826
  100SAPS    HX10037   0.601   1.810   6.486 -0.5968  0.8534  0.1691
  100SAPS    HY10038   0.622   1.654   6.395 -0.8580 -1.1574  0.0712
  100SAPS   O3110039   0.494   1.646   6.567  0.2064  0.0484 -0.0161
  100SAPS   C3110040   0.593   1.582   6.634 -0.8526  0.2864  0.1979
  100SAPS   O3210041   0.711   1.582   6.599  0.6202  0.4429 -0.7755
  100SAPS   C3210042   0.547   1.536   6.763  0.2762 -0.0381 -0.3491
  100SAPS   H2X10043   0.511   1.432   6.766 -0.5793  0.2488  3.0344
  100SAPS   H2Y10044   0.468   1.610   6.788  0.5205  0.8530 -2.0488
  100SAPS   C2310045   0.125   1.866   6.623  1.2865 -0.0766  0.3017
  100SAPS   H3R10046   0.089   1.765   6.593  1.4543 -0.9676  2.8688
  100SAPS   H3S10047   0.043   1.924   6.671  0.6266  0.8456 -1.8042
  100SAPS   C2410048   0.222   1.861   6.741 -0.2208  0.6881 -0.0454
  100SAPS   H4R10049   0.256   1.965   6.759  0.7701 -0.0367  2.7821
  100SAPS   H4S10050   0.303   1.798   6.696 -1.1077 -0.6012  0.0871
  100SAPS   C2510051   0.176   1.791   6.866  0.0044  0.5892 -0.3852
  100SAPS   H5R10052   0.150   1.685   6.855 -0.3667  0.4647  1.3093
  100SAPS   C2610053   0.148   1.837   6.991  0.9960  0.2132  0.0966
  100SAPS   H6R10054   0.113   1.776   7.076 -1.7193  0.9691 -0.3820
  100SAPS   C2710055   0.159   1.982   7.030  0.3816 -0.6823 -0.4414
  100SAPS   H7R10056   0.211   2.049   6.959  1.8827  1.3628  2.3707
  100SAPS   H7S10057   0.220   1.992   7.123 -2.3381  2.2545  1.2368
  100SAPS   C2810058   0.016   2.035   7.050 -0.8591  0.1996 -0.4157
  100SAPS   H8R10059  -0.027   2.082   6.960  0.8892  1.6767 -0.5175
  100SAPS   C2910060  -0.039   2.052   7.171  0.1894 -0.3487  0.3192
  100SAPS   H9R10061  -0.145   2.080   7.172 -0.1430 -1.1561 -2.6409
  100SAPS  C21010062   0.006   2.010   7.307 -0.9190 -0.5916  0.2993
  100SAPS  H10R10063   0.065   1.916   7.300  2.3338  1.3604 -0.9284
  100SAPS  H10S10064  -0.084   1.984   7.365  0.3211  0.1948  2.6876
  100SAPS  C21110065   0.090   2.119   7.369  0.7453  0.9005 -0.4478
  100SAPS  H11R10066   0.089   2.212   7.310 -2.8475 -1.1058 -4.0917
  100SAPS  C21210067   0.170   2.108   7.476 -0.3814  0.2277  0.8290
  100SAPS  H12R10068   0.224   2.196   7.515  3.6800 -0.5662 -2.4007
  100SAPS  C21310069   0.189   1.984   7.555  0.2320  0.4949  0.1163
  100SAPS  H13R10070   0.268   1.995   7.632  1.7239 -1.7734 -0.9482
  100SAPS  H13S10071   0.235   1.913   7.482  0.0758 -0.4620  0.9185
  100SAPS  C21410072   0.071   1.914   7.610 -0.2104  0.4125 -0.4204
  100SAPS  H14R10073   0.006   1.870   7.532 -0.6722 -0.2266  0.3121
  100SAPS  C21510074   0.027   1.909   7.742 -0.5455  0.2034 -0.0892
  100SAPS  H15R10075  -0.056   1.845   7.775  0.2738  0.2154  2.1451
  100SAPS  C21610076   0.114   1.971   7.847 -0.1885  0.3143 -0.6149
  100SAPS  H16R10077   0.044   2.013   7.924  0.2424  1.4814 -0.8360
  100SAPS  H16S10078   0.177   2.056   7.814 -0.2514  0.6060 -0.0077
  100SAPS  C21710079   0.198   1.864   7.931 -0.4106 -0.0616  0.8597
  100SAPS  H17R10080   0.243   1.914   8.019 -2.1311  0.0076  1.7364
  100SAPS  H17S10081   0.277   1.819   7.867  0.6500 -1.2283  2.9076
  100SAPS  C21810082   0.124   1.749   7.993 -0.0573 -0.2042  0.4389
  100SAPS  H18R10083   0.086   1.684   7.910  0.8317  0.9266 -0.9018
  100SAPS  H18S10084   0.039   1.802   8.040  0.5795  2.6891 -1.4351
  100SAPS  C21910085   0.216   1.668   8.085 -0.0492  0.3100 -0.4786
  100SAPS  H19R10086   0.259   1.741   8.158  0.0147 -1.4265  1.2935
  100SAPS  H19S10087   0.294   1.613   8.028  0.5088 -0.7509  1.2321
  100SAPS  C22010088   0.143   1.567   8.170  0.4157 -0.3121  0.2690
  100SAPS  H20R10089   0.108   1.486   8.103 -0.4697  2.6857 -3.2506
  100SAPS  H20S10090   0.057   1.611   8.225 -1.0693 -1.2218 -1.2403
  100SAPS  H20T10091   0.212   1.518   8.241 -0.7512 -2.4513  0.0019
  100SAPS   C3310092   0.655   1.545   6.879 -0.3162  0.1759 -1.0679
  100SAPS   H3X10093   0.698   1.647   6.888 -2.7605  1.2153  0.0275
  100SAPS   H3Y10094   0.739   1.480   6.849  0.4707 -0.3489  1.8819
  100SAPS   C3410095   0.598   1.490   7.009  0.7022  0.0203  0.0675
  100SAPS   H4X10096   0.554   1.394   6.975  0.4174 -0.1416  0.8627
  100SAPS   H4Y10097   0.508   1.542   7.048  0.7946  0.2595 -0.0334
  100SAPS   C3510098   0.710   1.454   7.111  0.3277 -0.5778 -0.5651
  100SAPS   H5X10099   0.744   1.552   7.151 -1.5018  0.6050 -1.7876
  100SAPS   H5Y10100   0.790   1.405   7.052 -0.2495 -1.5287 -0.5690
  100SAPS   C3610101   0.657   1.377   7.235 -0.9023 -0.7825  0.0486
  100SAPS   H6X10102   0.668   1.267   7.225  4.0823 -0.5720  1.0307
  100SAPS   H6Y10103   0.551   1.406   7.253 -0.8046  0.3684 -1.0684
  100SAPS   C3710104   0.732   1.416   7.366  0.0611  0.0840  0.0874
  100SAPS   H7X10105   0.749   1.525   7.360  0.9171 -0.0735 -0.5267
  100SAPS   H7Y10106   0.828   1.363   7.382  0.8185  2.2454  4.1355
  100SAPS   C3810107   0.650   1.384   7.485 -0.3151 -0.5623 -1.0062
  100SAPS   H8X10108   0.624   1.276   7.481  2.2355 -1.4241  1.5972
  100SAPS   H8Y10109   0.556   1.442   7.481  0.1461  0.1896 -1.3797
  100SAPS   C3910110   0.710   1.410   7.623 -1.0674 -0.4937 -0.1917
  100SAPS   H9X10111   0.750   1.513   7.632  1.2588 -1.4540  1.7853
  100SAPS   H9Y10112   0.800   1.346   7.638 -0.3832  0.1731 -1.3334
  100SAPS  C31010113   0.609   1.377   7.734  0.1627 -0.1341 -0.0126
  100SAPS  H10X10114   0.576   1.271   7.732 -0.0917 -0.0822  1.0547
  100SAPS  H10Y10115   0.518   1.440   7.721  0.3015  0.0534 -0.0794
  100SAPS  C31110116   0.677   1.410   7.865  0.2031 -0.0222  0.2847
  100SAPS  H11X10117   0.698   1.519   7.866 -0.0840  0.0426  2.4596
  100SAPS  H11Y10118   0.772   1.355   7.878 -0.5078 -0.9192  1.8773
  100SAPS  C31210119   0.592   1.387   7.987  0.3835  0.2294  0.0275
  100SAPS  H12X10120   0.569   1.279   7.998 -0.8852  0.2590 -1.8686
  100SAPS  H12Y10121   0.496   1.442   7.980  2.0521  3.6207  1.5504
  100SAPS  C31310122   0.660   1.420   8.123  0.4343 -0.2357  0.0642
  100SAPS  H13X10123   0.699   1.524   8.124  1.1611 -0.4968 -0.4565
  100SAPS  H13Y10124   0.748   1.354   8.140  0.2077 -0.4861  0.2848
  100SAPS  C31410125   0.557   1.415   8.231  0.1317  0.3150  0.7337
  100SAPS  H14X10126   0.510   1.314   8.241  0.8110  0.2082  4.2103
  100SAPS  H14Y10127   0.465   1.474   8.213  0.8917  1.8504  1.6524
  100SAPS  C31510128   0.609   1.445   8.372  0.2203 -0.1779  0.1249
  100SAPS  H15X10129   0.677   1.532   8.365 -1.7594  1.6126  1.6396
  100SAPS  H15Y10130   0.665   1.355   8.405 -0.5128 -1.4057 -1.7997
  100SAPS  C31610131   0.497   1.474   8.468  0.2765  0.2733 -0.8663
  100SAPS  H16X10132   0.434   1.383   8.478 -0.1853  0.5077 -1.5720
  100SAPS  H16Y10133   0.434   1.560   8.435 -1.0080 -0.8003 -1.3006
  100SAPS  C31710134   0.554   1.510   8.608 -0.3685 -0.3203  0.1732
  100SAPS  H17X10135   0.627   1.434   8.643  0.3033 -0.3852 -1.2780
  100SAPS  H17Y10136   0.471   1.513   8.682 -0.4403  0.0587  0.0771
  100SAPS  C31810137   0.609   1.648   8.607 -0.3540 -0.4952  0.7715
  100SAPS  H18X10138   0.689   1.664   8.532  0.3139  0.3125  1.6393
  100SAPS  H18Y10139   0.666   1.669   8.700  1.2952 -0.0491 -0.3012
  100SAPS  H18Z10140   0.526   1.719   8.587  1.1176  1.0688  0.0138
  101OSM      N10141   4.230   4.044  10.880  0.7841 -0.1976  0.4792
  101OSM    C1510142   4.242   4.175  10.947 -0.0561 -0.2948  0.2182
  101OSM   H15A10143   4.154   4.234  10.928  0.6659  1.1517  1.2305
  101OSM   H15B10144   4.330   4.226  10.910  1.0569 -0.4784  2.4424
  101OSM   H15C10145   4.252   4.167  11.054 -0.3146  0.2511  0.2859
  101OSM    C1410146   4.248   4.060  10.735  0.1174  0.0452 -0.2978
  101OSM   H14A10147   4.267   3.961  10.697 -0.2820 -2.1018  4.3594
  101OSM   H14B10148   4.348   4.099  10.723  0.8927 -2.3075 -2.1789
  101OSM   H14C10149   4.172   4.119  10.685  0.0177 -0.2952 -0.5463
  101OSM    C1310150   4.336   3.954  10.934 -0.4433 -1.0248  0.3045
  101OSM   H13A10151   4.436   3.974  10.898 -0.6720  0.2620  0.3065
  101OSM   H13B10152   4.310   3.857  10.896 -0.8720 -0.6685 -0.3303
  101OSM   H13C10153   4.326   3.964  11.041  2.2298 -1.9004  0.7220
  101OSM    C1210154   4.093   3.985  10.906 -0.0164  0.6276 -0.3097
  101OSM   H12A10155   4.073   3.961  11.009 -1.9795 -2.1940 -1.2244
  101OSM   H12B10156   4.077   3.898  10.845  1.0477 -1.2527  1.9639
  101OSM    C1110157   3.974   4.078  10.879 -0.1083  0.5699 -0.2917
  101OSM   H11A10158   3.878   4.022  10.890  0.4986 -0.3031  0.6940
  101OSM   H11B10159   3.983   4.119  10.776  2.1199  0.4089 -0.2022
  101OSM      P10160   3.886   4.318  10.954 -0.2156  0.3306 -0.2062
  101OSM    O1310161   3.750   4.300  11.004 -0.4812  0.2849  0.2556
  101OSM    O1410162   3.965   4.421  11.029  0.1844 -0.2077 -0.4181
  101OSM    O1110163   3.887   4.343  10.797 -0.8169  0.3984  0.3747
  101OSM    O1210164   3.969   4.183  10.982  0.5143  0.0838  0.0312
  101OSM    C1S10165   3.795   4.277  10.706 -0.4736 -0.2665  0.0935
  101OSM    H1S10166   3.705   4.341  10.715 -0.3941 -0.4283  3.8712
  101OSM    H1T10167   3.771   4.174  10.739  1.9075 -0.1039  2.7848
  101OSM     NF10168   3.760   4.186  10.466 -0.1787 -0.3189 -0.3201
  101OSM    HNF10169   3.815   4.108  10.437  3.1378  0.6994  2.5271
  101OSM    C2S10170   3.844   4.278  10.553  0.1759  0.0344  0.9606
  101OSM    H2S10171   3.825   4.382  10.519  0.0687  0.2757  1.7440
  101OSM    C3S10172   3.996   4.253  10.532  0.1220 -0.1143  0.8326
  101OSM    H3S10173   4.025   4.151  10.564 -0.2041 -0.5899 -0.3393
  101OSM     O310174   4.081   4.329  10.612 -0.1420  0.3645 -0.2902
  101OSM    HO310175   4.028   4.356  10.687 -1.0246 -1.9334 -0.0146
  101OSM    C4S10176   4.038   4.289  10.389 -0.1177  0.3353 -0.0835
  101OSM    H4S10177   3.991   4.386  10.369 -0.8413 -0.1047 -0.5894
  101OSM    C5S10178   4.123   4.224  10.303  0.7832 -0.3509 -0.1869
  101OSM    H5S10179   4.178   4.137  10.341  1.6225  0.3126  0.1636
  101OSM    C6S10180   4.163   4.259  10.164  0.4465 -0.0900 -0.2281
  101OSM    H6S10181   4.256   4.202  10.139  1.8209  1.7707  0.4071
  101OSM    H6T10182   4.188   4.367  10.151 -2.5221  0.6015 -0.9079
  101OSM    C7S10183   4.057   4.238  10.051  0.4422  0.0910  0.0896
  101OSM    H7S10184   3.967   4.296  10.078 -0.6420 -1.3106 -0.3905
  101OSM    H7T10185   4.039   4.129  10.037 -2.7536  0.4375  0.7349
  101OSM    C8S10186   4.110   4.296   9.921  0.9131 -0.4470 -0.5879
  101OSM    H8S10187   4.218   4.272   9.916  1.2363  0.1841  2.0641
  101OSM    H8T10188   4.110   4.407   9.924  0.2137 -0.4510 -0.1481
  101OSM    C9S10189   4.040   4.267   9.791  0.2427 -0.0335  0.4234
  101OSM    H9S10190   3.947   4.325   9.809  0.8089  1.3346 -0.7951
  101OSM    H9T10191   4.023   4.158   9.784  0.2805 -0.0505  0.5992
  101OSM   C10S10192   4.107   4.320   9.657 -0.5041  0.2357 -0.0703
  101OSM   H10S10193   4.218   4.328   9.653 -0.3962 -1.3525 -1.7930
  101OSM   H10T10194   4.070   4.423   9.640  1.6076  0.7538 -1.9234
  101OSM   C11S10195   4.061   4.232   9.532 -0.8568 -0.6110 -0.6361
  101OSM   H11S10196   3.952   4.231   9.550 -0.7551  1.9278  0.6458
  101OSM   H11T10197   4.107   4.131   9.542  0.0533 -0.3469 -1.8302
  101OSM   C12S10198   4.091   4.310   9.399  0.0990 -0.5454 -0.2429
  101OSM   H12S10199   4.198   4.336   9.391 -0.4405  1.2413 -3.0426
  101OSM   H12T10200   4.036   4.406   9.402  0.9026 -0.0987  0.7761
  101OSM   C13S10201   4.041   4.240   9.273  0.2413 -0.2054 -0.2590
  101OSM   H13S10202   3.936   4.206   9.281  0.3173 -0.7489 -1.3827
  101OSM   H13T10203   4.111   4.157   9.247  1.6935  1.8553 -3.6581
  101OSM   C14S10204   4.058   4.334   9.153 -0.7186 -0.8360  0.2001
  101OSM   H14S10205   4.161   4.377   9.157 -0.9770  0.2576 -2.7690
  101OSM   H14T10206   3.996   4.426   9.152  0.7977  0.2371  0.6998
  101OSM   C15S10207   4.045   4.264   9.018 -0.3814  0.0474 -1.0403
  101OSM   H15S10208   4.126   4.187   9.014  1.3094  1.6449  0.3969
  101OSM   H15T10209   4.063   4.341   8.940  0.6333  0.9742  0.0694
  101OSM   C16S10210   3.912   4.191   8.991  0.8296  0.2420  0.0876
  101OSM   H16S10211   3.827   4.261   8.978  1.6052  1.2535  0.3327
  101OSM   H16T10212   3.883   4.121   9.073 -2.4496  2.2540  0.8273
  101OSM   C17S10213   3.931   4.109   8.862  0.6321  0.4207 -0.2221
  101OSM   H17S10214   3.986   4.013   8.879 -0.5349 -0.1726  0.3229
  101OSM   H17T10215   3.990   4.171   8.791 -0.0508  0.7526 -0.5053
  101OSM   C18S10216   3.796   4.074   8.795 -0.4088 -0.1846  0.0610
  101OSM   H18S10217   3.722   4.027   8.863 -0.7596  0.1035 -0.1197
  101OSM   H18T10218   3.818   4.008   8.709  1.7440  2.4788 -1.5883
  101OSM   H18U10219   3.753   4.170   8.758 -0.4125 -0.2979 -0.2297
  101OSM    C1F10220   3.629   4.193  10.466  0.3568  0.3813 -0.0013
  101OSM     OF10221   3.570   4.272  10.536 -0.4454  0.1727  0.3938
  101OSM    C2F10222   3.552   4.085  10.391  0.3663  0.4443 -0.6073
  101OSM    H2F10223   3.478   4.036  10.459  0.8737  1.1960  0.5176
  101OSM    H2G10224   3.623   4.004  10.364  1.6610  0.5686  2.1122
  101OSM    C3F10225   3.479   4.139  10.267  0.7420 -0.4122 -0.0609
  101OSM    H3F10226   3.407   4.215  10.303 -0.6214 -1.6110 -0.1823
  101OSM    H3G10227   3.414   4.064  10.217 -1.5696  1.3132  0.2283
  101OSM    C4F10228   3.580   4.216  10.169  0.1481 -0.6348 -0.0498
  101OSM    H4F10229   3.643   4.285  10.229 -0.0695  1.1828 -1.8307
  101OSM    H4G10230   3.521   4.279  10.099  0.4190 -0.2320  0.0822
  101OSM    C5F10231   3.676   4.124  10.098  0.4517 -0.0346  0.5486
  101OSM    H5F10232   3.732   4.049  10.156  0.1839  0.0371  0.9013
  101OSM    H5G10233   3.759   4.177  10.045  0.3205 -1.8505 -1.6082
  101OSM    C6F10234   3.594   4.055   9.981  0.1945  0.4912  0.6518
  101OSM    H6F10235   3.544   4.136   9.925  1.4769  0.3279 -0.8109
  101OSM    H6G10236   3.518   3.985  10.020  1.1616 -1.4647 -0.7800
  101OSM    C7F10237   3.686   3.976   9.888  0.1932 -0.0658  0.2987
  101OSM    H7F10238   3.623   3.913   9.821  1.0065 -0.9379  0.3332
  101OSM    H7G10239   3.744   3.910   9.956 -0.9163  1.3494  2.7164
  101OSM    C8F10240   3.760   4.065   9.787 -0.4489 -0.2263 -0.1656
  101OSM    H8F10241   3.846   4.010   9.744 -0.9742 -1.8249  0.7430
  101OSM    H8G10242   3.810   4.151   9.836 -3.3604  2.1530 -1.0279
  101OSM    C9F10243   3.682   4.125   9.668  0.1690  0.6177 -0.6728
  101OSM    H9F10244   3.670   4.232   9.689  1.8671  0.7208 -0.0114
  101OSM   C10F10245   3.640   4.061   9.561 -0.2454  0.3247 -0.7708
  101OSM   H10F10246   3.589   4.113   9.478  0.1230 -0.5254 -1.5437
  101OSM   C11F10247   3.657   3.918   9.530 -0.5270  0.0890 -0.0548
  101OSM   H11F10248   3.567   3.864   9.566 -0.7855  1.2542  1.1362
  101OSM   H11G10249   3.716   3.875   9.613 -0.5560  1.2823  0.6144
  101OSM   C12F10250   3.707   3.876   9.390  0.3231  0.5715 -0.0465
  101OSM   H12F10251   3.734   3.769   9.402  0.8613  0.7426  0.2802
  101OSM   H12G10252   3.799   3.929   9.360 -1.2576  1.8644 -3.0236
  101OSM   C13F10253   3.600   3.890   9.282 -0.3654 -0.0574  0.5377
  101OSM   H13F10254   3.568   3.997   9.275  1.4714  0.7400  3.0505
  101OSM   H13G10255   3.509   3.828   9.293 -0.2585 -0.6409 -1.4375
  101OSM   C14F10256   3.658   3.839   9.154  0.0653  0.1114  0.1877
  101OSM   H14F10257   3.682   3.733   9.180 -0.2486 -0.1843 -0.6712
  101OSM   H14G10258   3.755   3.886   9.127  1.8074 -1.9068  2.5013
  101OSM   C15F10259   3.560   3.840   9.035 -0.5411  0.0600  0.7205
  101OSM   H15F10260   3.552   3.946   9.003 -0.5224 -0.0670  0.2971
  101OSM   H15G10261   3.467   3.794   9.076  0.5409 -1.4863  1.5404
  101OSM   C16F10262   3.608   3.748   8.917  0.3424  0.1099  0.1428
  101OSM   H16F10263   3.609   3.640   8.944  1.7553 -0.5442 -2.2567
  101OSM   H16G10264   3.713   3.782   8.903  1.0296 -1.5678  0.8437
  101OSM   C17F10265   3.533   3.762   8.780  0.1299  0.1863  0.0533
  101OSM   H17F10266   3.523   3.871   8.766  2.0983  0.3959 -0.0717
  101OSM   H17G10267   3.439   3.703   8.789  1.6697 -2.3187  0.9917
  101OSM   C18F10268   3.620   3.705   8.664  0.1123  0.0040 -0.4522
  101OSM   H18F10269   3.617   3.594   8.662 -0.9904  0.0365 -1.5573
  101OSM   H18G10270   3.720   3.752   8.658 -0.3061  1.0027  0.1797
  101OSM   H18H10271   3.579   3.718   8.562 -2.2491 -2.0931  0.1204
  102OSM      N10272   5.831   3.249  11.020 -0.3398  0.3071  1.4503
  102OSM    C1510273   5.809   3.210  11.168 -0.2984 -0.2717  0.8247
  102OSM   H15A10274   5.710   3.171  11.186  0.0443 -1.8180 -0.3886
  102OSM   H15B10275   5.817   3.295  11.233 -1.8504 -0.3064  1.1139
  102OSM   H15C10276   5.874   3.129  11.197 -0.8824 -0.5889  1.2646
  102OSM    C1410277   5.945   3.338  11.025  0.2535  0.8196  0.7977
  102OSM   H14A10278   6.011   3.319  10.941 -0.7213 -0.2691  0.2466
  102OSM   H14B10279   6.007   3.313  11.109  1.6627  1.0715 -0.1282
  102OSM   H14C10280   5.915   3.442  11.022 -0.6310  0.5589  0.2636
  102OSM    C1310281   5.882   3.125  10.957 -0.0196  0.2281 -0.3434
  102OSM   H13A10282   5.804   3.050  10.953 -0.2033  0.1173  2.7264
  102OSM   H13B10283   5.964   3.088  11.018 -0.5106  0.8065  0.6987
  102OSM   H13C10284   5.909   3.150  10.856 -2.1911  3.1385 -0.3271
  102OSM    C1210285   5.706   3.294  10.950 -0.0185 -0.4744  0.1929
  102OSM   H12A10286   5.652   3.359  11.017  3.3855  1.7245  1.0847
  102OSM   H12B10287   5.641   3.210  10.932 -2.5698  1.3496  0.4149
  102OSM    C1110288   5.712   3.391  10.831 -0.2212  0.0871 -0.7345
  102OSM   H11A10289   5.610   3.424  10.801  0.1882  0.6860 -1.5143
  102OSM   H11B10290   5.752   3.348  10.737 -0.1872  0.5713 -0.9452
  102OSM      P10291   5.857   3.601  10.764 -0.2693 -0.1693  0.5081
  102OSM    O1310292   5.818   3.735  10.799  0.2392 -0.6847 -0.1454
  102OSM    O1410293   6.001   3.559  10.778  0.1599  0.4476  0.1674
  102OSM    O1110294   5.805   3.573  10.619  0.2293  0.5628 -0.0673
  102OSM    O1210295   5.783   3.514  10.863 -0.5140  0.1673  0.1700
  102OSM    C1S10296   5.679   3.604  10.565 -0.2261  0.0195 -0.3671
  102OSM    H1S10297   5.659   3.707  10.602  1.7557  0.6935 -1.0026
  102OSM    H1T10298   5.597   3.541  10.606 -0.7966  1.3575  0.6182
  102OSM     NF10299   5.531   3.633  10.379 -0.0157 -0.3448  0.3192
  102OSM    HNF10300   5.473   3.566  10.333  0.8637  0.7367 -2.5483
  102OSM    C2S10301   5.672   3.607  10.410 -0.0389  0.1416 -0.0715
  102OSM    H2S10302   5.729   3.695  10.373 -1.7384 -0.2293 -4.1075
  102OSM    C3S10303   5.722   3.474  10.350  0.2718 -0.1890  0.0519
  102OSM    H3S10304   5.661   3.386  10.382  1.4342 -1.0654 -0.0438
  102OSM     O310305   5.857   3.440  10.388  0.2861  0.1861 -0.2461
  102OSM    HO310306   5.878   3.496  10.464 -0.5745  0.9153 -0.5227
  102OSM    C4S10307   5.728   3.491  10.201 -0.6842 -0.6942 -0.0976
  102OSM    H4S10308   5.818   3.550  10.178 -0.3954  1.0134  4.4159
  102OSM    C5S10309   5.631   3.437  10.118 -0.3911  0.5549 -0.1615
  102OSM    H5S10310   5.549   3.384  10.168  0.3090  1.2340  1.7896
  102OSM    C6S10311   5.614   3.447   9.970 -0.5457  0.0231  0.5398
  102OSM    H6S10312   5.510   3.466   9.937 -0.5085  0.2809  0.5743
  102OSM    H6T10313   5.634   3.348   9.923 -0.2689  1.7817 -3.5324
  102OSM    C7S10314   5.729   3.523   9.895  0.2664  0.0456 -0.1693
  102OSM    H7S10315   5.829   3.485   9.923 -0.0843 -1.3757 -0.7856
  102OSM    H7T10316   5.724   3.633   9.912 -2.6894  0.0169 -0.2747
  102OSM    C8S10317   5.711   3.506   9.750 -0.6524  0.0219 -0.4125
  102OSM    H8S10318   5.609   3.548   9.733 -0.2041  1.5568  0.4314
  102OSM    H8T10319   5.701   3.397   9.733  0.4040 -0.1401 -0.0261
  102OSM    C9S10320   5.816   3.580   9.656 -0.8155 -0.2489 -0.3981
  102OSM    H9S10321   5.913   3.528   9.671 -1.3953 -1.8559 -1.7881
  102OSM    H9T10322   5.833   3.687   9.677 -1.3961  0.2608 -2.2841
  102OSM   C10S10323   5.768   3.557   9.509  0.7187 -0.3822 -0.2791
  102OSM   H10S10324   5.683   3.629   9.500  0.7775 -0.4293 -1.3219
  102OSM   H10T10325   5.711   3.462   9.503  0.2299 -0.1752  0.9594
  102OSM   C11S10326   5.873   3.575   9.404  0.6744 -0.9024  0.0600
  102OSM   H11S10327   5.927   3.480   9.381  0.6818 -0.9615  0.3235
  102OSM   H11T10328   5.945   3.651   9.441 -1.0254  0.8375 -0.0831
  102OSM   C12S10329   5.816   3.631   9.266 -0.5968  0.6045 -0.2439
  102OSM   H12S10330   5.906   3.647   9.202  0.8107 -0.4127  1.3937
  102OSM   H12T10331   5.781   3.730   9.300  1.6749  1.1305  0.7678
  102OSM   C13S10332   5.708   3.542   9.201 -0.0115  0.7669  0.2543
  102OSM   H13S10333   5.637   3.503   9.277  0.0725  0.3849  0.1394
  102OSM   H13T10334   5.761   3.460   9.147 -0.1910  2.1128 -2.1390
  102OSM   C14S10335   5.616   3.612   9.104  0.2514  0.4458  0.4715
  102OSM   H14S10336   5.531   3.666   9.150  0.9371  0.6536  1.5390
  102OSM   H14T10337   5.565   3.529   9.051  0.3080 -0.5916  1.9794
  102OSM   C15S10338   5.675   3.705   8.993  0.6139 -0.3205  0.5918
  102OSM   H15S10339   5.752   3.638   8.949  2.2519  0.6955  1.7985
  102OSM   H15T10340   5.721   3.795   9.040  0.5296 -0.9523  1.9556
  102OSM   C16S10341   5.569   3.763   8.897  0.1722 -0.5598  0.0615
  102OSM   H16S10342   5.576   3.873   8.890 -1.4610 -0.3134  1.6168
  102OSM   H16T10343   5.470   3.747   8.945 -0.1050  1.5341  0.2498
  102OSM   C17S10344   5.582   3.714   8.749 -0.1191  0.1601 -0.4966
  102OSM   H17S10345   5.613   3.607   8.746  0.0308  0.1815  0.1597
  102OSM   H17T10346   5.658   3.779   8.700 -0.8158  1.0847 -0.3721
  102OSM   C18S10347   5.457   3.726   8.668 -0.6082  0.0765  0.9269
  102OSM   H18S10348   5.380   3.782   8.725  0.7536 -0.6952  3.7172
  102OSM   H18T10349   5.424   3.625   8.636  1.1578 -1.4426  3.4612
  102OSM   H18U10350   5.476   3.792   8.581  0.8228  1.1912  2.0266
  102OSM    C1F10351   5.474   3.753  10.411  0.1515  0.2847  0.7797
  102OSM     OF10352   5.541   3.848  10.444  0.0459  0.5540 -0.5311
  102OSM    C2F10353   5.326   3.762  10.401  0.8241  0.4255 -0.1376
  102OSM    H2F10354   5.286   3.816  10.490 -1.7477 -1.9392  0.3102
  102OSM    H2G10355   5.277   3.662  10.411 -0.3572  0.9909 -0.1162
  102OSM    C3F10356   5.273   3.842  10.286  0.1243 -0.6552 -0.0491
  102OSM    H3F10357   5.314   3.946  10.290  0.3739 -0.8063  1.7663
  102OSM    H3G10358   5.162   3.850  10.288  0.2495  1.8251  2.0239
  102OSM    C4F10359   5.311   3.787  10.147 -0.6986  0.1610  0.5989
  102OSM    H4F10360   5.285   3.679  10.158  2.1480 -0.4594  2.2219
  102OSM    H4G10361   5.421   3.775  10.144 -0.7273 -1.3961  2.8348
  102OSM    C5F10362   5.281   3.885  10.031  0.0050  0.2160  0.2620
  102OSM    H5F10363   5.366   3.956  10.030  1.1583 -1.1245 -0.8393
  102OSM    H5G10364   5.194   3.950  10.055 -0.7491 -0.5527 -0.3424
  102OSM    C6F10365   5.281   3.817   9.895  0.4410  0.3075  0.4897
  102OSM    H6F10366   5.196   3.746   9.885  0.2855  0.6481 -0.7639
  102OSM    H6G10367   5.379   3.763   9.895  0.0585 -0.3980  0.8071
  102OSM    C7F10368   5.269   3.915   9.773 -0.2025  0.1156  0.1139
  102OSM    H7F10369   5.333   3.998   9.810 -0.2837 -0.1408  0.8291
  102OSM    H7G10370   5.164   3.950   9.764 -0.6733 -0.8875  1.5133
  102OSM    C8F10371   5.314   3.856   9.642 -0.4894  0.3609 -0.6565
  102OSM    H8F10372   5.254   3.766   9.616 -1.5516  0.8929 -0.1139
  102OSM    H8G10373   5.419   3.821   9.651 -0.8983 -0.3569  2.1086
  102OSM    C9F10374   5.316   3.957   9.529  0.4100 -0.1378 -0.1230
  102OSM    H9F10375   5.370   4.052   9.546 -1.5246  1.2260 -1.2736
  102OSM   C10F10376   5.266   3.940   9.411  0.6224 -0.2104  0.4969
  102OSM   H10F10377   5.274   4.013   9.329  1.0393 -0.9077 -0.0911
  102OSM   C11F10378   5.191   3.823   9.356  0.0169 -0.8551  0.4327
  102OSM   H11F10379   5.098   3.861   9.310  0.4553  0.3059  0.4815
  102OSM   H11G10380   5.165   3.738   9.423  0.8152 -0.7267  0.9232
  102OSM   C12F10381   5.275   3.753   9.244  0.0525 -0.2562  0.0627
  102OSM   H12F10382   5.382   3.745   9.272  0.6144  1.8493 -1.2322
  102OSM   H12G10383   5.275   3.817   9.153 -2.3762 -0.6271 -0.2714
  102OSM   C13F10384   5.214   3.613   9.218 -0.1609  0.4519 -0.6879
  102OSM   H13F10385   5.189   3.554   9.310  0.4416  1.5680  0.2144
  102OSM   H13G10386   5.300   3.563   9.169  0.5441  0.5151  0.4561
  102OSM   C14F10387   5.087   3.617   9.137 -0.5000  0.4761 -0.3386
  102OSM   H14F10388   5.099   3.686   9.051 -0.2204  0.6188 -0.1838
  102OSM   H14G10389   5.005   3.655   9.202  0.0878  1.0783  0.0547
  102OSM   C15F10390   5.049   3.479   9.079 -0.2080  0.6132 -0.3619
  102OSM   H15F10391   4.948   3.476   9.032 -0.7300 -0.9016  0.7593
  102OSM   H15G10392   5.039   3.409   9.165  0.4621 -1.4697 -1.8982
  102OSM   C16F10393   5.162   3.413   8.985 -0.8660 -0.1700 -0.1954
  102OSM   H16F10394   5.253   3.419   9.049 -0.5473 -0.7802 -0.5900
  102OSM   H16G10395   5.170   3.480   8.897 -2.9290 -1.1430 -1.1783
  102OSM   C17F10396   5.123   3.274   8.945  0.3136 -0.5929  0.3395
  102OSM   H17F10397   5.214   3.233   8.896  1.3046 -0.3312  1.8824
  102OSM   H17G10398   5.039   3.283   8.873 -1.4901  0.4593  2.4333
  102OSM   C18F10399   5.095   3.174   9.058  0.2757  0.8615 -0.4053
  102OSM   H18F10400   4.993   3.193   9.097  0.8714 -0.8851  2.2739
  102OSM   H18G10401   5.164   3.177   9.145 -2.2957  0.5783  1.7937
  102OSM   H18H10402   5.100   3.072   9.014  1.0368  0.5130  0.4633
  103OSM      N10403   6.322   4.632  11.141  0.1719 -0.0941  0.1117
  103OSM    C1510404   6.312   4.507  11.226  0.6480  0.0013 -0.3546
  103OSM   H15A10405   6.267   4.428  11.166  1.0148 -1.0141  0.6646
  103OSM   H15B10406   6.256   4.515  11.318 -0.2497  1.9652 -1.0269
  103OSM   H15C10407   6.410   4.463  11.242  0.4756  0.4600  2.3357
  103OSM    C1410408   6.217   4.732  11.191  0.8067  0.3937  0.2197
  103OSM   H14A10409   6.233   4.755  11.296 -0.3741 -1.0261  0.7393
  103OSM   H14B10410   6.117   4.694  11.205  0.7599  0.3070 -0.3366
  103OSM   H14C10411   6.209   4.823  11.133 -1.1441 -0.3563 -0.7686
  103OSM    C1310412   6.460   4.681  11.153  0.5834  0.2030 -0.0931
  103OSM   H13A10413   6.529   4.618  11.099  0.0185  1.4006 -2.3938
  103OSM   H13B10414   6.501   4.676  11.252 -0.0218  1.5073  0.2497
  103OSM   H13C10415   6.474   4.780  11.111 -1.4352  0.1120 -1.1288
  103OSM    C1210416   6.304   4.593  10.998  0.0753 -0.4865  0.4443
  103OSM   H12A10417   6.361   4.663  10.938  0.6151 -0.0415  1.4542
  103OSM   H12B10418   6.199   4.606  10.975  0.1269  0.1054  0.5177
  103OSM    C1110419   6.346   4.457  10.941 -0.0133  0.0387 -0.2336
  103OSM   H11A10420   6.312   4.439  10.837 -1.0294 -0.0724  0.1050
  103OSM   H11B10421   6.294   4.372  10.989  0.5356 -1.2300 -1.7944
  103OSM      P10422   6.599   4.504  10.867 -0.1287  0.3303 -0.4403
  103OSM    O1310423   6.541   4.629  10.826 -0.9436  0.0374 -0.2224
  103OSM    O1410424   6.720   4.510  10.952 -0.0304 -0.6586  0.4255
  103OSM    O1110425   6.616   4.390  10.760 -0.0855 -0.3466  0.1431
  103OSM    O1210426   6.484   4.433  10.953 -0.1409  0.1714  0.7269
  103OSM    C1S10427   6.555   4.405  10.637  0.3448 -0.0957  0.2459
  103OSM    H1S10428   6.588   4.496  10.582  1.7878 -1.5565 -1.4535
  103OSM    H1T10429   6.446   4.403  10.657  0.5017  0.5935  1.2741
  103OSM     NF10430   6.485   4.307  10.416  0.2726 -0.0897  0.1230
  103OSM    HNF10431   6.408   4.244  10.408 -1.3813  1.7079  1.1092
  103OSM    C2S10432   6.574   4.284  10.535 -0.2420  0.3574  0.0807
  103OSM    H2S10433   6.678   4.279  10.496 -0.6938 -3.0946 -0.9775
  103OSM    C3S10434   6.553   4.154  10.617 -0.2506  0.4367 -0.2431
  103OSM    H3S10435   6.449   4.136  10.652 -0.1299 -0.9145 -0.5330
  103OSM     O310436   6.632   4.134  10.734 -0.2183 -0.2637 -0.0086
  103OSM    HO310437   6.653   4.219  10.772 -0.6453 -0.4722  0.6991
  103OSM    C4S10438   6.587   4.048  10.518 -0.0759  0.1976  0.2213
  103OSM    H4S10439   6.498   4.001  10.474 -0.5788  0.8426  0.5323
  103OSM    C5S10440   6.710   3.998  10.484 -0.0136  0.1535  0.2403
  103OSM    H5S10441   6.802   4.051  10.511 -0.0643  0.5403 -0.3187
  103OSM    C6S10442   6.734   3.881  10.402 -0.0861  0.1262 -0.2657
  103OSM    H6S10443   6.744   3.793  10.470 -0.0647 -0.8501 -1.5009
  103OSM    H6T10444   6.833   3.888  10.354 -0.4001 -1.7523 -1.2911
  103OSM    C7S10445   6.616   3.860  10.295  0.0377  0.1022 -0.1977
  103OSM    H7S10446   6.528   3.832  10.358  1.0689  1.8495  2.1995
  103OSM    H7T10447   6.630   3.771  10.231 -3.1734 -1.0754  0.5640
  103OSM    C8S10448   6.591   3.978  10.201 -0.6544  0.0491  0.4515
  103OSM    H8S10449   6.558   4.074  10.247 -0.6085  1.4344 -2.2191
  103OSM    H8T10450   6.514   3.945  10.128 -0.2197  2.0779 -0.9767
  103OSM    C9S10451   6.720   4.002  10.121  0.6141  0.6074 -0.6680
  103OSM    H9S10452   6.766   3.902  10.103 -0.1424 -0.1150  1.0803
  103OSM    H9T10453   6.789   4.060  10.186 -1.8924  0.0757  2.7234
  103OSM   C10S10454   6.701   4.055   9.978 -0.5977  0.2373  0.0065
  103OSM   H10S10455   6.647   4.151   9.991 -1.1978 -0.2738  1.4128
  103OSM   H10T10456   6.628   3.996   9.920 -1.2184  1.2047 -0.2279
  103OSM   C11S10457   6.831   4.055   9.904  0.4819  0.2943 -0.5799
  103OSM   H11S10458   6.875   3.953   9.893 -2.6850 -1.3416  0.6175
  103OSM   H11T10459   6.902   4.115   9.964  0.6874  3.3459 -3.5727
  103OSM   C12S10460   6.833   4.118   9.765 -0.0612 -0.0527 -0.5075
  103OSM   H12S10461   6.800   4.224   9.777 -1.7236 -0.6956  0.9646
  103OSM   H12T10462   6.772   4.055   9.697  0.2130 -0.8146 -0.0501
  103OSM   C13S10463   6.969   4.118   9.691  0.1389 -0.2644 -0.4843
  103OSM   H13S10464   6.996   4.011   9.696 -1.0888 -0.5387  1.0934
  103OSM   H13T10465   7.035   4.182   9.753 -1.2423 -0.3136  1.1151
  103OSM   C14S10466   6.966   4.175   9.553  0.5338  0.4689  0.1612
  103OSM   H14S10467   6.929   4.279   9.555 -1.0395 -0.0282 -1.3868
  103OSM   H14T10468   6.884   4.117   9.506  0.1104  1.6261 -0.5506
  103OSM   C15S10469   7.103   4.155   9.481  0.3778 -0.2909  0.6810
  103OSM   H15S10470   7.126   4.047   9.474  0.0687 -0.2869 -0.7739
  103OSM   H15T10471   7.184   4.199   9.542 -0.4914  0.3111  1.4329
  103OSM   C16S10472   7.115   4.194   9.333 -0.2167 -0.4786 -0.1231
  103OSM   H16S10473   7.114   4.305   9.334  0.4694 -0.4384 -1.6775
  103OSM   H16T10474   7.029   4.142   9.285  1.5482 -3.3740 -0.3340
  103OSM   C17S10475   7.248   4.154   9.266 -0.0345 -0.9263  0.6621
  103OSM   H17S10476   7.340   4.175   9.325 -0.8445 -0.2855  1.7486
  103OSM   H17T10477   7.251   4.216   9.174  0.5277 -0.1060  1.2254
  103OSM   C18S10478   7.247   4.005   9.228 -0.0791  0.4808 -0.7383
  103OSM   H18S10479   7.149   3.956   9.214  0.0138 -0.3019  1.1355
  103OSM   H18T10480   7.295   3.953   9.313  0.5204  1.2874 -0.5667
  103OSM   H18U10481   7.298   3.981   9.132 -0.7563 -2.3619 -0.4454
  103OSM    C1F10482   6.506   4.397  10.321 -0.4777  0.8046 -0.1375
  103OSM     OF10483   6.618   4.439  10.304  0.2361  0.7153  0.4471
  103OSM    C2F10484   6.388   4.434  10.241  0.6703  0.5539 -0.4232
  103OSM    H2F10485   6.318   4.482  10.312 -0.1303 -0.5325 -0.4499
  103OSM    H2G10486   6.356   4.341  10.188 -0.8917  0.4638  0.6063
  103OSM    C3F10487   6.399   4.552  10.139  0.3384 -0.1487 -0.0735
  103OSM    H3F10488   6.461   4.630  10.189 -1.0148 -0.6542  2.6229
  103OSM    H3G10489   6.295   4.582  10.115 -0.0306 -1.3807 -0.0857
  103OSM    C4F10490   6.461   4.500  10.010 -0.7606 -0.0470 -0.3240
  103OSM    H4F10491   6.404   4.409   9.981  0.8195 -1.1243 -0.1458
  103OSM    H4G10492   6.563   4.462  10.029 -0.7768 -0.7430 -1.5211
  103OSM    C5F10493   6.452   4.599   9.894  0.0701  0.3467 -0.5836
  103OSM    H5F10494   6.489   4.695   9.938 -3.1372 -0.0597  3.6400
  103OSM    H5G10495   6.348   4.607   9.856 -0.1209 -0.5105 -0.2549
  103OSM    C6F10496   6.546   4.548   9.787 -0.1019  0.2898  0.4581
  103OSM    H6F10497   6.537   4.439   9.772 -1.5558  0.5554 -1.0277
  103OSM    H6G10498   6.654   4.560   9.810  0.2867 -2.3621  0.3087
  103OSM    C7F10499   6.523   4.606   9.650  0.5324  0.2027  0.6610
  103OSM    H7F10500   6.413   4.614   9.634  0.7786  4.5807  0.1911
  103OSM    H7G10501   6.583   4.552   9.573 -0.7514 -1.1482  0.5514
  103OSM    C8F10502   6.552   4.752   9.640 -0.4825  0.3719 -0.5918
  103OSM    H8F10503   6.661   4.765   9.661 -0.2230 -0.2974 -1.4552
  103OSM    H8G10504   6.498   4.805   9.721 -1.6059  2.0956 -2.3725
  103OSM    C9F10505   6.514   4.830   9.515  0.3896  0.1248  0.0268
  103OSM    H9F10506   6.456   4.921   9.537  0.9056  0.8520 -1.4296
  103OSM   C10F10507   6.545   4.805   9.392  0.4301  0.2807  0.9184
  103OSM   H10F10508   6.524   4.876   9.311 -1.5848 -2.3680 -1.0620
  103OSM   C11F10509   6.633   4.703   9.319  0.0012 -0.5598  0.8323
  103OSM   H11F10510   6.606   4.703   9.211  1.6692  0.4004  0.3757
  103OSM   H11G10511   6.624   4.604   9.369  2.0800 -2.0344 -1.4716
  103OSM   C12F10512   6.779   4.730   9.321  0.1867 -0.5642  0.1439
  103OSM   H12F10513   6.823   4.758   9.418  1.3829  1.5613 -0.9370
  103OSM   H12G10514   6.792   4.817   9.253  2.0175 -0.2020  0.9062
  103OSM   C13F10515   6.853   4.607   9.271 -0.1004 -0.1356 -0.3648
  103OSM   H13F10516   6.963   4.615   9.282 -0.2056 -1.6197  3.0791
  103OSM   H13G10517   6.815   4.524   9.335 -1.0059  0.3314 -0.2806
  103OSM   C14F10518   6.822   4.586   9.125 -0.1501  0.4852  0.9163
  103OSM   H14F10519   6.835   4.686   9.079 -0.3492 -0.0861 -0.4201
  103OSM   H14G10520   6.716   4.553   9.116 -0.6903  2.6867 -2.4409
  103OSM   C15F10521   6.928   4.487   9.056  0.1017  0.5733 -0.2610
  103OSM   H15F10522   6.887   4.437   8.966  2.3158  0.4315 -1.2772
  103OSM   H15G10523   6.945   4.398   9.121  1.6638  1.8246  1.1415
  103OSM   C16F10524   7.066   4.544   9.033 -0.5220  0.1551 -1.0621
  103OSM   H16F10525   7.132   4.508   9.114 -0.3858 -0.2574 -1.3509
  103OSM   H16G10526   7.072   4.652   9.057 -0.5573 -0.1842  0.5939
  103OSM   C17F10527   7.136   4.509   8.902 -0.1093  0.2130 -0.6920
  103OSM   H17F10528   7.237   4.556   8.905  0.1410 -0.3136  2.6467
  103OSM   H17G10529   7.084   4.556   8.816 -0.5922 -1.6593 -1.4646
  103OSM   C18F10530   7.138   4.359   8.873  0.6839  0.0089 -0.4767
  103OSM   H18F10531   7.208   4.338   8.789 -1.9340 -1.1234 -2.4982
  103OSM   H18G10532   7.036   4.328   8.844  0.0529 -1.1083  2.5699
  103OSM   H18H10533   7.172   4.310   8.966  0.7487  0.3596 -0.3140
  104OSM      N10534   2.512   5.612  10.706  0.2610 -0.6455  0.3938
  104OSM    C1510535   2.547   5.520  10.820  0.1947 -0.3783 -0.2140
  104OSM   H15A10536   2.638   5.468  10.794  0.6200  0.7350 -1.0074
  104OSM   H15B10537   2.476   5.440  10.840  3.2186 -2.9676  1.0735
  104OSM   H15C10538   2.574   5.571  10.912  1.4819 -0.6865 -0.4026
  104OSM    C1410539   2.366   5.650  10.715 -0.1095 -0.4343 -0.3806
  104OSM   H14A10540   2.298   5.570  10.690 -0.5196 -0.4063  0.6205
  104OSM   H14B10541   2.340   5.733  10.650 -1.0478  0.0605  0.5965
  104OSM   H14C10542   2.331   5.686  10.811 -0.2299 -0.4751 -0.4094
  104OSM    C1310543   2.600   5.733  10.714 -0.0109  0.0858 -0.4957
  104OSM   H13A10544   2.704   5.704  10.701  0.7297  0.3267  3.4680
  104OSM   H13B10545   2.603   5.786  10.808  0.1560 -2.2111  0.8756
  104OSM   H13C10546   2.567   5.799  10.635 -0.0599  0.8416  0.1485
  104OSM    C1210547   2.532   5.540  10.578  0.0478  0.3114  0.3502
  104OSM   H12A10548   2.509   5.605  10.495 -0.0605 -0.1487  0.0164
  104OSM   H12B10549   2.460   5.461  10.564  0.8167  0.0630 -2.9483
  104OSM    C1110550   2.667   5.479  10.545 -0.3653  0.2983  0.0140
  104OSM   H11A10551   2.748   5.553  10.560 -0.4453  0.1517  1.1937
  104OSM   H11B10552   2.673   5.452  10.437 -0.8308 -1.1739  0.3403
  104OSM      P10553   2.625   5.231  10.591  0.0705  0.1088 -0.1919
  104OSM    O1310554   2.648   5.138  10.709 -0.3641 -0.2996  0.2095
  104OSM    O1410555   2.481   5.246  10.551  0.3053  0.5140  0.1381
  104OSM    O1110556   2.705   5.180  10.466 -0.2563 -0.0050  0.0675
  104OSM    O1210557   2.693   5.370  10.624 -0.0471  0.8241 -0.1345
  104OSM    C1S10558   2.837   5.159  10.433 -0.1008  0.1943  0.1439
  104OSM    H1S10559   2.871   5.060  10.469 -2.0225 -0.5114  0.1072
  104OSM    H1T10560   2.904   5.235  10.480 -0.5035  2.4613 -2.6402
  104OSM     NF10561   3.009   5.166  10.263 -0.0054 -0.2745 -0.4710
  104OSM    HNF10562   3.048   5.248  10.221 -1.4240  1.4529  1.3826
  104OSM    C2S10563   2.868   5.160  10.283  0.4061  0.0741  0.6107
  104OSM    H2S10564   2.832   5.064  10.241  1.1003 -0.0771  0.3480
  104OSM    C3S10565   2.776   5.267  10.212 -0.1747  0.3659  0.0860
  104OSM    H3S10566   2.793   5.368  10.255 -1.3530  1.0526 -0.9844
  104OSM     O310567   2.640   5.235  10.218 -0.1352 -0.6575 -0.0270
  104OSM    HO310568   2.636   5.184  10.299  0.4205 -0.9979 -0.2122
  104OSM    C4S10569   2.824   5.288  10.069  0.7422 -0.6162 -0.0951
  104OSM    H4S10570   2.890   5.373  10.046 -1.2461  0.3883 -2.5963
  104OSM    C5S10571   2.785   5.209   9.961 -0.2097 -0.0235 -0.7808
  104OSM    H5S10572   2.712   5.130   9.986  2.2728 -1.2886  3.5063
  104OSM    C6S10573   2.827   5.219   9.822 -0.1576 -0.0672  0.0329
  104OSM    H6S10574   2.857   5.119   9.785  0.6689 -0.4853  1.6997
  104OSM    H6T10575   2.911   5.292   9.816  0.4704 -0.8401 -0.7399
  104OSM    C7S10576   2.711   5.271   9.736  0.3944 -0.1368 -0.7514
  104OSM    H7S10577   2.681   5.372   9.772 -1.4749 -0.6263 -0.8125
  104OSM    H7T10578   2.621   5.207   9.745 -0.0588  0.6135  0.2316
  104OSM    C8S10579   2.742   5.271   9.588 -0.5175  0.5216  0.7370
  104OSM    H8S10580   2.765   5.164   9.566  1.7128  1.3051 -1.0700
  104OSM    H8T10581   2.834   5.328   9.564  0.4105 -1.2935 -0.2114
  104OSM    C9S10582   2.629   5.313   9.491  0.6328 -0.0630  0.3971
  104OSM    H9S10583   2.624   5.424   9.495  1.1978 -0.0127 -0.1562
  104OSM    H9T10584   2.530   5.273   9.521 -1.3134  3.1142 -1.1247
  104OSM   C10S10585   2.670   5.275   9.343 -0.1837 -0.2277 -0.2386
  104OSM   H10S10586   2.698   5.167   9.347 -1.2593 -0.4941  1.9741
  104OSM   H10T10587   2.763   5.333   9.330  0.6359 -1.1646  1.1880
  104OSM   C11S10588   2.571   5.294   9.223 -1.3556 -0.3582 -0.5879
  104OSM   H11S10589   2.540   5.401   9.227 -0.3580  0.0313 -2.1850
  104OSM   H11T10590   2.482   5.233   9.248 -0.5266 -0.5633  2.0831
  104OSM   C12S10591   2.618   5.281   9.073 -0.0795 -0.0188 -0.3427
  104OSM   H12S10592   2.711   5.338   9.049  1.5995 -2.2912  0.4702
  104OSM   H12T10593   2.528   5.308   9.014 -2.2282 -0.6185  2.4562
  104OSM   C13S10594   2.632   5.133   9.032 -0.3179 -0.0243  0.0880
  104OSM   H13S10595   2.542   5.073   9.059 -0.3086 -0.7825 -1.4615
  104OSM   H13T10596   2.719   5.085   9.082 -0.9256 -0.0178  1.1768
  104OSM   C14S10597   2.670   5.124   8.886 -0.1024 -0.0024  1.2930
  104OSM   H14S10598   2.757   5.192   8.873 -0.1787  0.0769  1.2003
  104OSM   H14T10599   2.595   5.168   8.818 -1.0920 -1.7448  1.2132
  104OSM   C15S10600   2.698   4.979   8.840 -0.8433  0.5293 -0.6839
  104OSM   H15S10601   2.619   4.914   8.882  0.2637 -1.8077 -2.0498
  104OSM   H15T10602   2.790   4.945   8.892 -3.1419 -2.0254  2.0428
  104OSM   C16S10603   2.715   4.961   8.691  0.3338 -0.1571  0.3552
  104OSM   H16S10604   2.808   4.999   8.645 -0.4269  1.5896  0.1780
  104OSM   H16T10605   2.627   5.014   8.649 -0.9069 -0.2001  2.7246
  104OSM   C17S10606   2.714   4.812   8.659 -0.2725  0.4048  0.2683
  104OSM   H17S10607   2.686   4.803   8.552  0.5392 -2.6457  0.2183
  104OSM   H17T10608   2.639   4.767   8.727 -0.0886  1.4345  1.1627
  104OSM   C18S10609   2.847   4.730   8.678  0.6399 -0.2602 -0.5915
  104OSM   H18S10610   2.927   4.783   8.622  0.3458  2.0889  1.0784
  104OSM   H18T10611   2.839   4.629   8.632 -3.5378 -0.5423  0.3823
  104OSM   H18U10612   2.877   4.726   8.785 -1.2152  4.5678  0.3593
  104OSM    C1F10613   3.078   5.052  10.286  0.0723 -0.8422 -0.1103
  104OSM     OF10614   3.032   4.950  10.344 -0.2602  0.1461  1.3824
  104OSM    C2F10615   3.222   5.051  10.245  1.0270 -0.5513 -0.4050
  104OSM    H2F10616   3.282   5.043  10.339 -0.4468 -0.7949  0.5427
  104OSM    H2G10617   3.241   5.137  10.177  1.7909  0.0752  0.5753
  104OSM    C3F10618   3.262   4.926  10.163  0.3643  0.7067 -0.1467
  104OSM    H3F10619   3.244   4.840  10.231  4.8042  0.7692  1.4871
  104OSM    H3G10620   3.371   4.930  10.142  1.0726 -4.2889  1.1568
  104OSM    C4F10621   3.176   4.907  10.035 -0.1925  1.4629  0.0730
  104OSM    H4F10622   3.072   4.882  10.067 -0.0870  1.6806  0.5990
  104OSM    H4G10623   3.222   4.823   9.979  2.1547  0.5954  2.9854
  104OSM    C5F10624   3.164   5.029   9.951 -0.1971  0.2668  0.6056
  104OSM    H5F10625   3.254   5.093   9.954 -0.0582  0.1830 -1.0408
  104OSM    H5G10626   3.084   5.094   9.993  1.3452  1.4186  1.8830
  104OSM    C6F10627   3.159   5.005   9.802  0.8758 -0.2677  0.5922
  104OSM    H6F10628   3.056   4.974   9.775  0.4277  0.0457  1.8726
  104OSM    H6G10629   3.232   4.926   9.774 -0.0295 -2.3713  3.6494
  104OSM    C7F10630   3.172   5.134   9.716 -0.1511 -0.2970 -0.0910
  104OSM    H7F10631   3.261   5.190   9.752  0.6530  0.2035 -2.6472
  104OSM    H7G10632   3.095   5.206   9.750  1.2388  0.8399  0.7804
  104OSM    C8F10633   3.176   5.107   9.558  0.1774 -0.0411 -0.0115
  104OSM    H8F10634   3.097   5.036   9.526  0.5696 -0.1419 -0.7633
  104OSM    H8G10635   3.270   5.049   9.548  0.5604  0.3685  1.0160
  104OSM    C9F10636   3.168   5.240   9.479 -0.1878 -0.1324 -1.2516
  104OSM    H9F10637   3.243   5.309   9.522  1.3105 -1.4192 -1.7062
  104OSM   C10F10638   3.106   5.270   9.365 -0.7817  0.6903 -0.5849
  104OSM   H10F10639   3.124   5.369   9.321 -0.1353  0.3003 -1.2113
  104OSM   C11F10640   3.031   5.184   9.269  0.3413  0.2416 -0.3230
  104OSM   H11F10641   2.941   5.240   9.236  1.1047  0.9664 -1.2444
  104OSM   H11G10642   3.005   5.090   9.322  3.0241 -1.0915 -1.2088
  104OSM   C12F10643   3.122   5.150   9.150 -0.6606  0.0502 -0.1545
  104OSM   H12F10644   3.076   5.062   9.101 -0.4162  0.4918 -1.1939
  104OSM   H12G10645   3.223   5.119   9.183  0.4349  3.3151 -0.0796
  104OSM   C13F10646   3.137   5.272   9.060 -0.1993 -0.5377 -0.7673
  104OSM   H13F10647   3.197   5.347   9.115 -0.1074 -0.6699 -0.6853
  104OSM   H13G10648   3.041   5.326   9.046  0.8030  1.0812 -1.7701
  104OSM   C14F10649   3.185   5.230   8.919 -0.1960  0.1223 -0.1663
  104OSM   H14F10650   3.265   5.157   8.939 -0.7841 -0.7908 -1.0401
  104OSM   H14G10651   3.239   5.315   8.872  1.9710 -1.2300 -0.2624
  104OSM   C15F10652   3.070   5.184   8.825  0.1525  0.3201  0.0250
  104OSM   H15F10653   3.000   5.263   8.789 -0.0049  0.5986  0.9249
  104OSM   H15G10654   2.997   5.119   8.878 -2.4320  2.1557 -1.0168
  104OSM   C16F10655   3.111   5.126   8.690 -0.1684 -0.2192  0.3863
  104OSM   H16F10656   3.142   5.207   8.621  0.6957  0.3931  1.4648
  104OSM   H16G10657   3.023   5.074   8.647 -0.3024 -0.0533  0.4613
  104OSM   C17F10658   3.213   5.014   8.700 -0.1376  0.4119 -0.7275
  104OSM   H17F10659   3.302   5.068   8.738 -0.8819  0.7576  0.6148
  104OSM   H17G10660   3.239   4.970   8.602 -2.3090 -1.3330 -0.5867
  104OSM   C18F10661   3.174   4.909   8.803  0.1134  0.9370  0.2639
  104OSM   H18F10662   3.069   4.908   8.838 -0.4369 -1.0548 -1.2900
  104OSM   H18G10663   3.241   4.901   8.892  0.1928 -2.3368  0.0164
  104OSM   H18H10664   3.190   4.807   8.762  1.1806  0.2052  2.3537
  105OSM      N10665   3.224   4.260  11.092 -0.5561 -0.1166 -0.3331
  105OSM    C1510666   3.154   4.363  11.175  0.0515  0.6798  0.7697
  105OSM   H15A10667   3.215   4.406  11.253  0.8867  1.4652 -0.2781
  105OSM   H15B10668   3.061   4.325  11.215 -1.2711  1.7276 -1.1437
  105OSM   H15C10669   3.130   4.455  11.124  2.3725 -0.1785 -2.1620
  105OSM    C1410670   3.358   4.313  11.027 -0.0437 -0.2137  0.4723
  105OSM   H14A10671   3.438   4.315  11.099  1.0830 -1.0500 -0.7138
  105OSM   H14B10672   3.337   4.412  10.987  0.7991  0.1647  0.9512
  105OSM   H14C10673   3.392   4.249  10.948  0.0396  1.8950 -1.3117
  105OSM    C1310674   3.268   4.153  11.194 -0.3775 -0.2499  0.4806
  105OSM   H13A10675   3.305   4.064  11.145 -0.3220  0.4668 -0.8350
  105OSM   H13B10676   3.183   4.120  11.251 -0.1186  1.3791  1.9130
  105OSM   H13C10677   3.346   4.189  11.260  0.8819 -2.1587  0.1267
  105OSM    C1210678   3.123   4.216  10.989 -0.0163 -0.3330 -0.1285
  105OSM   H12A10679   3.029   4.186  11.032  0.9841 -2.4904  0.7132
  105OSM   H12B10680   3.164   4.135  10.930  1.9961  0.9000 -0.5069
  105OSM    C1110681   3.092   4.324  10.874  0.1589  0.6092 -0.1405
  105OSM   H11A10682   3.040   4.265  10.795 -0.4431 -1.4682  1.7212
  105OSM   H11B10683   3.189   4.354  10.828  1.9957 -2.9479  1.0459
  105OSM      P10684   2.863   4.442  10.916 -0.1010 -0.1967  0.0695
  105OSM    O1310685   2.816   4.326  10.996  0.1281  0.2757  0.3082
  105OSM    O1410686   2.812   4.573  10.963  0.6298 -0.1779  0.0933
  105OSM    O1110687   2.820   4.422  10.763  0.0921 -0.4077  0.3022
  105OSM    O1210688   3.019   4.439  10.913  0.0069 -0.4034  0.2388
  105OSM    C1S10689   2.867   4.507  10.660  0.4281 -0.0214  1.0829
  105OSM    H1S10690   2.972   4.538  10.674 -0.1939  1.9095  1.7240
  105OSM    H1T10691   2.813   4.604  10.668 -0.3688 -0.4185  0.6959
  105OSM     NF10692   2.904   4.513  10.414  0.5462 -0.4068 -0.0553
  105OSM    HNF10693   2.855   4.591  10.377  0.7878 -0.5781 -0.7379
  105OSM    C2S10694   2.845   4.439  10.522 -0.3201 -0.5050 -0.0551
  105OSM    H2S10695   2.896   4.343  10.544 -0.4519  0.1165  3.6436
  105OSM    C3S10696   2.697   4.406  10.500 -0.0561 -1.1081 -0.2762
  105OSM    H3S10697   2.642   4.503  10.503 -0.4708 -1.2980 -1.1745
  105OSM     O310698   2.634   4.343  10.609  0.2300  0.3795  0.0353
  105OSM    HO310699   2.693   4.355  10.684  2.4593 -2.1876 -1.1193
  105OSM    C4S10700   2.669   4.340  10.364 -0.7520 -0.3712  0.3971
  105OSM    H4S10701   2.636   4.414  10.290  1.5984 -0.7306 -1.1146
  105OSM    C5S10702   2.674   4.211  10.336 -0.2856  0.0434  0.0334
  105OSM    H5S10703   2.704   4.133  10.409  2.0926  0.7173 -0.1258
  105OSM    C6S10704   2.647   4.153  10.201  0.8461  0.0470 -0.0375
  105OSM    H6S10705   2.537   4.139  10.193  0.5940 -1.8941  3.9609
  105OSM    H6T10706   2.697   4.054  10.188  2.7693  1.0846 -0.9650
  105OSM    C7S10707   2.700   4.237  10.084 -0.1917  0.1370  0.0048
  105OSM    H7S10708   2.810   4.247  10.095 -0.3695  2.0079  0.5138
  105OSM    H7T10709   2.664   4.341  10.098 -2.1026 -0.5984  0.8451
  105OSM    C8S10710   2.674   4.198   9.940 -0.2774 -0.1466  0.4859
  105OSM    H8S10711   2.564   4.213   9.931  0.1197  2.5313 -1.0946
  105OSM    H8T10712   2.698   4.090   9.933  1.6190  0.1581  1.6643
  105OSM    C9S10713   2.744   4.289   9.842  0.2205  0.5296 -1.0480
  105OSM    H9S10714   2.851   4.261   9.852 -0.0491  0.0017  0.7062
  105OSM    H9T10715   2.738   4.397   9.870  2.0570 -0.1033  2.3064
  105OSM   C10S10716   2.692   4.255   9.700  0.0896 -0.2115 -0.5335
  105OSM   H10S10717   2.603   4.316   9.671 -0.6665 -0.2641  1.5312
  105OSM   H10T10718   2.664   4.148   9.709 -1.0301  0.0512 -0.7548
  105OSM   C11S10719   2.798   4.286   9.594 -0.2624 -0.6135  0.1257
  105OSM   H11S10720   2.893   4.232   9.614 -0.1670 -0.3454  0.3967
  105OSM   H11T10721   2.826   4.393   9.604  2.4523 -1.2529  0.0556
  105OSM   C12S10722   2.750   4.259   9.451  0.7918 -0.2290 -0.4511
  105OSM   H12S10723   2.651   4.309   9.438  0.6479 -0.9982 -2.9195
  105OSM   H12T10724   2.742   4.150   9.434  0.9068 -0.0755 -1.5826
  105OSM   C13S10725   2.853   4.322   9.353  0.4698  0.3044 -0.1903
  105OSM   H13S10726   2.952   4.277   9.377  1.3372  1.1827 -1.9716
  105OSM   H13T10727   2.859   4.432   9.367 -0.2500  0.1839  1.2649
  105OSM   C14S10728   2.815   4.278   9.214  0.2281  0.0459  0.5331
  105OSM   H14S10729   2.718   4.325   9.189  0.2589  1.1996  2.3871
  105OSM   H14T10730   2.807   4.167   9.215  1.2313 -0.1124  3.6278
  105OSM   C15S10731   2.921   4.319   9.103  0.2398 -0.7527  0.1819
  105OSM   H15S10732   2.877   4.296   9.004 -1.4980 -1.2722  1.0400
  105OSM   H15T10733   3.013   4.265   9.133 -0.1564 -0.0006  3.0597
  105OSM   C16S10734   2.946   4.470   9.103  0.3050  0.0798 -0.5383
  105OSM   H16S10735   2.974   4.506   9.204 -0.1070 -1.7598  0.2730
  105OSM   H16T10736   2.848   4.516   9.079 -1.9306 -3.6860  0.3878
  105OSM   C17S10737   3.058   4.512   8.997  0.2926  0.2072 -0.1239
  105OSM   H17S10738   3.161   4.489   9.032  1.0512 -1.1469 -3.0017
  105OSM   H17T10739   3.048   4.623   8.988  0.6516  0.0991 -2.3407
  105OSM   C18S10740   3.039   4.457   8.850 -0.4530 -0.5312 -0.7178
  105OSM   H18S10741   2.963   4.512   8.790 -1.0750  2.0311  2.1233
  105OSM   H18T10742   3.011   4.350   8.858  0.1713 -0.7361 -1.1786
  105OSM   H18U10743   3.138   4.463   8.800  0.5580 -1.1839  1.0790
  105OSM    C1F10744   3.034   4.513  10.394 -0.2841 -0.3128  0.3287
  105OSM     OF10745   3.112   4.459  10.472 -0.0898  0.9583 -0.3975
  105OSM    C2F10746   3.086   4.594  10.279  0.0041  0.4574 -0.2667
  105OSM    H2F10747   3.186   4.641  10.282 -0.7576  2.1131  0.4303
  105OSM    H2G10748   3.014   4.673  10.250 -1.3687 -0.5127  0.3595
  105OSM    C3F10749   3.093   4.493  10.162  0.3808 -0.1111  0.6441
  105OSM    H3F10750   2.999   4.436  10.151  0.1795  0.3180  0.0978
  105OSM    H3G10751   3.179   4.423  10.172  1.1523  0.7153 -0.0314
  105OSM    C4F10752   3.128   4.557  10.023 -0.7138  0.0525 -0.7878
  105OSM    H4F10753   3.231   4.598  10.022 -0.4852 -0.5316 -1.4586
  105OSM    H4G10754   3.056   4.638   9.998 -2.8433 -1.8764 -1.2639
  105OSM    C5F10755   3.110   4.443   9.921  0.1350  0.5479  0.3609
  105OSM    H5F10756   3.021   4.380   9.945  1.9173 -1.4433  2.2380
  105OSM    H5G10757   3.198   4.376   9.925 -1.2515 -1.4693 -0.7632
  105OSM    C6F10758   3.097   4.494   9.770  0.9433  0.0711 -0.7401
  105OSM    H6F10759   3.003   4.554   9.771  1.3802  0.7656  0.0817
  105OSM    H6G10760   3.055   4.411   9.710 -0.0994  0.6090 -0.7851
  105OSM    C7F10761   3.214   4.569   9.723  0.4172  0.6267 -0.4788
  105OSM    H7F10762   3.295   4.496   9.739  0.3038  0.6815  0.4117
  105OSM    H7G10763   3.227   4.653   9.794 -1.1477  0.5531 -0.0620
  105OSM    C8F10764   3.205   4.619   9.576 -0.1410  0.2817  0.7660
  105OSM    H8F10765   3.112   4.678   9.564  0.4148  1.2112  0.9460
  105OSM    H8G10766   3.205   4.520   9.525  0.6469 -1.3623  3.7084
  105OSM    C9F10767   3.319   4.715   9.552 -0.0743  0.2094 -0.0389
  105OSM    H9F10768   3.365   4.737   9.649 -1.5979 -0.0053  0.7699
  105OSM   C10F10769   3.320   4.796   9.443 -0.0309  0.4026 -0.3903
  105OSM   H10F10770   3.408   4.861   9.427  1.4643 -1.1990  0.9381
  105OSM   C11F10771   3.240   4.795   9.316  0.2040 -0.0118  0.6521
  105OSM   H11F10772   3.202   4.897   9.295 -1.8410 -1.4688 -3.7177
  105OSM   H11G10773   3.151   4.730   9.323  0.5766 -0.7165 -0.8254
  105OSM   C12F10774   3.331   4.755   9.189 -0.6027  0.5791  0.4479
  105OSM   H12F10775   3.269   4.746   9.098 -0.3183  2.9870 -0.0337
  105OSM   H12G10776   3.387   4.661   9.210  3.9365  2.6955 -0.8952
  105OSM   C13F10777   3.442   4.861   9.159  0.8174 -0.9186 -0.0899
  105OSM   H13F10778   3.513   4.875   9.244  3.4477 -2.1991 -1.9429
  105OSM   H13G10779   3.392   4.959   9.147  1.6970 -0.6212 -1.6357
  105OSM   C14F10780   3.525   4.827   9.030 -0.2035 -0.0117 -0.4634
  105OSM   H14F10781   3.600   4.909   9.030  0.5160 -0.6191  0.9041
  105OSM   H14G10782   3.460   4.846   8.942  0.3602 -0.3058 -0.9549
  105OSM   C15F10783   3.590   4.688   9.024  0.2461 -0.7880  0.4596
  105OSM   H15F10784   3.513   4.608   9.033  1.7924 -2.1912  2.0952
  105OSM   H15G10785   3.660   4.673   9.109  2.5506 -1.2435 -1.3955
  105OSM   C16F10786   3.666   4.657   8.894  0.1554  0.0483 -0.7360
  105OSM   H16F10787   3.732   4.745   8.875  1.4828 -0.4119  1.3941
  105OSM   H16G10788   3.598   4.644   8.807 -0.0006 -0.6099 -0.5192
  105OSM   C17F10789   3.756   4.531   8.898 -0.8883 -0.1730  0.0436
  105OSM   H17F10790   3.691   4.442   8.887  0.7023 -1.3731 -0.0250
  105OSM   H17G10791   3.812   4.530   8.994 -0.4668  0.4735 -0.1885
  105OSM   C18F10792   3.870   4.542   8.792  0.3604 -0.0595 -0.3726
  105OSM   H18F10793   3.841   4.553   8.685  1.4119 -1.6036 -0.8361
  105OSM   H18G10794   3.939   4.456   8.799 -0.3650 -0.6335 -0.0629
  105OSM   H18H10795   3.942   4.622   8.819  0.8357 -0.0624 -1.5888
  106OSM      N10796   4.836   3.762  10.829 -0.5943  0.1876 -0.9950
  106OSM    C1510797   4.862   3.619  10.879  0.0376  0.1588  0.5908
  106OSM   H15A10798   4.959   3.606  10.923  0.5952 -0.2468 -0.6951
  106OSM   H15B10799   4.856   3.548  10.798  1.1252 -2.0185  2.3123
  106OSM   H15C10800   4.782   3.584  10.943  0.2254  0.5871  1.0650
  106OSM    C1410801   4.729   3.762  10.723  0.1045 -0.0329  0.4701
  106OSM   H14A10802   4.722   3.854  10.668 -0.3893 -0.3083  0.0619
  106OSM   H14B10803   4.629   3.755  10.763 -0.6874 -0.2048 -1.4515
  106OSM   H14C10804   4.751   3.680  10.656 -1.6072  0.7197 -1.0959
  106OSM    C1310805   4.784   3.843  10.944 -0.4028 -0.0258  0.5843
  106OSM   H13A10806   4.853   3.836  11.027 -0.7754 -1.8531  0.7802
  106OSM   H13B10807   4.686   3.815  10.980 -0.9601  0.7934 -0.2395
  106OSM   H13C10808   4.773   3.946  10.911 -3.7158 -0.2615  0.6115
  106OSM    C1210809   4.976   3.818  10.793  0.1289 -0.5832 -0.0536
  106OSM   H12A10810   5.040   3.790  10.875 -0.2550 -0.4397  0.2952
  106OSM   H12B10811   4.977   3.925  10.785 -2.1759 -0.3844  1.4352
  106OSM    C1110812   5.045   3.771  10.665 -0.4524  0.7980 -0.0373
  106OSM   H11A10813   5.140   3.824  10.639 -0.5550  1.2293  0.4454
  106OSM   H11B10814   4.973   3.793  10.583  0.4857 -0.6017 -1.2977
  106OSM      P10815   5.201   3.586  10.755  0.2021  0.2036 -0.1129
  106OSM    O1310816   5.304   3.692  10.747 -0.5837  0.0945 -0.4139
  106OSM    O1410817   5.152   3.534  10.882  0.1241 -0.2097  0.0027
  106OSM    O1110818   5.247   3.452  10.689  0.2159  0.5561  0.3246
  106OSM    O1210819   5.077   3.626  10.666  0.6193 -0.0638 -0.0715
  106OSM    C1S10820   5.210   3.404  10.559  0.0704  0.2623  0.2792
  106OSM    H1S10821   5.192   3.491  10.492 -0.9462  0.0576  0.2632
  106OSM    H1T10822   5.113   3.349  10.562  1.2993 -2.0751 -0.7810
  106OSM     NF10823   5.285   3.245  10.389 -0.4270 -0.5883  0.1805
  106OSM    HNF10824   5.249   3.153  10.390  0.3281 -0.9013  1.6200
  106OSM    C2S10825   5.322   3.305  10.518  0.4319  0.2177 -0.1360
  106OSM    H2S10826   5.413   3.369  10.509 -0.3389  1.0468 -3.0203
  106OSM    C3S10827   5.340   3.194  10.632 -0.4185  0.0874 -0.1326
  106OSM    H3S10828   5.251   3.127  10.632 -1.0210  0.8752 -1.0496
  106OSM     O310829   5.343   3.235  10.765 -0.5126  0.0026  0.0032
  106OSM    HO310830   5.287   3.313  10.756 -1.9411 -1.1618 -2.3451
  106OSM    C4S10831   5.461   3.118  10.604 -0.1012 -0.5419  0.1216
  106OSM    H4S10832   5.445   3.017  10.563  0.2032  0.1086 -1.6720
  106OSM    C5S10833   5.587   3.155  10.622 -1.4267 -0.3501 -0.1626
  106OSM    H5S10834   5.620   3.260  10.631  1.0205 -0.7062 -3.2621
  106OSM    C6S10835   5.704   3.074  10.576 -0.2540 -0.2349 -0.9013
  106OSM    H6S10836   5.687   2.966  10.594  1.1490 -0.1927  0.9140
  106OSM    H6T10837   5.785   3.085  10.651 -2.5619  1.9442  1.5138
  106OSM    C7S10838   5.752   3.098  10.429 -0.6191 -0.1639 -0.4883
  106OSM    H7S10839   5.828   3.018  10.414 -0.2008  0.5278 -2.4527
  106OSM    H7T10840   5.808   3.193  10.425  0.0132 -0.5696 -2.0276
  106OSM    C8S10841   5.646   3.078  10.323 -0.2943 -0.5529  0.2589
  106OSM    H8S10842   5.563   3.152  10.331 -0.6192 -1.1425  3.4311
  106OSM    H8T10843   5.601   2.976  10.325 -0.4769 -0.6401 -2.9797
  106OSM    C9S10844   5.719   3.086  10.182 -0.0924  0.9387 -0.1701
  106OSM    H9S10845   5.802   3.012  10.191 -1.4030 -0.5080  0.4718
  106OSM    H9T10846   5.750   3.193  10.182  0.4324  0.7922 -0.4857
  106OSM   C10S10847   5.626   3.043  10.069  0.5762 -0.3237 -0.4725
  106OSM   H10S10848   5.560   3.129  10.046 -0.3274 -0.5681  1.0764
  106OSM   H10T10849   5.554   2.965  10.100  1.0456 -0.3180  0.7184
  106OSM   C11S10850   5.709   2.998   9.949 -0.4572 -0.3882 -0.9559
  106OSM   H11S10851   5.724   2.888   9.948  2.8676 -0.0170 -1.3090
  106OSM   H11T10852   5.805   3.052   9.958  0.5603 -2.3740  1.1833
  106OSM   C12S10853   5.636   3.026   9.817  0.1524 -0.1850  0.6941
  106OSM   H12S10854   5.592   3.127   9.834 -2.0580 -0.8084 -0.7586
  106OSM   H12T10855   5.561   2.954   9.776 -0.8860  0.9805  0.4675
  106OSM   C13S10856   5.739   3.053   9.708 -0.1513 -0.2171  0.2904
  106OSM   H13S10857   5.790   2.960   9.676  0.8487  0.8654 -1.4580
  106OSM   H13T10858   5.823   3.113   9.749  1.8233 -3.0639  0.7093
  106OSM   C14S10859   5.677   3.124   9.583 -0.3924 -0.2683 -0.1439
  106OSM   H14S10860   5.631   3.212   9.632  2.0109  0.3845  1.1101
  106OSM   H14T10861   5.610   3.057   9.524 -0.7251  0.5069 -0.6521
  106OSM   C15S10862   5.777   3.185   9.488  0.5024 -0.6345 -0.3712
  106OSM   H15S10863   5.855   3.246   9.539  1.6992 -1.3981 -1.2377
  106OSM   H15T10864   5.723   3.255   9.420  0.9206  1.4124  1.2871
  106OSM   C16S10865   5.840   3.076   9.400  0.7280  0.1452 -0.0970
  106OSM   H16S10866   5.763   3.040   9.328  0.1504  3.0960 -1.0746
  106OSM   H16T10867   5.872   2.991   9.465 -1.3730 -0.3617  0.3780
  106OSM   C17S10868   5.961   3.132   9.313  0.7129 -0.0280 -0.5223
  106OSM   H17S10869   6.029   3.161   9.397 -1.9923 -0.5905  2.0365
  106OSM   H17T10870   5.936   3.224   9.256  2.5732  2.2212  1.9985
  106OSM   C18S10871   6.028   3.020   9.239 -0.8996  0.2060  0.3177
  106OSM   H18S10872   6.128   3.059   9.209 -1.2614  0.1415 -1.0551
  106OSM   H18T10873   5.967   2.972   9.160  0.2637 -1.1698  0.2315
  106OSM   H18U10874   6.034   2.928   9.301 -1.7397  0.3462  0.6141
  106OSM    C1F10875   5.299   3.310  10.271  0.0676 -0.3056 -0.3388
  106OSM     OF10876   5.348   3.419  10.268  0.3750 -0.1836  0.0255
  106OSM    C2F10877   5.244   3.246  10.146 -0.3287 -0.3597  0.0262
  106OSM    H2F10878   5.134   3.250  10.164 -0.7284 -0.0165 -2.1649
  106OSM    H2G10879   5.281   3.141  10.148  0.2792 -0.1770 -1.0888
  106OSM    C3F10880   5.287   3.331  10.026 -0.1270  0.6703  0.5132
  106OSM    H3F10881   5.389   3.293  10.004  0.0276  0.6626  1.2373
  106OSM    H3G10882   5.279   3.442  10.023 -2.1973  0.5557 -1.5752
  106OSM    C4F10883   5.214   3.286   9.901 -0.3559 -0.0156  0.3758
  106OSM    H4F10884   5.107   3.317   9.902  0.0008  1.3110 -0.1369
  106OSM    H4G10885   5.219   3.177   9.885  1.3933  0.3156 -1.7817
  106OSM    C5F10886   5.270   3.347   9.761 -0.5127  0.4231  0.7614
  106OSM    H5F10887   5.379   3.332   9.748 -0.9888 -2.5135 -0.6426
  106OSM    H5G10888   5.276   3.457   9.778 -0.6733  0.1073  3.2382
  106OSM    C6F10889   5.185   3.317   9.639 -0.3868  0.9762  0.3877
  106OSM    H6F10890   5.079   3.348   9.650 -0.3844  1.2702 -0.3461
  106OSM    H6G10891   5.179   3.207   9.625  0.7748  0.9687 -0.1771
  106OSM    C7F10892   5.245   3.385   9.515  0.6872 -0.7475 -0.3837
  106OSM    H7F10893   5.260   3.494   9.529  2.1825 -0.6507 -2.3317
  106OSM    H7G10894   5.171   3.386   9.432  0.4689  0.8033 -0.2063
  106OSM    C8F10895   5.381   3.322   9.458 -0.2800  0.1123 -0.1035
  106OSM    H8F10896   5.465   3.326   9.531  0.3364 -1.5280 -0.6606
  106OSM    H8G10897   5.409   3.395   9.379 -1.0870  2.5034  1.7330
  106OSM    C9F10898   5.380   3.178   9.403 -0.2682  0.1608 -0.4101
  106OSM    H9F10899   5.342   3.101   9.472 -1.1747 -0.4305 -1.5426
  106OSM   C10F10900   5.427   3.133   9.290 -0.1979  0.0561  0.5479
  106OSM   H10F10901   5.407   3.028   9.262  0.5319  0.0779 -0.0724
  106OSM   C11F10902   5.495   3.220   9.182 -0.0265 -0.2532 -0.0714
  106OSM   H11F10903   5.604   3.227   9.203  0.6208 -2.4870 -2.2328
  106OSM   H11G10904   5.459   3.325   9.191  1.1788  0.0112  3.0696
  106OSM   C12F10905   5.476   3.159   9.041 -0.5955  0.2326 -0.1763
  106OSM   H12F10906   5.368   3.140   9.026 -0.6277 -0.1865  0.5376
  106OSM   H12G10907   5.520   3.056   9.040  0.1030  0.5244 -0.7512
  106OSM   C13F10908   5.537   3.242   8.923 -0.4820  1.0522 -1.1403
  106OSM   H13F10909   5.610   3.313   8.966 -1.3342  1.3818 -0.1972
  106OSM   H13G10910   5.448   3.282   8.870 -2.1385 -2.5114 -1.3488
  106OSM   C14F10911   5.618   3.140   8.832 -0.8574 -0.1464  0.4387
  106OSM   H14F10912   5.545   3.060   8.808  0.1915 -0.8280 -0.5390
  106OSM   H14G10913   5.702   3.106   8.896 -0.6448 -0.3720  0.0416
  106OSM   C15F10914   5.671   3.212   8.705 -0.2166 -0.0933 -0.7493
  106OSM   H15F10915   5.759   3.272   8.737 -2.0750  1.0870  2.6824
  106OSM   H15G10916   5.596   3.284   8.669 -0.5351 -1.2333 -2.4815
  106OSM   C16F10917   5.719   3.109   8.602  0.6259  0.0871  1.0371
  106OSM   H16F10918   5.772   3.160   8.519  4.6237 -2.3669  1.8169
  106OSM   H16G10919   5.635   3.053   8.553  0.4948  0.6005  0.6642
  106OSM   C17F10920   5.813   3.006   8.663 -0.0524 -0.6532  0.2936
  106OSM   H17F10921   5.766   2.919   8.714  0.7914 -1.6653 -0.5844
  106OSM   H17G10922   5.860   3.060   8.748 -0.1210 -0.5915  0.2917
  106OSM   C18F10923   5.926   2.940   8.569  0.5774  0.1964  0.2107
  106OSM   H18F10924   5.997   3.017   8.532 -1.9066  0.9014 -3.6789
  106OSM   H18G10925   5.884   2.898   8.475  2.2348 -0.5438 -0.2538
  106OSM   H18H10926   5.984   2.866   8.629  3.3106  1.7179 -0.3505
  107OSM      N10927   5.725   0.026  11.242  0.3895  0.1291  0.3608
  107OSM    C1510928   5.872   0.074  11.222 -0.4206 -0.0766 -0.5274
  107OSM   H15A10929   5.873   0.155  11.151 -0.2744 -1.1616 -1.8246
  107OSM   H15B10930   5.934   0.001  11.172  1.3705 -0.2622  1.8204
  107OSM   H15C10931   5.923   0.107  11.311  0.3116 -1.7275 -0.2933
  107OSM    C1410932   5.728  -0.094  11.330  0.1967 -0.4210  0.0779
  107OSM   H14A10933   5.629  -0.112  11.370 -0.0371 -0.7767 -0.6472
  107OSM   H14B10934   5.805  -0.080  11.404  0.8415  1.4444 -0.8955
  107OSM   H14C10935   5.751  -0.183  11.275 -1.9574 -0.7041 -0.4731
  107OSM    C1310936   5.637   0.134  11.296  0.0898  0.3411 -0.2486
  107OSM   H13A10937   5.535   0.099  11.289  0.7417 -1.8209  0.3172
  107OSM   H13B10938   5.648   0.227  11.243  0.6782  1.8720  2.3756
  107OSM   H13C10939   5.660   0.147  11.401  1.6232 -0.7928 -0.4215
  107OSM    C1210940   5.662  -0.027  11.114  0.5708  0.0355 -0.4262
  107OSM   H12A10941   5.560  -0.057  11.131 -0.8112  2.2729 -3.7598
  107OSM   H12B10942   5.720  -0.117  11.096  3.1651  1.1764  1.5611
  107OSM    C1110943   5.656   0.070  10.988 -0.7001  0.3688 -0.1647
  107OSM   H11A10944   5.641  -0.002  10.905  2.0489 -0.3422 -0.1702
  107OSM   H11B10945   5.754   0.120  10.969  1.5521 -1.9647  3.8122
  107OSM      P10946   5.412   0.160  11.010 -0.1915 -0.2426 -0.2692
  107OSM    O1310947   5.380   0.077  11.125 -0.0739  0.1846  0.4677
  107OSM    O1410948   5.340   0.287  11.001 -0.0099 -0.9292 -0.5480
  107OSM    O1110949   5.387   0.076  10.875  0.5185  0.1999  0.0253
  107OSM    O1210950   5.570   0.181  11.013  0.1534 -0.0603 -0.0924
  107OSM    C1S10951   5.401   0.131  10.746 -0.1030  0.4146 -0.2157
  107OSM    H1S10952   5.502   0.170  10.720 -0.5180 -0.1240 -3.0248
  107OSM    H1T10953   5.316   0.195  10.713 -1.1608 -0.1198  1.3526
  107OSM     NF10954   5.450   0.047  10.513  0.1638  0.6490  0.0478
  107OSM    HNF10955   5.389   0.078  10.441  2.2904  0.6304 -1.8988
  107OSM    C2S10956   5.394   0.010  10.640  0.2929  0.6436  0.3285
  107OSM    H2S10957   5.453  -0.071  10.685 -1.0006  0.1648  1.2155
  107OSM    C3S10958   5.244  -0.039  10.637  0.1807  0.3363  0.4186
  107OSM    H3S10959   5.183   0.050  10.608 -0.8995 -0.1797  1.0187
  107OSM     O310960   5.186  -0.090  10.764 -0.0180  0.3156 -0.5271
  107OSM    HO310961   5.249  -0.062  10.831  0.8069 -0.7818 -0.8182
  107OSM    C4S10962   5.233  -0.144  10.530  0.0331 -0.3594  0.0556
  107OSM    H4S10963   5.308  -0.222  10.549 -0.1967 -0.5709  0.1019
  107OSM    C5S10964   5.132  -0.145  10.439  0.0070  0.3003  0.4555
  107OSM    H5S10965   5.068  -0.056  10.430  0.3799  0.7635  2.1073
  107OSM    C6S10966   5.121  -0.249  10.336  0.3116 -0.3158  0.6784
  107OSM    H6S10967   5.015  -0.275  10.312  0.0962  1.5472 -0.5612
  107OSM    H6T10968   5.164  -0.345  10.372  0.4798 -0.3528  0.3817
  107OSM    C7S10969   5.187  -0.201  10.208  0.3460  0.1666  0.6110
  107OSM    H7S10970   5.287  -0.154  10.218 -1.0058  3.0026  2.2781
  107OSM    H7T10971   5.117  -0.121  10.173  0.8610  0.5774  0.5063
  107OSM    C8S10972   5.196  -0.317  10.108 -0.0009 -0.3236  0.5793
  107OSM    H8S10973   5.094  -0.354  10.084  0.1788 -1.7375  1.8274
  107OSM    H8T10974   5.252  -0.404  10.147  0.7523  0.2282  0.7562
  107OSM    C9S10975   5.263  -0.270   9.976 -0.1970 -0.9999  0.1598
  107OSM    H9S10976   5.343  -0.210  10.025 -1.4438  0.2967  0.6534
  107OSM    H9T10977   5.199  -0.197   9.922 -0.9198 -0.6392  1.4658
  107OSM   C10S10978   5.332  -0.372   9.888 -0.1376 -0.1663 -0.6040
  107OSM   H10S10979   5.266  -0.457   9.859  1.4209 -0.8585 -2.3656
  107OSM   H10T10980   5.421  -0.406   9.945 -0.6645 -2.3435 -0.9788
  107OSM   C11S10981   5.370  -0.313   9.745 -0.1302  0.0660  0.3415
  107OSM   H11S10982   5.460  -0.248   9.755  0.4107 -0.7334  0.7652
  107OSM   H11T10983   5.284  -0.250   9.711  0.8090  1.7583  0.9729
  107OSM   C12S10984   5.406  -0.424   9.649  0.1676 -0.6036 -0.1728
  107OSM   H12S10985   5.314  -0.477   9.618 -1.2070  1.6622 -0.1974
  107OSM   H12T10986   5.476  -0.496   9.696 -0.8138 -0.9298  0.8315
  107OSM   C13S10987   5.462  -0.355   9.521 -0.2441  0.4282 -0.2342
  107OSM   H13S10988   5.570  -0.332   9.535 -0.0845 -0.9462  0.9775
  107OSM   H13T10989   5.405  -0.260   9.508 -0.7166  0.2050  0.2238
  107OSM   C14S10990   5.445  -0.439   9.391  0.0642 -0.0288 -0.2587
  107OSM   H14S10991   5.346  -0.490   9.392 -1.0231  1.9154 -0.9744
  107OSM   H14T10992   5.525  -0.515   9.398 -1.3257 -1.3829  3.1096
  107OSM   C15S10993   5.440  -0.363   9.260 -0.2590 -0.0579  0.4666
  107OSM   H15S10994   5.521  -0.287   9.259 -0.5366  0.3332 -2.5203
  107OSM   H15T10995   5.345  -0.305   9.256 -0.5087 -0.5189 -0.4707
  107OSM   C16S10996   5.475  -0.457   9.136  0.0374  0.2592 -0.4387
  107OSM   H16S10997   5.406  -0.544   9.129  0.2857 -0.2913  2.3989
  107OSM   H16T10998   5.573  -0.510   9.139 -0.5587 -0.9808 -1.7278
  107OSM   C17S10999   5.469  -0.370   9.012 -0.5990 -0.3407  0.4542
  107OSM   H17S11000   5.380  -0.304   9.003  0.3269  1.3024  2.5165
  107OSM   H17T11001   5.480  -0.438   8.925  0.6504  0.0564  0.2792
  107OSM   C18S11002   5.595  -0.286   8.994  0.1601 -0.5656  0.4562
  107OSM   H18S11003   5.683  -0.342   9.031  0.6996  0.0001  0.0435
  107OSM   H18T11004   5.591  -0.204   9.068  1.2652 -0.9537  0.9646
  107OSM   H18U11005   5.602  -0.242   8.892  1.3246  1.1900  1.2569
  107OSM    C1F11006   5.581   0.066  10.481 -0.1820  0.2211 -1.3978
  107OSM     OF11007   5.673   0.079  10.569 -0.3990 -0.1758 -0.2320
  107OSM    C2F11008   5.600   0.108  10.340  0.0624 -0.2604  1.3917
  107OSM    H2F11009   5.584   0.218  10.339  0.5878 -0.1423  2.8569
  107OSM    H2G11010   5.533   0.055  10.269  0.9689 -0.5303  0.7195
  107OSM    C3F11011   5.739   0.082  10.285  0.1982  0.5882 -0.3303
  107OSM    H3F11012   5.760  -0.026  10.301  0.0834  0.4676 -0.9867
  107OSM    H3G11013   5.820   0.129  10.344  1.5667 -1.1755 -0.7347
  107OSM    C4F11014   5.760   0.109  10.143 -0.5715 -0.0026  0.1723
  107OSM    H4F11015   5.718   0.210  10.122 -0.6934  0.0498  0.6518
  107OSM    H4G11016   5.707   0.030  10.085  1.3264 -2.2548  1.3248
  107OSM    C5F11017   5.915   0.121  10.111 -0.2348 -0.0620 -0.0034
  107OSM    H5F11018   5.964   0.027  10.143  0.4637 -0.2049 -1.3792
  107OSM    H5G11019   5.964   0.203  10.168 -0.5117  0.5598 -0.6337
  107OSM    C6F11020   5.952   0.148   9.962  0.0344  0.3356  0.5567
  107OSM    H6F11021   5.918   0.059   9.904 -2.6552  2.8498 -2.0638
  107OSM    H6G11022   6.063   0.156   9.963  0.0385  0.3125  0.3320
  107OSM    C7F11023   5.878   0.264   9.891 -0.6558 -1.0933 -0.6638
  107OSM    H7F11024   5.889   0.357   9.950  1.2928 -2.2238  0.8957
  107OSM    H7G11025   5.768   0.267   9.882 -0.6735 -2.5329 -1.2791
  107OSM    C8F11026   5.941   0.290   9.757 -0.1887 -0.3345  0.5618
  107OSM    H8F11027   6.050   0.296   9.777  0.1250 -0.8615 -0.8331
  107OSM    H8G11028   5.899   0.386   9.720 -0.6154 -0.9480 -0.6025
  107OSM    C9F11029   5.918   0.193   9.646 -0.0044 -0.2566 -0.2947
  107OSM    H9F11030   5.842   0.117   9.671 -0.4696  1.0506  2.5884
  107OSM   C10F11031   5.977   0.185   9.527 -0.2434 -0.3227  0.2157
  107OSM   H10F11032   5.940   0.113   9.453  0.2124 -0.2825 -0.0507
  107OSM   C11F11033   6.083   0.277   9.479 -0.0462  0.1151  0.3234
  107OSM   H11F11034   6.175   0.234   9.523 -1.4970 -2.5883  0.8963
  107OSM   H11G11035   6.053   0.375   9.522  2.2375 -0.3036  3.1507
  107OSM   C12F11036   6.083   0.281   9.323  0.0188 -0.1029  0.0561
  107OSM   H12F11037   6.079   0.176   9.288 -2.7640 -0.2454  0.5703
  107OSM   H12G11038   6.176   0.326   9.284  0.1718 -0.9537 -0.6027
  107OSM   C13F11039   5.968   0.372   9.277 -0.6464 -0.9162 -1.5237
  107OSM   H13F11040   5.955   0.442   9.362  1.3260 -0.8709 -1.2080
  107OSM   H13G11041   5.873   0.315   9.261 -0.6749 -0.8008 -1.7768
  107OSM   C14F11042   5.998   0.446   9.154 -0.5196  0.1411  0.4134
  107OSM   H14F11043   6.089   0.504   9.183 -0.7720  0.5435  0.4022
  107OSM   H14G11044   5.913   0.513   9.132 -0.4061 -0.2529 -1.3776
  107OSM   C15F11045   6.014   0.339   9.042 -0.5838  0.4924  0.4605
  107OSM   H15F11046   5.932   0.264   9.042 -1.8697  1.8315  2.1219
  107OSM   H15G11047   6.106   0.288   9.077 -1.3838  0.4649  2.6909
  107OSM   C16F11048   6.016   0.404   8.904  0.2234  0.6008 -0.1857
  107OSM   H16F11049   6.104   0.469   8.887  0.5879  0.4099  0.9152
  107OSM   H16G11050   5.925   0.468   8.906 -2.0919 -1.8051 -6.2532
  107OSM   C17F11051   6.006   0.312   8.780  0.3167 -0.8767 -0.0452
  107OSM   H17F11052   6.077   0.227   8.795  0.5824 -0.7033 -0.3051
  107OSM   H17G11053   6.040   0.356   8.684  0.4746  2.2512  1.3428
  107OSM   C18F11054   5.860   0.262   8.762  0.4025 -0.8604 -0.1391
  107OSM   H18F11055   5.840   0.213   8.859 -0.4903  0.9493  0.6349
  107OSM   H18G11056   5.855   0.190   8.677  2.1119 -0.8502 -0.2838
  107OSM   H18H11057   5.786   0.342   8.741  1.2223 -0.2643 -0.8314
  108OSM      N11058   2.300   4.811  11.224  0.5633 -0.0414 -0.0389
  108OSM    C1511059   2.354   4.677  11.211 -1.1680 -0.2646  0.1725
  108OSM   H15A11060   2.291   4.605  11.262 -0.4362 -0.0978  1.3596
  108OSM   H15B11061   2.457   4.655  11.237 -0.8611 -2.3324 -2.3593
  108OSM   H15C11062   2.346   4.638  11.111 -0.0035  0.4284 -0.2036
  108OSM    C1411063   2.299   4.853  11.371  0.2761 -0.3322 -0.2195
  108OSM   H14A11064   2.276   4.958  11.379  0.4777 -0.2738 -0.3835
  108OSM   H14B11065   2.403   4.846  11.399  0.5833  1.2776 -0.8318
  108OSM   H14C11066   2.232   4.797  11.434 -1.5289  0.8652 -0.9907
  108OSM    C1311067   2.392   4.903  11.151  0.6011  0.1624 -0.4805
  108OSM   H13A11068   2.358   5.003  11.171  0.1095  0.3385 -2.0250
  108OSM   H13B11069   2.390   4.885  11.044 -0.5636 -1.0254 -0.2794
  108OSM   H13C11070   2.493   4.898  11.187  1.0228  1.0980 -1.4747
  108OSM    C1211071   2.158   4.818  11.167 -0.0217 -0.3579 -0.3547
  108OSM   H12A11072   2.116   4.916  11.186  0.5763  0.1249 -1.4034
  108OSM   H12B11073   2.099   4.747  11.222 -0.6077  1.5484  1.6323
  108OSM    C1111074   2.143   4.798  11.021  0.3895  0.6879  0.1262
  108OSM   H11A11075   2.215   4.862  10.966  1.4896 -1.5924 -1.2391
  108OSM   H11B11076   2.041   4.833  10.995  0.1200  0.3939  0.7682
  108OSM      P11077   2.050   4.547  10.997  0.0778 -0.4375 -0.0910
  108OSM    O1311078   2.127   4.423  10.980 -0.3079 -0.2589 -0.1131
  108OSM    O1411079   1.976   4.559  11.125 -0.2464  0.3224  0.6633
  108OSM    O1111080   1.956   4.567  10.874  0.3434  0.6277  0.1770
  108OSM    O1211081   2.167   4.658  10.992 -0.2001 -0.1816  0.0709
  108OSM    C1S11082   2.003   4.651  10.768 -0.0080  0.8626 -0.9006
  108OSM    H1S11083   2.113   4.651  10.754  0.5165  1.4995  2.5432
  108OSM    H1T11084   1.971   4.755  10.788  1.7356  1.2992 -0.2648
  108OSM     NF11085   1.969   4.690  10.522  0.1607 -0.1332  0.6690
  108OSM    HNF11086   1.892   4.736  10.479  1.7840  0.8629 -1.3456
  108OSM    C2S11087   1.939   4.602  10.634  0.1310  0.2595 -0.6373
  108OSM    H2S11088   1.985   4.503  10.613 -1.3864 -0.6146 -0.0329
  108OSM    C3S11089   1.786   4.575  10.639 -0.4651 -0.2484  0.3664
  108OSM    H3S11090   1.743   4.672  10.671 -0.6822 -0.3989  0.5292
  108OSM     O311091   1.739   4.476  10.734 -0.1427 -0.4990  0.0142
  108OSM    HO311092   1.815   4.461  10.791  1.1640 -2.4037 -2.0843
  108OSM    C4S11093   1.737   4.523  10.514 -0.4347  0.3470  0.1761
  108OSM    H4S11094   1.795   4.433  10.490  0.5246  1.3049 -1.2088
  108OSM    C5S11095   1.633   4.571  10.437  0.2076  0.6699 -0.5898
  108OSM    H5S11096   1.580   4.662  10.470 -0.8709  0.7057 -2.3116
  108OSM    C6S11097   1.579   4.512  10.314 -0.1257  0.0849  0.3869
  108OSM    H6S11098   1.524   4.598  10.271 -1.8528  0.1230  2.4859
  108OSM    H6T11099   1.511   4.427  10.334  1.0467 -0.5811  1.7528
  108OSM    C7S11100   1.675   4.441  10.219 -0.2473  0.1568 -0.1400
  108OSM    H7S11101   1.737   4.372  10.281 -0.3717  0.5462  0.4244
  108OSM    H7T11102   1.731   4.525  10.172  2.5616 -1.0528  0.8021
  108OSM    C8S11103   1.614   4.347  10.116  0.7162  0.0620  0.2014
  108OSM    H8S11104   1.534   4.405  10.065 -1.4088 -2.8069  0.0289
  108OSM    H8T11105   1.561   4.257  10.153 -1.4538  0.9522 -0.5900
  108OSM    C9S11106   1.709   4.317   9.994  0.0524  0.1656 -0.4696
  108OSM    H9S11107   1.778   4.240  10.035 -1.7559 -1.7722 -0.8949
  108OSM    H9T11108   1.756   4.414   9.965  0.1583  0.6584  1.2208
  108OSM   C10S11109   1.637   4.249   9.875  0.3660 -0.2185 -0.4422
  108OSM   H10S11110   1.550   4.311   9.844  0.0379 -0.6730 -0.4321
  108OSM   H10T11111   1.589   4.157   9.914 -0.0685  0.9547  2.0216
  108OSM   C11S11112   1.735   4.231   9.756 -0.7775  0.9078 -0.0044
  108OSM   H11S11113   1.800   4.149   9.793 -1.6174 -1.1656 -2.7594
  108OSM   H11T11114   1.793   4.321   9.725 -0.1495 -0.0941 -1.9299
  108OSM   C12S11115   1.663   4.169   9.631  0.2606  0.6345  0.2626
  108OSM   H12S11116   1.586   4.242   9.598 -0.9322 -1.1949 -1.2140
  108OSM   H12T11117   1.606   4.075   9.650 -1.4810  1.2764 -1.4455
  108OSM   C13S11118   1.755   4.162   9.506  0.0117 -0.3800  0.1070
  108OSM   H13S11119   1.817   4.071   9.520  1.7952  0.3746 -2.2243
  108OSM   H13T11120   1.832   4.243   9.509  0.4281 -0.7972  1.4889
  108OSM   C14S11121   1.698   4.154   9.365  0.7778  0.0222  0.3353
  108OSM   H14S11122   1.649   4.252   9.344 -1.8586 -1.1152  0.8027
  108OSM   H14T11123   1.621   4.074   9.372  2.1830 -1.8432 -3.1342
  108OSM   C15S11124   1.796   4.120   9.261  0.0611  0.7104  0.2217
  108OSM   H15S11125   1.831   4.018   9.291 -0.9428  0.4330  0.4777
  108OSM   H15T11126   1.888   4.183   9.256  1.2697 -0.6907  2.8155
  108OSM   C16S11127   1.747   4.126   9.118  0.9458 -0.0843  0.1259
  108OSM   H16S11128   1.696   4.224   9.103 -0.6028 -0.7146  0.9902
  108OSM   H16T11129   1.668   4.051   9.096  0.8920  0.6167 -2.5046
  108OSM   C17S11130   1.850   4.110   9.011  0.3906  0.6118 -0.1522
  108OSM   H17S11131   1.912   4.021   9.034  0.1715  0.5132  0.0524
  108OSM   H17T11132   1.922   4.195   9.001  0.7396  0.3401  0.0316
  108OSM   C18S11133   1.790   4.089   8.869  0.1697 -0.0954 -0.1162
  108OSM   H18S11134   1.875   4.101   8.798 -1.8334 -4.1427 -3.6518
  108OSM   H18T11135   1.715   4.170   8.859  0.1133 -0.0537  0.6021
  108OSM   H18U11136   1.749   3.986   8.859  0.0403 -0.0186 -0.3944
  108OSM    C1F11137   2.087   4.727  10.464  0.8117  0.6742  0.1059
  108OSM     OF11138   2.195   4.691  10.507 -0.2469 -0.0705 -0.3450
  108OSM    C2F11139   2.071   4.818  10.343  0.0407 -0.6152  0.0308
  108OSM    H2F11140   2.090   4.923  10.374 -1.5051  0.1452 -1.4327
  108OSM    H2G11141   1.964   4.821  10.314  0.3781  3.0811 -1.3277
  108OSM    C3F11142   2.163   4.771  10.230 -0.4894 -0.9962 -0.0155
  108OSM    H3F11143   2.137   4.667  10.198  2.0107 -2.3475  1.9660
  108OSM    H3G11144   2.266   4.772  10.271 -0.5641  0.6476  0.1698
  108OSM    C4F11145   2.166   4.864  10.109  0.1124 -1.3442  0.0340
  108OSM    H4F11146   2.260   4.845  10.054  1.1828 -0.5630  1.5416
  108OSM    H4G11147   2.167   4.965  10.155 -2.4855 -0.8550 -0.7865
  108OSM    C5F11148   2.044   4.851  10.020 -0.0018 -0.1504  0.2935
  108OSM    H5F11149   2.025   4.952   9.977  1.6808  0.4821  0.9436
  108OSM    H5G11150   1.963   4.814  10.086  0.1022 -2.9773 -1.0288
  108OSM    C6F11151   2.061   4.737   9.913  0.1714  0.6091 -0.0758
  108OSM    H6F11152   2.108   4.654   9.971 -2.4966  0.8931  2.7642
  108OSM    H6G11153   2.141   4.784   9.852  0.2399 -0.4258 -0.8119
  108OSM    C7F11154   1.940   4.708   9.817 -0.0579  0.7191 -0.3902
  108OSM    H7F11155   1.895   4.788   9.756  0.1552  0.6594 -0.6278
  108OSM    H7G11156   1.859   4.677   9.887 -0.4556  2.9368  0.1919
  108OSM    C8F11157   1.962   4.581   9.724 -0.3730  0.8204 -0.3564
  108OSM    H8F11158   1.866   4.544   9.684  0.9096 -1.3002 -1.6611
  108OSM    H8G11159   2.004   4.499   9.785 -2.1069  0.2196  0.0866
  108OSM    C9F11160   2.051   4.614   9.608  0.0184 -0.2985 -0.0012
  108OSM    H9F11161   2.139   4.676   9.631 -0.0374  0.0116 -0.5957
  108OSM   C10F11162   2.026   4.589   9.478 -0.2763 -0.5078  0.1444
  108OSM   H10F11163   2.092   4.636   9.403 -1.2905 -2.5038 -2.1275
  108OSM   C11F11164   1.912   4.516   9.428  0.3486 -0.2460 -0.1162
  108OSM   H11F11165   1.817   4.543   9.478 -0.9369 -1.8575 -1.5430
  108OSM   H11G11166   1.939   4.412   9.457 -2.4791 -0.9445  0.2990
  108OSM   C12F11167   1.883   4.538   9.276 -0.0710 -0.1708 -0.3981
  108OSM   H12F11168   1.850   4.643   9.258 -1.4213 -0.5254 -0.1100
  108OSM   H12G11169   1.808   4.459   9.255  2.2669 -2.5494 -0.4209
  108OSM   C13F11170   1.993   4.494   9.174  0.4935  0.0823  0.1465
  108OSM   H13F11171   1.987   4.383   9.164  1.9637  0.1473 -1.9916
  108OSM   H13G11172   2.097   4.518   9.202  0.6198  1.0371 -1.0495
  108OSM   C14F11173   1.980   4.551   9.029 -0.3396  0.1167 -1.0364
  108OSM   H14F11174   1.995   4.659   9.010  1.2008 -0.2347 -1.9667
  108OSM   H14G11175   1.872   4.538   9.007 -0.4874 -1.1605  0.2167
  108OSM   C15F11176   2.076   4.469   8.934  0.2430  0.2152  0.9004
  108OSM   H15F11177   2.065   4.359   8.946 -0.9531  0.3056  0.7954
  108OSM   H15G11178   2.181   4.491   8.962  1.2466  0.4221 -2.5244
  108OSM   C16F11179   2.062   4.505   8.788 -0.1273  0.1883 -0.4267
  108OSM   H16F11180   2.067   4.616   8.779 -1.2718  0.2241 -0.8093
  108OSM   H16G11181   1.968   4.462   8.747  1.4073 -0.0981 -4.0258
  108OSM   C17F11182   2.171   4.460   8.695  0.1238 -0.2045  0.2786
  108OSM   H17F11183   2.185   4.352   8.716 -0.7892 -0.5123 -0.6305
  108OSM   H17G11184   2.271   4.494   8.730 -0.5249  1.4624  0.5939
  108OSM   C18F11185   2.130   4.475   8.549 -0.1100  0.2285  0.3267
  108OSM   H18F11186   2.045   4.408   8.526  1.3814 -1.2666 -1.0757
  108OSM   H18G11187   2.218   4.446   8.488 -0.4600 -0.2833  0.0576
  108OSM   H18H11188   2.088   4.576   8.528 -1.5986 -0.5067 -0.4113
  109OSM      N11189   2.992   5.381  10.834  0.1899  0.3807  0.1843
  109OSM    C1511190   2.909   5.275  10.897  0.0423  0.1608 -0.1933
  109OSM   H15A11191   2.827   5.240  10.837  0.1096 -0.3737  0.0174
  109OSM   H15B11192   2.879   5.291  10.999 -3.0671  0.3091 -1.0464
  109OSM   H15C11193   2.964   5.182  10.902 -0.5679 -0.1517  0.9787
  109OSM    C1411194   2.934   5.509  10.880  0.0425 -0.3802 -0.0748
  109OSM   H14A11195   2.958   5.528  10.984 -1.8871  2.3071 -0.0344
  109OSM   H14B11196   2.827   5.514  10.883  0.0541 -0.5601  2.0120
  109OSM   H14C11197   2.960   5.605  10.838  0.8210 -0.7879 -0.5637
  109OSM    C1311198   3.132   5.367  10.891 -0.5536  0.1625 -0.4828
  109OSM   H13A11199   3.200   5.450  10.885  2.2599 -1.9310  0.2260
  109OSM   H13B11200   3.185   5.280  10.855 -0.3348  0.3158 -0.5346
  109OSM   H13C11201   3.136   5.351  10.998 -1.6079  0.4532 -0.3932
  109OSM    C1211202   2.977   5.374  10.686 -0.2365 -0.0198  0.3187
  109OSM   H12A11203   2.873   5.395  10.666 -0.1227  0.1384 -0.1107
  109OSM   H12B11204   2.993   5.272  10.654 -2.9212 -0.2856 -0.4941
  109OSM    C1111205   3.069   5.465  10.596  0.6567 -0.2304 -0.4340
  109OSM   H11A11206   3.036   5.567  10.624  1.0924 -0.0854 -0.4481
  109OSM   H11B11207   3.030   5.440  10.495  0.3966  1.3880 -0.7651
  109OSM      P11208   3.301   5.359  10.534 -0.0562  0.3277  0.1952
  109OSM    O1311209   3.435   5.386  10.584 -0.2287  0.2282 -0.0359
  109OSM    O1411210   3.247   5.221  10.548 -0.2430 -0.9500 -0.1528
  109OSM    O1111211   3.294   5.416  10.374 -0.0913 -0.3764 -0.4345
  109OSM    O1211212   3.207   5.456  10.609  0.2444 -0.3337 -1.0267
  109OSM    C1S11213   3.328   5.551  10.334  0.4630 -0.0116  0.2338
  109OSM    H1S11214   3.438   5.566  10.346  0.2764  2.3829 -0.5905
  109OSM    H1T11215   3.256   5.619  10.385  0.1051  0.1670 -0.4954
  109OSM     NF11216   3.303   5.731  10.168  0.0622  0.3616  0.4408
  109OSM    HNF11217   3.228   5.783  10.129  0.7189  0.9803 -0.0264
  109OSM    C2S11218   3.292   5.589  10.183 -0.4228 -0.8560 -0.7212
  109OSM    H2S11219   3.364   5.544  10.110  0.9140 -0.9262  0.5878
  109OSM    C3S11220   3.155   5.527  10.153 -0.6107  0.5157  0.0636
  109OSM    H3S11221   3.078   5.570  10.221 -1.4446  1.3721 -1.3629
  109OSM     O311222   3.158   5.380  10.159 -0.8490  0.1194  0.3660
  109OSM    HO311223   3.235   5.363  10.215 -0.2491 -0.6580 -0.6600
  109OSM    C4S11224   3.121   5.580  10.017  0.0572  0.2646  0.4234
  109OSM    H4S11225   3.048   5.663  10.024 -0.2441  0.2601 -1.8924
  109OSM    C5S11226   3.167   5.534   9.896  0.1780 -0.2765 -0.0742
  109OSM    H5S11227   3.224   5.440   9.894  1.0837  0.2531 -2.3828
  109OSM    C6S11228   3.113   5.591   9.772 -0.0593  0.1719  0.2269
  109OSM    H6S11229   3.058   5.688   9.772 -0.7778 -0.2226  0.4466
  109OSM    H6T11230   3.043   5.518   9.725 -1.3627  1.0063  0.8236
  109OSM    C7S11231   3.230   5.621   9.666  0.1165 -0.3605  0.2172
  109OSM    H7S11232   3.293   5.530   9.682 -0.2844 -0.6061  0.4023
  109OSM    H7T11233   3.274   5.717   9.701  0.1816 -1.2904  2.9377
  109OSM    C8S11234   3.190   5.631   9.513  0.1856  0.0511 -1.0054
  109OSM    H8S11235   3.137   5.728   9.513  2.7232  1.7420  3.2078
  109OSM    H8T11236   3.127   5.541   9.495 -0.1697  0.1711 -0.4000
  109OSM    C9S11237   3.308   5.639   9.418 -0.1172  0.9817  0.5675
  109OSM    H9S11238   3.374   5.551   9.434 -1.1723 -0.7903 -3.5283
  109OSM    H9T11239   3.369   5.726   9.452  0.1548  0.2685  1.9857
  109OSM   C10S11240   3.293   5.651   9.265 -0.3877  0.3787 -0.2210
  109OSM   H10S11241   3.200   5.706   9.240 -2.0602 -2.8842 -1.6115
  109OSM   H10T11242   3.268   5.548   9.233 -0.8375  0.0212  1.2299
  109OSM   C11S11243   3.419   5.710   9.184  0.3796  0.0364 -0.1065
  109OSM   H11S11244   3.513   5.653   9.201  2.1704  1.4184 -4.0459
  109OSM   H11T11245   3.446   5.813   9.216  2.5565 -0.7001  0.6274
  109OSM   C12S11246   3.406   5.673   9.034 -0.0590  0.1165 -0.1630
  109OSM   H12S11247   3.379   5.565   9.027 -0.5873  0.2509 -0.2054
  109OSM   H12T11248   3.505   5.687   8.985  0.2458 -0.6404  0.2179
  109OSM   C13S11249   3.303   5.756   8.950  0.3015 -0.0464  0.0944
  109OSM   H13S11250   3.366   5.820   8.885  0.6767 -2.3630 -1.9362
  109OSM   H13T11251   3.232   5.819   9.009  0.3199  0.4924 -0.4524
  109OSM   C14S11252   3.222   5.677   8.850  0.2442  0.5671  0.2744
  109OSM   H14S11253   3.289   5.590   8.829  0.0670  0.4993 -0.0090
  109OSM   H14T11254   3.199   5.741   8.763 -2.1306  2.0122  1.8445
  109OSM   C15S11255   3.082   5.626   8.906 -0.4837 -0.1319  0.7921
  109OSM   H15S11256   3.024   5.715   8.937  0.0489 -0.3230  2.4473
  109OSM   H15T11257   3.104   5.566   8.997 -1.1777  1.2858  1.9268
  109OSM   C16S11258   2.999   5.545   8.795  0.4908  0.5211  0.0294
  109OSM   H16S11259   2.909   5.501   8.843  0.0676  1.1337 -0.1868
  109OSM   H16T11260   3.065   5.468   8.750  0.4610  0.9430 -0.7560
  109OSM   C17S11261   2.945   5.620   8.676  0.2639  0.0933 -0.5611
  109OSM   H17S11262   3.017   5.702   8.656 -1.8610  1.9604 -0.9110
  109OSM   H17T11263   2.849   5.666   8.707  2.1371  3.2917  0.9603
  109OSM   C18S11264   2.908   5.529   8.556 -0.4784  0.4257 -0.1908
  109OSM   H18S11265   2.850   5.574   8.473  4.6270 -0.4893 -4.8284
  109OSM   H18T11266   2.848   5.443   8.594 -0.8124  1.0605  0.7668
  109OSM   H18U11267   3.001   5.490   8.510 -0.1145  0.9854  0.0596
  109OSM    C1F11268   3.416   5.800  10.179  0.6089  0.1105 -0.0793
  109OSM     OF11269   3.519   5.753  10.214 -0.9086  0.1741 -0.1900
  109OSM    C2F11270   3.390   5.945  10.129  0.3217 -0.0378  0.0118
  109OSM    H2F11271   3.357   6.005  10.217 -3.6817  0.2256 -1.4608
  109OSM    H2G11272   3.318   5.943  10.044  0.7946  1.9236 -0.4779
  109OSM    C3F11273   3.515   6.020  10.078 -0.3308  0.6643  0.2384
  109OSM    H3F11274   3.598   6.007  10.150 -0.7410 -1.8549  0.3233
  109OSM    H3G11275   3.497   6.130  10.072 -2.9519  0.3774  1.2820
  109OSM    C4F11276   3.573   5.955   9.947  0.0541  0.0984 -0.2423
  109OSM    H4F11277   3.611   5.851   9.958  3.0484  1.2546  1.8967
  109OSM    H4G11278   3.663   6.014   9.917  0.9865 -1.4587 -0.6450
  109OSM    C5F11279   3.475   5.961   9.831  0.5512 -0.1655 -0.4540
  109OSM    H5F11280   3.415   6.050   9.859 -1.0777 -0.7446 -1.9328
  109OSM    H5G11281   3.401   5.879   9.830 -1.3671  1.4290  1.1835
  109OSM    C6F11282   3.536   5.990   9.688 -0.0593 -0.1587 -0.5612
  109OSM    H6F11283   3.532   5.898   9.626  1.4277 -0.5163 -0.1686
  109OSM    H6G11284   3.640   6.028   9.696 -0.1880  0.0177  0.2622
  109OSM    C7F11285   3.466   6.105   9.619 -0.5804  0.1254 -0.1021
  109OSM    H7F11286   3.459   6.194   9.685 -2.2404  0.6871 -0.9887
  109OSM    H7G11287   3.357   6.091   9.605 -0.9914  1.7578  1.2262
  109OSM    C8F11288   3.545   6.182   9.500 -0.5607 -0.0515  0.2791
  109OSM    H8F11289   3.650   6.188   9.535  0.4229  2.2084 -2.6512
  109OSM    H8G11290   3.505   6.284   9.483 -0.4341 -0.0377  0.0619
  109OSM    C9F11291   3.559   6.092   9.380 -0.0669  0.5237 -0.2309
  109OSM    H9F11292   3.608   5.994   9.395 -2.6869 -0.7062  0.8165
  109OSM   C10F11293   3.512   6.113   9.260 -0.4889 -0.1526  0.0476
  109OSM   H10F11294   3.535   6.041   9.181  0.3214  1.4003 -1.1702
  109OSM   C11F11295   3.436   6.237   9.220  0.0547  1.1775 -0.4405
  109OSM   H11F11296   3.511   6.315   9.195  3.1113 -1.4984 -0.3785
  109OSM   H11G11297   3.369   6.265   9.303  1.9960 -0.5756  1.8574
  109OSM   C12F11298   3.361   6.196   9.090  0.5437 -0.4658  0.4753
  109OSM   H12F11299   3.283   6.274   9.075 -0.2700 -1.4695 -0.8098
  109OSM   H12G11300   3.299   6.104   9.102  1.6418 -1.2686  0.2038
  109OSM   C13F11301   3.448   6.179   8.961  0.4114  0.3422  0.2160
  109OSM   H13F11302   3.534   6.111   8.977 -0.0468  0.2242  2.5486
  109OSM   H13G11303   3.482   6.283   8.939  0.0208  0.6847  1.1678
  109OSM   C14F11304   3.367   6.139   8.838 -0.0184  0.4659 -0.0352
  109OSM   H14F11305   3.281   6.208   8.823  1.2740  2.4450  1.2871
  109OSM   H14G11306   3.338   6.032   8.852 -1.4495  1.0211  1.5934
  109OSM   C15F11307   3.452   6.167   8.715 -0.2264 -0.7916 -0.1909
  109OSM   H15F11308   3.543   6.103   8.713  0.4545  0.0854  1.0250
  109OSM   H15G11309   3.482   6.274   8.721 -1.0680 -0.3407 -2.7952
  109OSM   C16F11310   3.376   6.130   8.587  0.0283 -0.0952  0.7724
  109OSM   H16F11311   3.284   6.192   8.584 -0.5302 -0.8008  2.2010
  109OSM   H16G11312   3.345   6.023   8.593 -2.6578  0.6420  1.7253
  109OSM   C17F11313   3.463   6.155   8.459 -0.4127 -0.5076  0.4984
  109OSM   H17F11314   3.553   6.090   8.467  1.1563  1.5707  0.7565
  109OSM   H17G11315   3.502   6.259   8.467 -3.2801  0.5719  1.9835
  109OSM   C18F11316   3.392   6.145   8.328  0.1106 -0.5244  0.2732
  109OSM   H18F11317   3.459   6.189   8.251  1.0799  2.1652  2.4997
  109OSM   H18G11318   3.303   6.211   8.323  1.9339  2.0366 -1.3277
  109OSM   H18H11319   3.371   6.038   8.306 -1.7764 -0.2122  0.4130
  110OSM      N11320   5.777   5.485  11.570  0.6965  0.3409 -0.0964
  110OSM    C1511321   5.736   5.360  11.499  0.0619  0.5889  0.2023
  110OSM   H15A11322   5.812   5.327  11.430  0.6784  1.6090  0.3622
  110OSM   H15B11323   5.644   5.365  11.441 -0.3442 -0.8846  0.6866
  110OSM   H15C11324   5.724   5.283  11.573 -1.5580  1.9510  1.4501
  110OSM    C1411325   5.682   5.516  11.680 -0.0272 -0.7288  0.1929
  110OSM   H14A11326   5.592   5.530  11.622  1.9888  0.4623 -2.9552
  110OSM   H14B11327   5.709   5.611  11.724 -0.9498 -0.2095 -0.3218
  110OSM   H14C11328   5.668   5.441  11.756 -0.6428 -0.9861 -0.1630
  110OSM    C1311329   5.912   5.464  11.618 -0.0708 -0.4058 -0.0407
  110OSM   H13A11330   5.924   5.370  11.670  0.1449  1.1368  2.8898
  110OSM   H13B11331   5.957   5.541  11.679  2.3222  0.6283 -2.8472
  110OSM   H13C11332   5.974   5.467  11.529  0.7676  1.9737  0.5605
  110OSM    C1211333   5.777   5.606  11.473 -0.3016  0.9584  0.5763
  110OSM   H12A11334   5.792   5.685  11.545  0.0780  0.2497  1.2919
  110OSM   H12B11335   5.683   5.609  11.420 -0.3271 -0.0091  0.5520
  110OSM    C1111336   5.889   5.616  11.371  0.3550  0.0929  0.4479
  110OSM   H11A11337   5.891   5.524  11.308 -1.1643 -0.7000  1.5261
  110OSM   H11B11338   5.987   5.624  11.424  2.4812 -1.3157 -2.8834
  110OSM      P11339   5.786   5.743  11.168 -0.5517  0.0811 -0.4154
  110OSM    O1311340   5.645   5.754  11.211  0.7826  0.1925 -0.8132
  110OSM    O1411341   5.831   5.851  11.081 -0.8835  0.5191 -0.0940
  110OSM    O1111342   5.813   5.611  11.094  0.0440 -0.0481 -0.0389
  110OSM    O1211343   5.874   5.740  11.298 -0.2434 -0.2544  0.0920
  110OSM    C1S11344   5.734   5.578  10.980  1.0600 -0.7619  0.6343
  110OSM    H1S11345   5.720   5.667  10.914 -1.9578 -0.3082  1.7485
  110OSM    H1T11346   5.631   5.542  10.995 -0.2388  2.2455 -0.2314
  110OSM     NF11347   5.727   5.472  10.756  0.2845  1.2155  0.1263
  110OSM    HNF11348   5.659   5.400  10.754  1.1173  0.3704  1.0841
  110OSM    C2S11349   5.806   5.481  10.880  1.1902 -0.3762  0.6946
  110OSM    H2S11350   5.910   5.521  10.871  0.6251  0.6378 -2.5798
  110OSM    C3S11351   5.818   5.336  10.950  0.6494 -0.2898  0.1396
  110OSM    H3S11352   5.715   5.297  10.967  0.4379 -0.2332 -0.9198
  110OSM     O311353   5.883   5.347  11.073 -0.3831 -0.1640  0.1968
  110OSM    HO311354   5.881   5.440  11.097  3.3777  0.2356 -0.3781
  110OSM    C4S11355   5.888   5.243  10.867 -0.6978  0.7572  0.0993
  110OSM    H4S11356   5.996   5.232  10.886 -0.8087  0.2093  0.4351
  110OSM    C5S11357   5.829   5.156  10.783  0.0877  0.2418 -0.3569
  110OSM    H5S11358   5.720   5.150  10.772  0.0961 -0.0506 -0.2951
  110OSM    C6S11359   5.908   5.059  10.700 -0.2854  0.7193 -0.0948
  110OSM    H6S11360   5.872   4.954  10.699  0.2582  0.5260 -1.8190
  110OSM    H6T11361   6.010   5.051  10.742  1.7378  1.1034 -4.4861
  110OSM    C7S11362   5.938   5.097  10.553 -0.8136  0.5369  0.0858
  110OSM    H7S11363   5.998   5.021  10.498 -2.1053  2.3068 -4.1238
  110OSM    H7T11364   6.008   5.182  10.543  1.7557 -1.4679 -0.1126
  110OSM    C8S11365   5.812   5.103  10.467 -0.1895  0.5338 -0.0611
  110OSM    H8S11366   5.736   5.167  10.515 -0.4941 -0.8705  1.4097
  110OSM    H8T11367   5.768   5.001  10.458  1.3707 -0.3542  1.7319
  110OSM    C9S11368   5.846   5.148  10.325 -0.7826  0.2493 -0.3980
  110OSM    H9S11369   5.925   5.079  10.287 -1.3283  0.1008 -1.2870
  110OSM    H9T11370   5.891   5.248  10.338 -0.3046 -0.1525  1.2130
  110OSM   C10S11371   5.727   5.141  10.241  0.1175  0.1777 -0.2876
  110OSM   H10S11372   5.651   5.210  10.284 -2.3545 -2.3762 -0.3087
  110OSM   H10T11373   5.676   5.043  10.252  0.0795  0.2221 -0.0665
  110OSM   C11S11374   5.764   5.168  10.097  0.2633 -1.0954 -0.7685
  110OSM   H11S11375   5.850   5.103  10.071  1.0221 -0.3769 -0.1373
  110OSM   H11T11376   5.799   5.271  10.074 -2.9811  0.0928 -1.0225
  110OSM   C12S11377   5.652   5.132   9.999 -0.0170  0.0522  0.7173
  110OSM   H12S11378   5.569   5.204  10.015  0.7781  1.1967 -0.0919
  110OSM   H12T11379   5.624   5.025  10.003  3.1747 -0.9855 -1.3471
  110OSM   C13S11380   5.713   5.141   9.861  0.8670 -0.4230  0.7579
  110OSM   H13S11381   5.806   5.081   9.851  1.5698  0.9914 -2.2319
  110OSM   H13T11382   5.723   5.244   9.820 -2.8315 -0.0955  0.3613
  110OSM   C14S11383   5.613   5.083   9.755  0.0127  0.2220  1.1080
  110OSM   H14S11384   5.515   5.133   9.761 -0.4528 -0.7669  2.1448
  110OSM   H14T11385   5.590   4.976   9.777  1.2128 -0.3191 -0.0595
  110OSM   C15S11386   5.664   5.095   9.616 -0.1108 -0.6304  0.6447
  110OSM   H15S11387   5.738   5.013   9.603 -2.1989 -2.6757  0.9366
  110OSM   H15T11388   5.681   5.198   9.578 -0.6769 -1.2654 -1.4519
  110OSM   C16S11389   5.554   5.063   9.508 -1.0861 -0.9932  0.2587
  110OSM   H16S11390   5.481   5.145   9.525  1.3819  1.6871 -1.1409
  110OSM   H16T11391   5.512   4.964   9.535 -4.1746  0.6195  1.8559
  110OSM   C17S11392   5.610   5.068   9.367  0.2555 -0.1859 -0.7322
  110OSM   H17S11393   5.708   5.015   9.363 -0.6831 -2.2914  1.8870
  110OSM   H17T11394   5.627   5.174   9.338  2.3093 -0.0612  0.6814
  110OSM   C18S11395   5.510   5.000   9.279 -0.1906 -0.0933 -0.3917
  110OSM   H18S11396   5.407   5.036   9.299 -0.6790 -1.4156 -0.4270
  110OSM   H18T11397   5.501   4.892   9.304  0.1064  0.1915  1.0051
  110OSM   H18U11398   5.538   5.018   9.173  0.6048 -0.8756 -0.3290
  110OSM    C1F11399   5.736   5.555  10.656 -0.0610  0.0672 -0.2110
  110OSM     OF11400   5.784   5.671  10.663 -0.0847  0.6016 -0.4220
  110OSM    C2F11401   5.676   5.499  10.535  0.2386  0.0063  0.5424
  110OSM    H2F11402   5.571   5.461  10.540 -0.4267  1.4738 -1.0778
  110OSM    H2G11403   5.737   5.410  10.513  0.9531  0.6204 -0.0065
  110OSM    C3F11404   5.691   5.607  10.418 -0.1592  0.3440  0.2352
  110OSM    H3F11405   5.797   5.638  10.408  0.1989 -1.0249 -0.4935
  110OSM    H3G11406   5.636   5.697  10.454 -1.1304 -0.0804 -0.1416
  110OSM    C4F11407   5.631   5.550  10.283 -0.0763  0.0344  0.1078
  110OSM    H4F11408   5.528   5.513  10.301 -0.6115  0.6021 -1.6020
  110OSM    H4G11409   5.700   5.471  10.247 -2.7309 -2.3022 -0.1728
  110OSM    C5F11410   5.624   5.651  10.166  0.2913  0.0828 -0.2934
  110OSM    H5F11411   5.725   5.695  10.152  1.6496 -2.8089 -0.3182
  110OSM    H5G11412   5.551   5.731  10.191  0.3380 -0.4316  1.6426
  110OSM    C6F11413   5.578   5.568  10.045  0.8444  0.0920 -0.0904
  110OSM    H6F11414   5.471   5.541  10.062  0.5503  1.6310  0.6669
  110OSM    H6G11415   5.643   5.480  10.028  1.5190  0.8863 -1.8255
  110OSM    C7F11416   5.593   5.657   9.919 -0.1701  0.5211  0.6044
  110OSM    H7F11417   5.700   5.684   9.913 -0.5408  2.6120  2.2637
  110OSM    H7G11418   5.539   5.752   9.937  0.1801  0.6738  0.8444
  110OSM    C8F11419   5.536   5.575   9.793  0.0889  0.1338 -0.4703
  110OSM    H8F11420   5.435   5.540   9.822  1.4269 -2.5398  1.3847
  110OSM    H8G11421   5.598   5.483   9.792  0.2855  0.1372 -4.4561
  110OSM    C9F11422   5.550   5.648   9.660  0.2923 -0.6995 -0.2017
  110OSM    H9F11423   5.602   5.745   9.658  2.8839 -1.8923 -4.6662
  110OSM   C10F11424   5.535   5.593   9.547 -0.0668  0.4190  0.5495
  110OSM   H10F11425   5.560   5.645   9.454 -1.8205  0.8610  0.2820
  110OSM   C11F11426   5.492   5.449   9.512 -0.2650  0.0432 -0.5971
  110OSM   H11F11427   5.480   5.381   9.599  1.2872  1.1439  0.5441
  110OSM   H11G11428   5.580   5.407   9.460  0.4085  0.3765  0.2385
  110OSM   C12F11429   5.367   5.456   9.425  0.5260 -0.0788 -0.2422
  110OSM   H12F11430   5.376   5.532   9.345  3.7411 -1.0306 -0.9303
  110OSM   H12G11431   5.279   5.475   9.491  0.9824  0.0918  0.3163
  110OSM   C13F11432   5.335   5.321   9.354 -0.5101  0.0892 -0.3307
  110OSM   H13F11433   5.300   5.255   9.437 -1.0122 -0.5448 -1.0322
  110OSM   H13G11434   5.422   5.274   9.304  0.1906  1.4307 -0.3936
  110OSM   C14F11435   5.219   5.321   9.257  0.1347 -0.1740  0.0708
  110OSM   H14F11436   5.123   5.344   9.308  0.3526 -1.5296  1.1448
  110OSM   H14G11437   5.209   5.212   9.237  1.6449  0.0370 -2.2271
  110OSM   C15F11438   5.225   5.410   9.128 -0.4416  0.4055 -0.8728
  110OSM   H15F11439   5.228   5.515   9.166 -0.8348  0.4690 -1.0173
  110OSM   H15G11440   5.129   5.399   9.073 -0.3657 -2.7389 -0.5436
  110OSM   C16F11441   5.338   5.382   9.031 -0.1464  0.1292 -0.2148
  110OSM   H16F11442   5.436   5.406   9.078 -0.3251  0.3598  0.0444
  110OSM   H16G11443   5.331   5.458   8.951  2.3517 -1.0628 -1.6648
  110OSM   C17F11444   5.336   5.242   8.979 -0.0993 -0.3396  0.1438
  110OSM   H17F11445   5.231   5.206   8.978 -0.4514  0.4329 -3.3437
  110OSM   H17G11446   5.389   5.181   9.056 -1.1942 -0.5206  0.7755
  110OSM   C18F11447   5.408   5.222   8.853 -0.6170  0.3001  1.3969
  110OSM   H18F11448   5.435   5.116   8.831  2.6059  1.0485  1.1362
  110OSM   H18G11449   5.507   5.273   8.848  0.8575 -2.4670 -0.9120
  110OSM   H18H11450   5.352   5.259   8.765 -0.9144  0.1709  1.5324
  111OSM      N11451   4.969   3.180  10.931 -0.2163  0.2968 -0.0037
  111OSM    C1511452   4.985   3.290  10.834 -0.3108 -0.3074 -0.6929
  111OSM   H15A11453   5.002   3.389  10.875 -1.2321  0.0695 -1.1870
  111OSM   H15B11454   4.903   3.293  10.764 -0.0552 -1.3904 -1.0541
  111OSM   H15C11455   5.073   3.263  10.778 -0.8275 -3.6742 -0.1118
  111OSM    C1411456   5.100   3.156  10.998 -0.7510 -0.2400  0.1545
  111OSM   H14A11457   5.088   3.085  11.079  2.5600 -0.3444  0.6625
  111OSM   H14B11458   5.149   3.245  11.034 -0.0719 -0.6284  0.1930
  111OSM   H14C11459   5.167   3.101  10.934  0.4992 -0.5944  1.7112
  111OSM    C1311460   4.862   3.217  11.023 -0.3592  0.7044 -0.2729
  111OSM   H13A11461   4.792   3.281  10.970 -0.2395  0.0706 -1.2357
  111OSM   H13B11462   4.905   3.264  11.110  0.4830 -1.9559  0.8234
  111OSM   H13C11463   4.795   3.141  11.059  1.9900 -1.2910  0.1795
  111OSM    C1211464   4.934   3.050  10.863 -0.1555 -0.5903  0.3008
  111OSM   H12A11465   4.834   3.052  10.823 -0.5493 -3.1005  0.9357
  111OSM   H12B11466   4.931   2.967  10.932 -1.4911 -1.8272 -1.1421
  111OSM    C1111467   5.039   3.005  10.761 -0.0569  0.3066 -0.2085
  111OSM   H11A11468   5.066   3.085  10.688 -1.0091  0.1575 -0.7466
  111OSM   H11B11469   4.990   2.928  10.698  1.3446 -1.6524  0.9932
  111OSM      P11470   5.241   2.830  10.782  0.0502 -0.4022  0.4933
  111OSM    O1311471   5.381   2.861  10.818  0.0334  0.6139 -0.6882
  111OSM    O1411472   5.167   2.709  10.843 -0.7449  0.0757  0.2849
  111OSM    O1111473   5.232   2.829  10.621 -0.4335 -0.6405 -0.5342
  111OSM    O1211474   5.153   2.952  10.821  0.6715  0.1572  0.1391
  111OSM    C1S11475   5.309   2.742  10.541 -0.8813 -0.1811  0.7078
  111OSM    H1S11476   5.322   2.643  10.590 -0.0580  0.1180  1.1123
  111OSM    H1T11477   5.413   2.777  10.525 -0.7458 -0.4473  1.0056
  111OSM     NF11478   5.301   2.608  10.352 -0.6961 -0.2486  0.3340
  111OSM    HNF11479   5.356   2.631  10.272 -1.6882 -0.7881 -0.5305
  111OSM    C2S11480   5.243   2.725  10.405 -0.0137 -0.3833 -0.6641
  111OSM    H2S11481   5.134   2.703  10.415 -0.1411  0.3790 -0.1911
  111OSM    C3S11482   5.251   2.856  10.316  0.0980 -0.1457  0.8014
  111OSM    H3S11483   5.356   2.891  10.303  0.2033 -0.1859  1.5029
  111OSM     O311484   5.188   2.959  10.385 -0.3934  0.3867 -0.1334
  111OSM    HO311485   5.199   2.941  10.479  0.2031  1.0886 -0.0575
  111OSM    C4S11486   5.193   2.841  10.178  0.8733  0.2508  0.1674
  111OSM    H4S11487   5.084   2.858  10.178  1.0731  1.7727 -0.8441
  111OSM    C5S11488   5.255   2.827  10.063  0.0033  0.1922  0.7950
  111OSM    H5S11489   5.364   2.834  10.052 -0.0289  1.7169  1.1765
  111OSM    C6S11490   5.178   2.820   9.933 -0.1768 -0.2049 -0.3854
  111OSM    H6S11491   5.100   2.899   9.922  0.2449  0.0234 -1.8700
  111OSM    H6T11492   5.113   2.729   9.934 -0.5443  0.0416  0.9201
  111OSM    C7S11493   5.273   2.814   9.810 -0.2612 -0.0349 -0.3243
  111OSM    H7S11494   5.339   2.724   9.817 -0.9343 -0.7996 -2.8983
  111OSM    H7T11495   5.328   2.910   9.809 -0.3609  0.0563 -2.9001
  111OSM    C8S11496   5.182   2.815   9.681 -0.0326 -0.4627  0.1155
  111OSM    H8S11497   5.138   2.915   9.666  0.5800 -0.5587 -2.9624
  111OSM    H8T11498   5.104   2.736   9.692 -0.2990 -0.4312 -1.4194
  111OSM    C9S11499   5.268   2.776   9.561  0.1347 -0.4618 -0.6905
  111OSM    H9S11500   5.293   2.669   9.581 -0.2631 -0.3829  0.3195
  111OSM    H9T11501   5.361   2.837   9.563  0.0066 -0.2261  1.9489
  111OSM   C10S11502   5.190   2.795   9.432  0.0284  0.8925 -1.2141
  111OSM   H10S11503   5.173   2.904   9.438  0.2220  0.9852 -2.1998
  111OSM   H10T11504   5.087   2.753   9.435  1.2283 -2.3806  1.1239
  111OSM   C11S11505   5.270   2.759   9.312 -0.3870 -0.4162  0.5079
  111OSM   H11S11506   5.274   2.648   9.312 -2.2566 -0.5604 -1.9847
  111OSM   H11T11507   5.371   2.806   9.305 -1.8456  2.7938 -0.7455
  111OSM   C12S11508   5.202   2.795   9.176  0.0614 -0.4128 -0.3689
  111OSM   H12S11509   5.211   2.905   9.163  1.1382 -0.6060 -1.4713
  111OSM   H12T11510   5.104   2.742   9.184  0.9961 -1.8887  3.4028
  111OSM   C13S11511   5.279   2.746   9.055  0.8298  0.1081 -0.9040
  111OSM   H13S11512   5.283   2.636   9.068  1.8173  0.3745  1.5356
  111OSM   H13T11513   5.384   2.782   9.063 -0.0702  3.0822 -1.0626
  111OSM   C14S11514   5.230   2.794   8.928 -0.1481  0.0725 -0.0881
  111OSM   H14S11515   5.234   2.904   8.912  1.2971 -0.0018 -0.3315
  111OSM   H14T11516   5.124   2.774   8.900 -0.0333 -0.6596 -0.0160
  111OSM   C15S11517   5.319   2.734   8.813  0.4425 -0.0766  0.3814
  111OSM   H15S11518   5.285   2.629   8.805 -0.6410  0.1036  2.0478
  111OSM   H15T11519   5.428   2.742   8.834 -0.0578 -1.9152  4.7113
  111OSM   C16S11520   5.298   2.815   8.685 -0.5659 -0.1437  0.6711
  111OSM   H16S11521   5.342   2.916   8.700 -0.0705 -0.3946  0.9187
  111OSM   H16T11522   5.190   2.836   8.665 -0.7276 -0.0088  1.6367
  111OSM   C17S11523   5.365   2.752   8.558 -0.3376  0.9073  0.5555
  111OSM   H17S11524   5.344   2.643   8.548 -1.8333  1.3472 -1.7013
  111OSM   H17T11525   5.474   2.752   8.576 -0.0368  0.1281 -1.0839
  111OSM   C18S11526   5.358   2.821   8.425 -0.0016 -0.1762  0.0345
  111OSM   H18S11527   5.411   2.762   8.347 -1.8141 -0.4126 -1.0595
  111OSM   H18T11528   5.412   2.918   8.428  1.6947 -1.0397 -0.8242
  111OSM   H18U11529   5.251   2.837   8.402  0.2160  1.1741 -0.0850
  111OSM    C1F11530   5.283   2.482  10.391 -0.6787  0.4571 -0.0781
  111OSM     OF11531   5.185   2.457  10.461 -0.6063  0.1149  0.1933
  111OSM    C2F11532   5.379   2.377  10.350 -0.4660  0.4015  0.3218
  111OSM    H2F11533   5.459   2.375  10.427  1.8094  2.9440 -1.7752
  111OSM    H2G11534   5.432   2.403  10.256  1.5437  0.5318  1.4252
  111OSM    C3F11535   5.313   2.239  10.328  0.3236  0.6937  0.4211
  111OSM    H3F11536   5.265   2.214  10.425  1.8304 -3.4659  0.2611
  111OSM    H3G11537   5.396   2.169  10.308  1.3882  1.5144  1.8531
  111OSM    C4F11538   5.217   2.231  10.209  0.5496 -0.2841  0.0272
  111OSM    H4F11539   5.146   2.315  10.197  0.9113  0.0431  0.1374
  111OSM    H4G11540   5.148   2.145  10.221 -1.3605  1.1198 -0.4260
  111OSM    C5F11541   5.304   2.207  10.081  0.6412  0.3747 -0.1193
  111OSM    H5F11542   5.363   2.114  10.092 -0.9982 -0.8715 -1.4558
  111OSM    H5G11543   5.383   2.285  10.083  0.8615  0.2228  3.1429
  111OSM    C6F11544   5.223   2.189   9.954 -1.0872  0.4479 -0.3836
  111OSM    H6F11545   5.184   2.285   9.913  1.6132  0.5210 -3.0781
  111OSM    H6G11546   5.141   2.115   9.967  1.1117 -2.5789 -2.3414
  111OSM    C7F11547   5.312   2.139   9.833 -0.2994  0.3497  0.0449
  111OSM    H7F11548   5.353   2.040   9.861 -1.3733 -0.0673  0.1767
  111OSM    H7G11549   5.397   2.211   9.825 -0.9915  1.3404  1.1792
  111OSM    C8F11550   5.236   2.112   9.699  0.3232 -0.4980 -0.0168
  111OSM    H8F11551   5.172   2.198   9.671 -0.5471 -1.3978 -0.9014
  111OSM    H8G11552   5.164   2.029   9.717  1.8816 -1.8896  0.0691
  111OSM    C9F11553   5.326   2.062   9.588  0.2726  0.4359 -0.2851
  111OSM    H9F11554   5.398   1.987   9.624 -0.2476  0.0935  0.0554
  111OSM   C10F11555   5.333   2.101   9.456 -0.0352 -0.0949  0.4762
  111OSM   H10F11556   5.406   2.054   9.388  0.6201  1.1383  0.2997
  111OSM   C11F11557   5.246   2.209   9.390 -0.1330 -0.4183 -0.6714
  111OSM   H11F11558   5.195   2.269   9.468 -1.1908 -1.0190 -0.8830
  111OSM   H11G11559   5.168   2.155   9.333 -1.8046  0.1097  1.0114
  111OSM   C12F11560   5.335   2.305   9.298 -0.1171 -0.2584  0.1771
  111OSM   H12F11561   5.435   2.261   9.280  0.3316 -0.4793  2.8043
  111OSM   H12G11562   5.342   2.401   9.354  0.1417 -0.8200  1.1321
  111OSM   C13F11563   5.268   2.335   9.163 -0.1752 -0.4075 -0.0907
  111OSM   H13F11564   5.334   2.403   9.104  1.6002 -0.7087  1.4393
  111OSM   H13G11565   5.169   2.384   9.175  1.4006  3.2043 -0.3725
  111OSM   C14F11566   5.252   2.202   9.072 -0.5450  0.1600 -0.4115
  111OSM   H14F11567   5.153   2.159   9.096 -0.8483  0.6181 -0.8212
  111OSM   H14G11568   5.342   2.147   9.106 -1.0882  1.2553  3.2460
  111OSM   C15F11569   5.269   2.220   8.916 -0.6265 -0.5344 -0.7692
  111OSM   H15F11570   5.215   2.309   8.877  1.6495  1.2828  0.0234
  111OSM   H15G11571   5.226   2.128   8.870  0.0147 -0.9160 -0.6091
  111OSM   C16F11572   5.420   2.233   8.871  0.3276 -0.5152  0.1954
  111OSM   H16F11573   5.470   2.136   8.895  0.7985 -0.3157  0.0434
  111OSM   H16G11574   5.473   2.317   8.920 -1.0004 -0.1863  1.1173
  111OSM   C17F11575   5.443   2.260   8.721  0.1158 -0.1919 -0.0526
  111OSM   H17F11576   5.392   2.178   8.665 -0.7736  0.3417 -0.0461
  111OSM   H17G11577   5.550   2.262   8.693  0.3031  0.0487  0.6586
  111OSM   C18F11578   5.390   2.395   8.673 -0.6448  0.2598  0.2033
  111OSM   H18F11579   5.408   2.395   8.563  1.6187 -2.6282  0.4507
  111OSM   H18G11580   5.430   2.485   8.725  0.1481 -0.2507  0.5013
  111OSM   H18H11581   5.280   2.394   8.686 -0.9673 -2.8482 -1.6612
  112OSM      N11582   0.676   4.563  11.014  0.1110 -0.0849  0.2726
  112OSM    C1511583   0.817   4.569  10.962 -0.3303  0.3124  0.5642
  112OSM   H15A11584   0.865   4.473  10.967  0.9216  0.9510  1.4299
  112OSM   H15B11585   0.895   4.622  11.014  0.7521 -0.8044  0.1298
  112OSM   H15C11586   0.823   4.597  10.857 -1.1692  0.5897  0.5840
  112OSM    C1411587   0.684   4.504  11.149 -0.1741 -0.2483 -0.3883
  112OSM   H14A11588   0.761   4.548  11.211 -0.4647 -0.4316  0.1058
  112OSM   H14B11589   0.696   4.397  11.137 -1.0388 -0.5114  0.8213
  112OSM   H14C11590   0.595   4.526  11.206 -0.8006 -0.7449 -1.1560
  112OSM    C1311591   0.627   4.704  11.032 -0.5600  0.1412  0.3682
  112OSM   H13A11592   0.540   4.711  11.096 -0.5168 -0.3516  0.4874
  112OSM   H13B11593   0.618   4.750  10.935 -0.9485 -0.2570  0.2111
  112OSM   H13C11594   0.702   4.764  11.081  0.8911 -1.3335  0.0337
  112OSM    C1211595   0.594   4.475  10.929  0.7054  0.0729 -0.1894
  112OSM   H12A11596   0.500   4.468  10.982 -0.0896  0.0962 -1.5453
  112OSM   H12B11597   0.644   4.379  10.926  2.6380  1.0284 -0.5713
  112OSM    C1111598   0.558   4.512  10.787 -0.1836  0.1316  0.2177
  112OSM   H11A11599   0.528   4.428  10.721  0.8302  0.6584 -0.9616
  112OSM   H11B11600   0.657   4.541  10.745 -0.0706  0.7715  0.9066
  112OSM      P11601   0.318   4.607  10.794  0.3711  0.2426 -0.2018
  112OSM    O1311602   0.294   4.526  10.918 -0.2604  0.2162 -0.0635
  112OSM    O1411603   0.248   4.738  10.791 -0.1513 -0.7870 -0.7427
  112OSM    O1111604   0.287   4.518  10.670  0.2971  0.3138  0.3154
  112OSM    O1211605   0.471   4.632  10.788  0.6290  0.1128  0.1775
  112OSM    C1S11606   0.154   4.520  10.614  0.0777  0.1432  0.7016
  112OSM    H1S11607   0.083   4.599  10.648 -1.3106 -1.1282  0.8762
  112OSM    H1T11608   0.092   4.436  10.652 -1.5784  0.4373 -1.1536
  112OSM     NF11609   0.043   4.606  10.400  0.6878  0.7590 -0.1869
  112OSM    HNF11610  -0.013   4.538  10.352  3.5067 -2.3312  0.5203
  112OSM    C2S11611   0.159   4.538  10.453  0.1183 -0.3099 -0.1832
  112OSM    H2S11612   0.247   4.600  10.429  1.0343 -1.5009 -0.0144
  112OSM    C3S11613   0.184   4.388  10.385  0.1687 -0.1873 -0.4973
  112OSM    H3S11614   0.093   4.326  10.399  0.7389 -0.7532  0.9456
  112OSM     O311615   0.290   4.325  10.459 -0.3083 -0.2955  0.2767
  112OSM    HO311616   0.292   4.378  10.540 -1.6560 -2.5016  1.8857
  112OSM    C4S11617   0.227   4.405  10.241  0.4070 -0.1794  0.2552
  112OSM    H4S11618   0.333   4.429  10.227  0.4041 -1.2498 -1.9499
  112OSM    C5S11619   0.145   4.413  10.135 -0.5214  0.2240 -0.3976
  112OSM    H5S11620   0.038   4.414  10.159 -0.1311  0.3750  1.5167
  112OSM    C6S11621   0.193   4.439   9.994  0.3607 -0.1109  0.1786
  112OSM    H6S11622   0.170   4.369   9.911  1.2491  3.3794 -3.3024
  112OSM    H6T11623   0.304   4.445   9.991  0.3930  0.1217  1.3506
  112OSM    C7S11624   0.156   4.572   9.940  0.2432  0.4797 -0.2805
  112OSM    H7S11625   0.202   4.660   9.990  1.2598 -0.5068  0.5852
  112OSM    H7T11626   0.046   4.579   9.958 -0.1141 -1.5963 -1.3404
  112OSM    C8S11627   0.154   4.583   9.781  0.6932  0.0770 -0.4033
  112OSM    H8S11628   0.122   4.685   9.749 -1.6724  0.5660  2.9565
  112OSM    H8T11629   0.097   4.505   9.726  2.5255 -0.8871 -1.0030
  112OSM    C9S11630   0.295   4.557   9.728 -0.4296 -0.0394  0.1295
  112OSM    H9S11631   0.329   4.453   9.749  1.4951  0.7244  1.0989
  112OSM    H9T11632   0.370   4.624   9.776  2.0897 -1.9385 -0.9140
  112OSM   C10S11633   0.309   4.586   9.576 -0.0367 -0.8054 -0.1568
  112OSM   H10S11634   0.305   4.694   9.552 -0.6883 -0.7100  0.3490
  112OSM   H10T11635   0.230   4.540   9.512  0.6615  0.5508 -2.0630
  112OSM   C11S11636   0.444   4.534   9.526  0.6577  0.5441 -0.0226
  112OSM   H11S11637   0.442   4.425   9.548 -0.3523 -0.2645 -3.5298
  112OSM   H11T11638   0.529   4.575   9.586 -1.0871  2.1003  1.5227
  112OSM   C12S11639   0.478   4.558   9.382 -0.2680  0.0450  0.7014
  112OSM   H12S11640   0.511   4.663   9.365 -0.4686 -0.1176 -0.8590
  112OSM   H12T11641   0.402   4.532   9.306 -0.3060  1.8524  0.0723
  112OSM   C13S11642   0.601   4.470   9.340 -0.5090  0.2084  0.0218
  112OSM   H13S11643   0.557   4.368   9.338  0.4712 -0.3151 -3.7473
  112OSM   H13T11644   0.679   4.484   9.417  1.5063 -2.0085 -1.4396
  112OSM   C14S11645   0.632   4.489   9.193 -0.7381  0.4534  0.0532
  112OSM   H14S11646   0.647   4.595   9.164 -1.1223  0.0822 -1.6559
  112OSM   H14T11647   0.543   4.449   9.139 -0.8450  0.6812  0.0635
  112OSM   C15S11648   0.755   4.404   9.159 -0.1405 -0.5040 -0.1781
  112OSM   H15S11649   0.735   4.296   9.179 -3.4350  0.0491  0.0324
  112OSM   H15T11650   0.838   4.446   9.219 -0.6284  0.4742 -0.1779
  112OSM   C16S11651   0.792   4.413   9.014  0.0207  0.1719 -0.4697
  112OSM   H16S11652   0.831   4.514   8.989 -1.6998  0.5020 -2.0438
  112OSM   H16T11653   0.691   4.407   8.968 -0.5585 -1.1319  0.8864
  112OSM   C17S11654   0.885   4.303   8.972 -0.1383  0.4280  0.6532
  112OSM   H17S11655   0.838   4.210   9.010  1.4437  0.5525  3.1686
  112OSM   H17T11656   0.988   4.320   9.012 -0.0937 -1.0624  1.2343
  112OSM   C18S11657   0.896   4.282   8.822  1.2225 -0.5903 -0.1494
  112OSM   H18S11658   0.796   4.250   8.786  1.9981 -2.9258 -0.3596
  112OSM   H18T11659   0.962   4.193   8.813 -1.1693 -2.6869  1.4813
  112OSM   H18U11660   0.933   4.376   8.775 -2.7815  0.7521 -1.0197
  112OSM    C1F11661   0.015   4.730  10.418  0.3348 -0.2810  1.0973
  112OSM     OF11662   0.096   4.808  10.463  0.4115 -0.4123  0.1778
  112OSM    C2F11663  -0.124   4.773  10.379 -0.5283  0.0415  0.0195
  112OSM    H2F11664  -0.196   4.747  10.459 -0.4585  2.6485  1.0057
  112OSM    H2G11665  -0.141   4.727  10.279 -0.8352 -0.3302  0.2445
  112OSM    C3F11666  -0.142   4.928  10.360  0.6358 -0.9518 -1.2030
  112OSM    H3F11667  -0.119   4.973  10.458  2.0231 -0.1880 -1.8428
  112OSM    H3G11668  -0.250   4.947  10.342  1.0155  1.2606 -1.4276
  112OSM    C4F11669  -0.055   5.004  10.263  0.2812 -0.3746  0.1900
  112OSM    H4F11670   0.051   4.987  10.294  1.0106  1.2795 -1.2276
  112OSM    H4G11671  -0.075   5.113  10.272 -2.0174 -0.6344 -1.1399
  112OSM    C5F11672  -0.074   4.951  10.119  0.1374  0.1404 -0.0494
  112OSM    H5F11673  -0.185   4.946  10.112 -0.2940  2.5181  2.9358
  112OSM    H5G11674  -0.026   4.851  10.112  0.1443  0.0677  0.9202
  112OSM    C6F11675  -0.013   5.046  10.020 -0.0516 -0.0446  0.9241
  112OSM    H6F11676   0.087   5.003   9.993 -0.4050  0.2453 -1.0142
  112OSM    H6G11677   0.008   5.148  10.058 -0.6030  0.7298 -0.7567
  112OSM    C7F11678  -0.093   5.068   9.890 -1.0176  0.2882 -1.2918
  112OSM    H7F11679  -0.187   5.113   9.928 -0.1234  0.8244  0.3798
  112OSM    H7G11680  -0.112   4.968   9.847  2.1280 -0.2664 -1.6426
  112OSM    C8F11681  -0.029   5.169   9.793 -0.0047  0.0410 -0.4992
  112OSM    H8F11682  -0.000   5.266   9.838 -1.7515  0.0388  0.7220
  112OSM    H8G11683  -0.117   5.187   9.727 -1.3154  0.3540  1.2514
  112OSM    C9F11684   0.086   5.107   9.715  0.1290  0.1178 -0.1761
  112OSM    H9F11685   0.154   5.042   9.772 -0.8359 -1.5521 -0.8807
  112OSM   C10F11686   0.105   5.112   9.578  0.3849 -0.4297  0.1110
  112OSM   H10F11687   0.198   5.067   9.541  0.1009 -2.1678  1.4012
  112OSM   C11F11688   0.009   5.184   9.482  0.6112  0.7459  0.0577
  112OSM   H11F11689   0.066   5.277   9.461  2.2436 -0.3632 -0.6103
  112OSM   H11G11690  -0.090   5.205   9.529  0.2174 -0.5423 -0.1498
  112OSM   C12F11691  -0.004   5.121   9.344 -0.2688 -0.4894  1.4019
  112OSM   H12F11692  -0.076   5.187   9.291  0.7412  0.1970  0.8624
  112OSM   H12G11693  -0.054   5.023   9.356  0.8812 -1.1130  1.2190
  112OSM   C13F11694   0.123   5.096   9.254  0.5822  1.0096 -0.3941
  112OSM   H13F11695   0.177   5.010   9.299 -0.3548  0.7854  0.3378
  112OSM   H13G11696   0.206   5.170   9.268  2.4993 -0.7317 -1.9019
  112OSM   C14F11697   0.104   5.071   9.102 -0.1600  0.2586  0.2555
  112OSM   H14F11698   0.087   5.170   9.055  0.3743 -0.1694 -0.8829
  112OSM   H14G11699   0.009   5.013   9.093 -2.0598  3.2062 -0.1071
  112OSM   C15F11700   0.231   5.003   9.037  0.4914  0.0122 -0.5168
  112OSM   H15F11701   0.254   4.905   9.085 -1.2891  0.0382  0.4575
  112OSM   H15G11702   0.313   5.077   9.051 -0.3900  1.2084 -1.4434
  112OSM   C16F11703   0.202   4.982   8.893  0.5972  0.3297 -0.8408
  112OSM   H16F11704   0.172   5.074   8.838 -2.4019  0.6062  1.0334
  112OSM   H16G11705   0.112   4.916   8.892  0.3749  0.6195 -0.3143
  112OSM   C17F11706   0.309   4.900   8.812  1.1366  0.4636  0.5638
  112OSM   H17F11707   0.271   4.802   8.778 -0.4798  0.7218  1.4819
  112OSM   H17G11708   0.388   4.879   8.887  0.5684 -0.1168  1.0145
  112OSM   C18F11709   0.363   4.977   8.694 -0.1815  0.0323  0.9978
  112OSM   H18F11710   0.405   5.078   8.716  0.4823 -0.3978  1.7854
  112OSM   H18G11711   0.287   4.971   8.614  3.2086  0.6896 -2.5587
  112OSM   H18H11712   0.435   4.906   8.647 -2.2097 -1.2491 -0.3566
  113OSM      N11713   2.902   3.676  11.250 -0.2900 -0.3787  0.1973
  113OSM    C1511714   2.980   3.566  11.313 -0.3324 -0.5780  0.0853
  113OSM   H15A11715   2.911   3.488  11.342  0.4354 -0.9547  0.9529
  113OSM   H15B11716   3.029   3.604  11.401 -1.8820  0.4201  0.5477
  113OSM   H15C11717   3.053   3.528  11.243 -1.4613 -0.8711 -0.9723
  113OSM    C1411718   2.786   3.713  11.334  0.0544 -0.2329  0.3017
  113OSM   H14A11719   2.806   3.731  11.438 -2.7871  0.2888  0.8517
  113OSM   H14B11720   2.705   3.644  11.317 -0.1130  0.0701 -0.1661
  113OSM   H14C11721   2.753   3.810  11.299  2.4950  0.8351  0.7940
  113OSM    C1311722   2.999   3.788  11.251  0.1959  1.2829 -0.4411
  113OSM   H13A11723   3.095   3.751  11.218  0.0520 -1.1254  1.5616
  113OSM   H13B11724   3.016   3.820  11.353 -1.6970 -1.0646  0.7255
  113OSM   H13C11725   2.967   3.868  11.185 -0.9112  0.5761 -0.7896
  113OSM    C1211726   2.852   3.638  11.110  0.7436 -0.3121  0.1096
  113OSM   H12A11727   2.941   3.626  11.050  0.5544  1.1466 -0.5202
  113OSM   H12B11728   2.812   3.727  11.062  1.7773  0.1538  0.0817
  113OSM    C1111729   2.759   3.520  11.086  0.8933 -0.8103 -0.3989
  113OSM   H11A11730   2.804   3.426  11.126 -0.3612 -1.3183 -0.1349
  113OSM   H11B11731   2.757   3.487  10.980  1.7068  0.2389 -0.7554
  113OSM      P11732   2.529   3.621  11.025 -0.1114 -0.3000  0.0232
  113OSM    O1311733   2.388   3.613  11.078 -0.1816  0.1668  0.5624
  113OSM    O1411734   2.589   3.754  10.996  0.8705 -0.1338 -0.6483
  113OSM    O1111735   2.545   3.532  10.900  0.4267 -0.0742 -0.5805
  113OSM    O1211736   2.625   3.543  11.131  0.8877  0.1013 -0.4344
  113OSM    C1S11737   2.518   3.391  10.897 -0.5700 -0.3159 -0.4436
  113OSM    H1S11738   2.439   3.360  10.968 -0.3860  0.0728 -0.0669
  113OSM    H1T11739   2.608   3.333  10.925 -1.4313 -1.1146  0.7676
  113OSM     NF11740   2.404   3.236  10.756  0.0652  0.7718 -0.1182
  113OSM    HNF11741   2.454   3.152  10.735 -0.2387  0.6379 -0.3071
  113OSM    C2S11742   2.486   3.356  10.749 -0.3803 -0.5870 -0.3203
  113OSM    H2S11743   2.430   3.440  10.703  0.9227  2.1752  2.7871
  113OSM    C3S11744   2.629   3.348  10.674  0.2253  0.9907 -0.1400
  113OSM    H3S11745   2.693   3.269  10.720 -2.4850 -1.4207 -0.2214
  113OSM     O311746   2.696   3.476  10.682  0.2300 -0.7056  0.1542
  113OSM    HO311747   2.645   3.519  10.751 -0.2602 -0.5364 -0.3021
  113OSM    C4S11748   2.609   3.309  10.528  0.5385 -0.5305  0.4157
  113OSM    H4S11749   2.564   3.389  10.468  1.8616 -0.7008 -0.8693
  113OSM    C5S11750   2.650   3.199  10.463  0.3762 -0.5158 -0.3536
  113OSM    H5S11751   2.727   3.130  10.499  0.2914 -1.1211 -1.2982
  113OSM    C6S11752   2.619   3.180  10.322 -0.0952 -0.3971 -0.5389
  113OSM    H6S11753   2.552   3.261  10.286  1.6702  1.6466  0.5693
  113OSM    H6T11754   2.577   3.079  10.306  0.2659 -0.4059 -1.4802
  113OSM    C7S11755   2.740   3.188  10.225 -0.0042  0.0728  0.1566
  113OSM    H7S11756   2.811   3.103  10.238 -0.3801 -0.6238 -1.9634
  113OSM    H7T11757   2.796   3.282  10.242  3.4229 -1.2759 -2.6017
  113OSM    C8S11758   2.697   3.193  10.078 -0.7086  0.4317  0.3498
  113OSM    H8S11759   2.631   3.281  10.057 -0.8381  0.3781  0.5357
  113OSM    H8T11760   2.651   3.095  10.054  1.3809 -0.5541  0.1655
  113OSM    C9S11761   2.814   3.206   9.975  0.1202  0.2050 -0.0455
  113OSM    H9S11762   2.868   3.109   9.972 -0.8250 -0.3215 -0.4727
  113OSM    H9T11763   2.876   3.288  10.015 -0.8258  0.1782  1.5791
  113OSM   C10S11764   2.765   3.245   9.832 -0.2876 -0.2541 -0.7862
  113OSM   H10S11765   2.709   3.340   9.846 -0.9564 -0.6769 -0.5267
  113OSM   H10T11766   2.706   3.157   9.800  1.3447 -1.3944 -0.7535
  113OSM   C11S11767   2.878   3.268   9.737 -0.1913 -0.2676  0.0660
  113OSM   H11S11768   2.964   3.199   9.754 -0.7045 -0.4818  2.0367
  113OSM   H11T11769   2.923   3.368   9.757  2.4247 -1.4995  0.8591
  113OSM   C12S11770   2.826   3.257   9.588 -0.2312  0.0156 -0.2635
  113OSM   H12S11771   2.738   3.324   9.582 -0.5953 -0.4285  0.0886
  113OSM   H12T11772   2.777   3.160   9.570 -1.6228  0.6150  0.1779
  113OSM   C13S11773   2.942   3.271   9.496 -1.2105  0.0216  0.1460
  113OSM   H13S11774   3.015   3.189   9.516 -0.8953  0.1853 -0.3146
  113OSM   H13T11775   2.986   3.371   9.519 -2.2112  1.0362 -2.0093
  113OSM   C14S11776   2.885   3.279   9.356 -0.2419 -0.0686  0.2489
  113OSM   H14S11777   2.808   3.358   9.362  1.8139  1.9575  1.5667
  113OSM   H14T11778   2.855   3.178   9.320 -2.7059  0.7368 -0.1797
  113OSM   C15S11779   2.983   3.317   9.243 -0.0610 -0.7966  0.3378
  113OSM   H15S11780   3.022   3.420   9.254  2.0833 -1.3658 -1.1742
  113OSM   H15T11781   2.924   3.311   9.150  2.2680  0.4756 -1.3300
  113OSM   C16S11782   3.110   3.227   9.236 -0.4220  1.2898  0.3001
  113OSM   H16S11783   3.157   3.217   9.335 -1.3850 -1.4252  0.5689
  113OSM   H16T11784   3.182   3.282   9.171 -0.3194  1.4577  0.5562
  113OSM   C17S11785   3.102   3.082   9.183 -0.7860 -0.6055 -0.1859
  113OSM   H17S11786   3.006   3.072   9.127 -2.2319 -1.4179  2.2839
  113OSM   H17T11787   3.097   3.011   9.268  2.8584 -4.1222 -2.5227
  113OSM   C18S11788   3.216   3.034   9.091 -0.2049  0.2338  0.5127
  113OSM   H18S11789   3.191   2.929   9.065  2.8905 -0.8606  1.5096
  113OSM   H18T11790   3.307   3.034   9.155 -1.0795 -1.7911  1.8857
  113OSM   H18U11791   3.232   3.095   9.000 -0.4904  0.7704  0.8179
  113OSM    C1F11792   2.276   3.233  10.774  0.8883 -0.1567  0.3648
  113OSM     OF11793   2.216   3.327  10.822  0.1887  0.5647  0.2039
  113OSM    C2F11794   2.210   3.110  10.737  0.0684  0.4364  0.6094
  113OSM    H2F11795   2.121   3.095  10.803 -1.6662  2.8158 -1.0212
  113OSM    H2G11796   2.274   3.020  10.751 -1.5148 -0.7373  0.6867
  113OSM    C3F11797   2.148   3.109  10.593  0.8806 -0.2052  0.1324
  113OSM    H3F11798   2.063   3.180  10.580 -0.0475 -1.0030  1.5218
  113OSM    H3G11799   2.093   3.015  10.568  2.4780 -0.8995 -0.9096
  113OSM    C4F11800   2.242   3.142  10.471  0.3054 -0.5783  0.0574
  113OSM    H4F11801   2.335   3.081  10.467  1.5519  1.3016 -1.1336
  113OSM    H4G11802   2.270   3.249  10.468 -0.6690 -0.3164 -0.1670
  113OSM    C5F11803   2.157   3.115  10.344 -0.0903 -0.6047 -0.6624
  113OSM    H5F11804   2.068   3.179  10.357 -0.9184 -2.3072  4.6474
  113OSM    H5G11805   2.128   3.007  10.346  0.8769 -0.8735  1.2875
  113OSM    C6F11806   2.223   3.135  10.206  0.0930 -0.1710  0.1944
  113OSM    H6F11807   2.308   3.064  10.195  0.4087  0.0416  1.1763
  113OSM    H6G11808   2.258   3.240  10.196 -0.1113 -0.2582 -2.0405
  113OSM    C7F11809   2.132   3.093  10.096 -0.3495 -0.3543  0.3312
  113OSM    H7F11810   2.049   3.164  10.077  0.4483  0.2707 -1.0435
  113OSM    H7G11811   2.084   3.000  10.132  0.5281 -0.0247  2.5152
  113OSM    C8F11812   2.208   3.058   9.965  1.2270 -0.3382 -0.1053
  113OSM    H8F11813   2.139   3.054   9.878  1.8329 -0.3550 -0.5921
  113OSM    H8G11814   2.270   2.968   9.982  2.9350  0.8122  0.0242
  113OSM    C9F11815   2.306   3.163   9.925  0.0951 -0.3470 -0.1307
  113OSM    H9F11816   2.306   3.251   9.991 -2.3276 -0.1296 -0.3377
  113OSM   C10F11817   2.401   3.150   9.834 -0.2291  0.1581  0.2895
  113OSM   H10F11818   2.479   3.226   9.817 -2.1211  2.4492  1.3038
  113OSM   C11F11819   2.398   3.030   9.738  0.2443  0.6448  0.3478
  113OSM   H11F11820   2.320   2.963   9.780  0.5193  0.1914  0.1404
  113OSM   H11G11821   2.494   2.975   9.754  0.0840 -0.1537 -1.2740
  113OSM   C12F11822   2.379   3.061   9.594  0.3263  0.4133  0.3791
  113OSM   H12F11823   2.286   3.119   9.575  0.1300 -0.8268 -3.2179
  113OSM   H12G11824   2.373   2.964   9.539 -0.4902  0.2174  0.7909
  113OSM   C13F11825   2.493   3.135   9.520 -0.1076  0.2549  0.0529
  113OSM   H13F11826   2.570   3.058   9.542 -1.0129 -0.7878 -0.3615
  113OSM   H13G11827   2.501   3.235   9.567  0.8199  0.3394 -0.2705
  113OSM   C14F11828   2.463   3.150   9.370  0.7359  0.0381  0.0611
  113OSM   H14F11829   2.539   3.221   9.331  0.8663  1.0123  1.9596
  113OSM   H14G11830   2.362   3.191   9.345  0.5981 -1.1624 -1.4790
  113OSM   C15F11831   2.474   3.024   9.293 -0.1692  0.2596  0.3735
  113OSM   H15F11832   2.377   2.970   9.292  0.0121 -0.1028 -1.4361
  113OSM   H15G11833   2.542   2.958   9.350 -2.0820 -0.7730  1.5646
  113OSM   C16F11834   2.527   3.023   9.145  0.1362  0.1728 -0.0851
  113OSM   H16F11835   2.476   3.099   9.082  1.3538  0.0310 -1.2815
  113OSM   H16G11836   2.516   2.919   9.109 -1.2162  0.2700 -0.0061
  113OSM   C17F11837   2.679   3.063   9.138 -0.3783  0.6282  0.4160
  113OSM   H17F11838   2.735   2.999   9.209  0.2684 -0.1039 -0.7058
  113OSM   H17G11839   2.685   3.170   9.165 -1.6675  0.5045  1.2878
  113OSM   C18F11840   2.746   3.047   8.995 -0.5447  0.2684  0.0595
  113OSM   H18F11841   2.725   3.127   8.921  2.4997  0.4232 -0.7757
  113OSM   H18G11842   2.701   2.959   8.945  1.2399  0.1582 -1.4547
  113OSM   H18H11843   2.856   3.035   8.990 -0.7716 -2.6533  0.1029
  114OSM      N11844   6.375   5.418  11.099  0.6322 -0.4855 -0.3793
  114OSM    C1511845   6.473   5.484  11.007 -0.0576  1.0580 -0.5491
  114OSM   H15A11846   6.553   5.414  10.990 -1.5249 -0.7107 -0.5430
  114OSM   H15B11847   6.509   5.577  11.048 -1.9025  0.4504  2.9157
  114OSM   H15C11848   6.440   5.491  10.905 -2.9541  1.6178  0.3184
  114OSM    C1411849   6.329   5.297  11.028 -0.2371 -0.3980  0.6308
  114OSM   H14A11850   6.244   5.321  10.967 -1.6761  1.5488  3.1940
  114OSM   H14B11851   6.295   5.220  11.095 -0.4294 -0.1183  0.8546
  114OSM   H14C11852   6.406   5.255  10.965 -0.2717 -1.9516  1.5724
  114OSM    C1311853   6.447   5.378  11.222 -0.1116  0.0838  0.2442
  114OSM   H13A11854   6.386   5.324  11.293 -1.7508  2.1872  0.5447
  114OSM   H13B11855   6.494   5.460  11.275 -0.5699  0.3899  0.1951
  114OSM   H13C11856   6.520   5.304  11.195 -1.5401 -0.3509 -2.8773
  114OSM    C1211857   6.256   5.517  11.128  0.1480 -0.2487 -0.1965
  114OSM   H12A11858   6.167   5.461  11.154 -0.9225  1.0353 -0.9914
  114OSM   H12B11859   6.227   5.557  11.032 -1.7407 -1.9613 -0.4147
  114OSM    C1111860   6.285   5.643  11.208 -0.1035 -0.1841 -0.2200
  114OSM   H11A11861   6.340   5.590  11.289 -0.5648 -3.7189 -2.0360
  114OSM   H11B11862   6.194   5.682  11.258 -0.7217 -2.6849  0.7498
  114OSM      P11863   6.320   5.827  11.014  0.2008  0.1318 -0.0928
  114OSM    O1311864   6.248   5.947  11.063 -0.3944 -0.2285  0.5502
  114OSM    O1411865   6.440   5.851  10.928 -0.0980  0.0084 -0.8983
  114OSM    O1111866   6.230   5.723  10.941  0.4883 -0.2753  0.5515
  114OSM    O1211867   6.371   5.743  11.142  0.0469  0.3206 -0.2389
  114OSM    C1S11868   6.122   5.762  10.861  0.2937 -0.1487 -0.0536
  114OSM    H1S11869   6.097   5.870  10.871 -1.3205 -0.5220  0.2990
  114OSM    H1T11870   6.034   5.701  10.891 -0.2695  0.1333 -1.0988
  114OSM     NF11871   6.043   5.802  10.631  0.1886  0.5495 -0.0569
  114OSM    HNF11872   5.964   5.743  10.621 -0.7376  1.3849  1.9232
  114OSM    C2S11873   6.148   5.737  10.706  0.0161 -0.2388 -0.2841
  114OSM    H2S11874   6.241   5.789  10.673  0.6327 -2.4544 -2.2719
  114OSM    C3S11875   6.168   5.584  10.677  0.7076  0.1902  0.5020
  114OSM    H3S11876   6.075   5.529  10.703  0.9345  0.1955  1.3233
  114OSM     O311877   6.272   5.522  10.754 -0.2178 -0.1412 -0.2336
  114OSM    HO311878   6.277   5.585  10.826 -1.0352 -1.3910  0.9596
  114OSM    C4S11879   6.207   5.554  10.539 -0.6281  0.1067 -0.5916
  114OSM    H4S11880   6.291   5.611  10.497 -1.7331  1.1045 -1.5358
  114OSM    C5S11881   6.154   5.458  10.463 -0.0360 -0.4427 -1.2060
  114OSM    H5S11882   6.077   5.393  10.510  0.3312 -0.4838 -0.6528
  114OSM    C6S11883   6.198   5.426  10.323 -0.0734  0.8920 -0.0157
  114OSM    H6S11884   6.213   5.318  10.305  0.6337  1.4236 -3.3171
  114OSM    H6T11885   6.285   5.481  10.281  0.0017  0.8476  0.0821
  114OSM    C7S11886   6.084   5.481  10.226  0.0214 -0.2455  0.1104
  114OSM    H7S11887   6.045   5.578  10.264  0.1845  0.4701 -1.4634
  114OSM    H7T11888   6.004   5.404  10.223 -0.3228  0.0916  0.4937
  114OSM    C8S11889   6.145   5.494  10.082  0.2687 -1.1574  0.0610
  114OSM    H8S11890   6.177   5.401  10.031  1.6212 -0.7328  0.1119
  114OSM    H8T11891   6.239   5.553  10.083 -0.0534 -0.6049 -0.7159
  114OSM    C9S11892   6.058   5.590   9.991  0.9194  0.6844 -0.3336
  114OSM    H9S11893   6.062   5.698  10.013 -1.5641  0.8037 -0.1465
  114OSM    H9T11894   5.953   5.557  10.008  1.4172 -1.3186 -0.8226
  114OSM   C10S11895   6.086   5.553   9.841 -0.4261  0.3410 -0.4108
  114OSM   H10S11896   6.103   5.444   9.831 -0.5554  0.3601 -0.8593
  114OSM   H10T11897   6.172   5.605   9.792  1.4478 -1.0700  1.2156
  114OSM   C11S11898   5.963   5.577   9.755 -0.6523  0.6218 -0.4579
  114OSM   H11S11899   5.945   5.686   9.746 -1.6210  0.5457  0.4785
  114OSM   H11T11900   5.878   5.531   9.809 -0.0756 -0.5904 -0.5354
  114OSM   C12S11901   5.997   5.515   9.617  0.2378 -0.0494  0.1582
  114OSM   H12S11902   6.026   5.407   9.623 -3.0477 -1.0514 -0.0597
  114OSM   H12T11903   6.094   5.557   9.583 -0.3263  0.2248 -1.1601
  114OSM   C13S11904   5.891   5.536   9.513  0.1423 -1.0023 -0.5093
  114OSM   H13S11905   5.860   5.642   9.522  1.3492 -0.5905 -0.9805
  114OSM   H13T11906   5.803   5.471   9.530  0.5138 -2.2561 -2.9398
  114OSM   C14S11907   5.939   5.508   9.371  0.4848  0.8355 -0.0971
  114OSM   H14S11908   5.989   5.408   9.368 -1.0491 -0.0618  2.1433
  114OSM   H14T11909   6.017   5.586   9.359 -0.2968  2.0455  2.3115
  114OSM   C15S11910   5.834   5.494   9.261  0.3274 -0.2394 -0.7751
  114OSM   H15S11911   5.797   5.597   9.244  1.5660  0.4974  0.7350
  114OSM   H15T11912   5.744   5.436   9.292 -0.7401  1.7001 -0.0432
  114OSM   C16S11913   5.903   5.429   9.140  0.7166 -0.2724  0.3270
  114OSM   H16S11914   6.004   5.470   9.116  0.6778 -0.3107  0.0947
  114OSM   H16T11915   5.833   5.452   9.057  1.6869  1.2581 -0.0984
  114OSM   C17S11916   5.922   5.273   9.147 -0.3041 -0.0598 -0.1193
  114OSM   H17S11917   5.829   5.224   9.182 -0.6119 -0.4711 -1.4483
  114OSM   H17T11918   6.015   5.250   9.203 -1.3471 -2.9630  0.5867
  114OSM   C18S11919   5.947   5.214   9.002  0.4091 -0.3048 -0.3448
  114OSM   H18S11920   6.047   5.253   8.973 -0.3476  1.6429 -0.5276
  114OSM   H18T11921   5.876   5.258   8.930  0.2359  2.5371  1.3785
  114OSM   H18U11922   5.942   5.104   9.012  4.1623 -0.4926  1.6249
  114OSM    C1F11923   6.040   5.933  10.594  0.2303  0.0739 -0.3638
  114OSM     OF11924   6.128   6.015  10.631  0.2068 -0.1028 -0.0894
  114OSM    C2F11925   5.925   5.986  10.510 -0.6197 -0.0800  0.3759
  114OSM    H2F11926   5.905   6.091  10.541 -2.3955 -0.7511  1.6785
  114OSM    H2G11927   5.833   5.928  10.534 -1.4060  0.2157 -1.7301
  114OSM    C3F11928   5.949   5.945  10.360  0.5047  0.2548  0.2738
  114OSM    H3F11929   5.943   5.834  10.357 -2.5418  0.3375 -0.9858
  114OSM    H3G11930   6.050   5.981  10.332 -0.7894  3.2047 -1.0897
  114OSM    C4F11931   5.832   5.989  10.260 -0.2433  0.2351 -0.3023
  114OSM    H4F11932   5.811   6.093  10.292 -2.7508 -0.1206 -0.6348
  114OSM    H4G11933   5.747   5.924  10.287 -1.1759  1.2735 -0.6355
  114OSM    C5F11934   5.896   5.980  10.118  0.2204  0.1119 -0.1492
  114OSM    H5F11935   5.916   5.873  10.097 -1.4162 -0.1945 -0.2753
  114OSM    H5G11936   5.994   6.033  10.125  0.5420 -0.4276 -0.5357
  114OSM    C6F11937   5.807   6.024  10.006  0.2680  0.0424  0.0261
  114OSM    H6F11938   5.776   6.130  10.019 -0.4641 -0.0327 -1.0339
  114OSM    H6G11939   5.715   5.962  10.010 -0.0095  0.3509 -1.2188
  114OSM    C7F11940   5.881   5.997   9.872 -0.4705 -0.1625  0.1360
  114OSM    H7F11941   5.918   5.892   9.872  0.0468 -0.0282 -2.0543
  114OSM    H7G11942   5.967   6.066   9.855 -0.2696 -0.1596  1.0683
  114OSM    C8F11943   5.794   5.991   9.746 -0.2531  0.3105  0.1979
  114OSM    H8F11944   5.722   6.075   9.732 -1.2183 -0.4153  0.6642
  114OSM    H8G11945   5.714   5.916   9.763 -1.3015  1.5227  0.8291
  114OSM    C9F11946   5.872   5.965   9.616 -0.7534  0.1623  0.1620
  114OSM    H9F11947   5.973   5.923   9.622 -1.5582 -2.0401 -0.6150
  114OSM   C10F11948   5.814   5.965   9.494  0.4316  0.8098 -0.5410
  114OSM   H10F11949   5.864   5.918   9.408  0.2719  0.0866 -0.2453
  114OSM   C11F11950   5.670   6.016   9.475 -0.4529  0.3687  0.1529
  114OSM   H11F11951   5.663   6.115   9.525  0.7848  0.1283  0.8428
  114OSM   H11G11952   5.603   5.952   9.537 -0.1281  1.0852  1.2706
  114OSM   C12F11953   5.621   6.016   9.327  0.6593  0.2687 -0.7269
  114OSM   H12F11954   5.696   6.083   9.279 -0.4445  2.5648  0.6172
  114OSM   H12G11955   5.518   6.055   9.323  0.4528 -0.1903  0.0029
  114OSM   C13F11956   5.597   5.876   9.253 -0.1335  0.5733 -0.6736
  114OSM   H13F11957   5.500   5.835   9.287  0.0075  0.0714 -0.8762
  114OSM   H13G11958   5.680   5.804   9.265  0.6154  0.4154 -5.1426
  114OSM   C14F11959   5.584   5.883   9.101 -0.2735  0.5594 -0.3698
  114OSM   H14F11960   5.664   5.940   9.049  0.7285 -1.8670 -1.6532
  114OSM   H14G11961   5.498   5.951   9.082 -0.9329 -0.1826 -0.0870
  114OSM   C15F11962   5.558   5.746   9.043 -0.6735  0.7339  0.3022
  114OSM   H15F11963   5.461   5.707   9.081 -0.4843 -0.8654 -0.7485
  114OSM   H15G11964   5.640   5.676   9.069 -0.7818 -0.4628 -2.2491
  114OSM   C16F11965   5.550   5.758   8.890 -0.3703 -0.0394  0.2799
  114OSM   H16F11966   5.638   5.817   8.858 -0.6416 -0.6197 -1.6547
  114OSM   H16G11967   5.459   5.818   8.870  0.6409  0.9697 -1.5415
  114OSM   C17F11968   5.540   5.627   8.816  0.4184  0.3543 -0.5627
  114OSM   H17F11969   5.545   5.633   8.705  0.4742 -0.9085 -0.6441
  114OSM   H17G11970   5.437   5.588   8.832  0.9585 -0.4940  1.0859
  114OSM   C18F11971   5.645   5.522   8.850  0.0590 -0.5412 -0.2859
  114OSM   H18F11972   5.746   5.566   8.864  0.0663 -1.0247  1.3985
  114OSM   H18G11973   5.651   5.444   8.771  0.1736 -1.2467  0.4092
  114OSM   H18H11974   5.614   5.488   8.951  0.4681  0.7068  0.2800
  115OSM      N11975   1.120   5.241  11.379 -0.2751 -0.3031  0.2928
  115OSM    C1511976   1.226   5.139  11.406  0.0601  0.1758  0.1656
  115OSM   H15A11977   1.182   5.048  11.443 -0.3690  1.3455  2.6705
  115OSM   H15B11978   1.296   5.173  11.481 -0.8295 -0.0794  1.1213
  115OSM   H15C11979   1.277   5.105  11.317 -1.0746 -3.8618  0.8806
  115OSM    C1411980   1.077   5.289  11.514  0.2495 -0.2244 -0.2183
  115OSM   H14A11981   1.142   5.348  11.577 -1.2342  2.6822 -1.2016
  115OSM   H14B11982   1.044   5.212  11.581  1.4485 -0.2375  0.3719
  115OSM   H14C11983   0.985   5.343  11.496 -0.3000 -1.5157 -1.5139
  115OSM    C1311984   1.185   5.358  11.310 -0.5275  0.3360 -0.0269
  115OSM   H13A11985   1.212   5.354  11.206 -1.8073  1.1978 -0.4144
  115OSM   H13B11986   1.270   5.388  11.369 -0.0458 -1.4933  0.2866
  115OSM   H13C11987   1.119   5.441  11.331 -0.0442  0.7544 -0.1497
  115OSM    C1211988   1.008   5.184  11.295  0.5057 -0.1556  0.0008
  115OSM   H12A11989   0.930   5.255  11.274  0.7122 -0.2643 -1.2090
  115OSM   H12B11990   0.963   5.104  11.352  0.1190 -1.7052 -2.3053
  115OSM    C1111991   1.034   5.136  11.150  0.0795 -0.4684 -0.7409
  115OSM   H11A11992   1.096   5.043  11.148  0.8669 -0.0725  1.7009
  115OSM   H11B11993   1.095   5.213  11.099  3.2043 -0.3814  2.7174
  115OSM      P11994   0.821   5.012  11.099  0.0846  0.2573 -0.5622
  115OSM    O1311995   0.899   4.892  11.131 -0.7402  0.0706  0.7169
  115OSM    O1411996   0.716   5.051  11.196 -0.3503  0.1171  0.0835
  115OSM    O1111997   0.747   4.986  10.967 -0.0948 -0.7608 -0.0305
  115OSM    O1211998   0.918   5.124  11.071  0.2104  0.7053  0.1002
  115OSM    C1S11999   0.837   4.972  10.849  0.2731 -0.5372 -0.1607
  115OSM    H1S12000   0.927   4.911  10.870  0.9264  0.5271  0.2510
  115OSM    H1T12001   0.867   5.077  10.824 -2.4375  0.1554 -0.8110
  115OSM     NF12002   0.868   4.892  10.617 -0.2867  0.2756 -0.2759
  115OSM    HNF12003   0.873   4.964  10.548 -0.4974  2.8924  2.2391
  115OSM    C2S12004   0.761   4.913  10.717 -0.0275 -0.4442 -1.1444
  115OSM    H2S12005   0.722   4.811  10.738 -1.0496 -0.0673 -1.1689
  115OSM    C3S12006   0.644   5.001  10.672  0.6059  0.1287  0.2978
  115OSM    H3S12007   0.700   5.096  10.655  1.7577 -0.6330 -0.2910
  115OSM     O312008   0.541   5.024  10.767 -0.5484  0.0124 -0.1256
  115OSM    HO312009   0.579   4.996  10.851  0.2626  1.1010 -0.1066
  115OSM    C4S12010   0.596   4.949  10.538 -0.3123  0.4160 -0.4967
  115OSM    H4S12011   0.632   5.011  10.454  0.2416 -0.5248 -0.9754
  115OSM    C5S12012   0.503   4.854  10.515 -0.6155 -0.3576 -0.1226
  115OSM    H5S12013   0.433   4.815  10.590 -1.2794  0.2711 -0.4010
  115OSM    C6S12014   0.453   4.828  10.376 -0.1164 -0.5927 -0.0148
  115OSM    H6S12015   0.346   4.857  10.373  0.3932  1.9188  2.3059
  115OSM    H6T12016   0.451   4.718  10.362 -0.7748 -0.6563  0.5306
  115OSM    C7S12017   0.518   4.901  10.264  0.2501 -0.3251  0.5583
  115OSM    H7S12018   0.624   4.875  10.247  0.2356  0.3943 -0.6946
  115OSM    H7T12019   0.507   5.009  10.290  3.2503  0.6823 -1.8590
  115OSM    C8S12020   0.440   4.882  10.132  0.0297  0.1665  0.3375
  115OSM    H8S12021   0.340   4.925  10.156  0.5545  0.6854  1.6936
  115OSM    H8T12022   0.434   4.777  10.097  1.2980  0.8716 -2.2124
  115OSM    C9S12023   0.509   4.956  10.014 -0.1484 -0.0508  0.0361
  115OSM    H9S12024   0.618   4.936  10.014  0.0293  0.8409  0.7065
  115OSM    H9T12025   0.499   5.067  10.019 -0.8877 -0.1401  0.8643
  115OSM   C10S12026   0.465   4.917   9.874 -0.0270  0.2247  0.0859
  115OSM   H10S12027   0.354   4.926   9.879 -0.0012  0.1754  3.3060
  115OSM   H10T12028   0.499   4.813   9.855 -0.6200  0.3092 -1.5863
  115OSM   C11S12029   0.519   5.007   9.763  0.3826  0.0230 -0.3402
  115OSM   H11S12030   0.627   5.016   9.788 -0.3950  1.0638  3.2551
  115OSM   H11T12031   0.478   5.108   9.787  0.0557 -0.4387  1.1745
  115OSM   C12S12032   0.477   4.966   9.626 -0.7646 -0.0299  1.5290
  115OSM   H12S12033   0.367   4.954   9.612 -0.7871  0.8816  0.8861
  115OSM   H12T12034   0.520   4.869   9.593  0.1962  0.4640  1.3081
  115OSM   C13S12035   0.522   5.054   9.504  0.2620 -0.2715 -0.0059
  115OSM   H13S12036   0.627   5.084   9.524 -0.2974  1.2693  0.8371
  115OSM   H13T12037   0.463   5.147   9.523  0.5729  0.1785 -1.1492
  115OSM   C14S12038   0.486   4.996   9.366  0.2295 -0.4112 -0.2398
  115OSM   H14S12039   0.472   5.088   9.305 -3.5803 -1.5005 -1.2882
  115OSM   H14T12040   0.388   4.944   9.373  0.0678 -0.2788 -1.3237
  115OSM   C15S12041   0.602   4.928   9.292  0.2894  0.8938  0.0943
  115OSM   H15S12042   0.624   4.836   9.350  0.5551  0.0751 -1.2757
  115OSM   H15T12043   0.693   4.991   9.282  1.3059 -0.4965  0.3014
  115OSM   C16S12044   0.575   4.892   9.147 -0.4956 -0.5093  0.6412
  115OSM   H16S12045   0.552   4.975   9.076  1.0745 -1.6027 -1.2631
  115OSM   H16T12046   0.486   4.825   9.139 -0.3950 -0.5378 -0.3746
  115OSM   C17S12047   0.696   4.835   9.073  0.2596 -0.1299  0.1882
  115OSM   H17S12048   0.744   4.762   9.143 -2.9915 -0.6960  2.0387
  115OSM   H17T12049   0.771   4.913   9.049  0.4972 -0.7325 -1.1176
  115OSM   C18S12050   0.660   4.778   8.940  0.9475  1.0752 -0.4299
  115OSM   H18S12051   0.598   4.686   8.947  1.4460  0.3354 -3.9279
  115OSM   H18T12052   0.750   4.734   8.892  3.3785  1.4448  3.4316
  115OSM   H18U12053   0.610   4.844   8.866  1.1774  0.2427 -1.3514
  115OSM    C1F12054   0.975   4.809  10.628  0.4539  0.0563 -0.2177
  115OSM     OF12055   0.976   4.721  10.712 -0.4276  0.0584 -0.6306
  115OSM    C2F12056   1.095   4.827  10.541 -0.0757 -0.2984 -0.8158
  115OSM    H2F12057   1.184   4.823  10.607 -0.8079 -1.4099  0.1330
  115OSM    H2G12058   1.075   4.927  10.497 -2.9875 -0.6317 -0.4242
  115OSM    C3F12059   1.109   4.717  10.437 -0.0072  0.1822  0.4769
  115OSM    H3F12060   1.202   4.746  10.384  0.1503  1.7264  1.5138
  115OSM    H3G12061   1.024   4.737  10.368 -0.7459 -0.1882  1.2547
  115OSM    C4F12062   1.125   4.572  10.485  0.1920 -0.5812  0.1333
  115OSM    H4F12063   1.024   4.547  10.525  0.2802  0.7865  1.2906
  115OSM    H4G12064   1.200   4.569  10.567 -0.2785  0.8196  0.6514
  115OSM    C5F12065   1.164   4.481  10.369 -0.3238 -0.2224  0.0537
  115OSM    H5F12066   1.258   4.521  10.326  0.5465 -1.2154  0.9552
  115OSM    H5G12067   1.080   4.483  10.296  0.7973  0.5118 -1.2582
  115OSM    C6F12068   1.194   4.337  10.414  0.3501  0.6784 -0.1066
  115OSM    H6F12069   1.113   4.286  10.470  1.0262 -3.3240 -2.3851
  115OSM    H6G12070   1.286   4.352  10.475  0.7981  0.9080 -0.8248
  115OSM    C7F12071   1.234   4.246  10.293 -0.1000 -1.0304  0.1789
  115OSM    H7F12072   1.272   4.144  10.316 -0.7513 -1.3420 -0.1110
  115OSM    H7G12073   1.308   4.308  10.239  0.8943 -2.7002 -0.4385
  115OSM    C8F12074   1.113   4.224  10.203  0.0407 -0.4892 -0.4866
  115OSM    H8F12075   1.058   4.320  10.191  1.4621  0.3015 -0.9593
  115OSM    H8G12076   1.043   4.154  10.252 -0.5591 -0.8291 -1.8011
  115OSM    C9F12077   1.170   4.174  10.072  0.7143 -0.1204 -0.5899
  115OSM    H9F12078   1.187   4.065  10.068  0.5963 -0.1188 -1.2293
  115OSM   C10F12079   1.170   4.238   9.953 -0.5848 -0.6282 -0.0936
  115OSM   H10F12080   1.197   4.177   9.865 -2.1609 -0.3966 -0.7822
  115OSM   C11F12081   1.143   4.379   9.926  0.2854 -0.3144  0.3275
  115OSM   H11F12082   1.139   4.432  10.023  0.7298  0.5935 -0.1370
  115OSM   H11G12083   1.043   4.394   9.881 -0.1755 -3.7616 -0.0836
  115OSM   C12F12084   1.247   4.437   9.832 -0.1202  0.1692 -0.0424
  115OSM   H12F12085   1.349   4.409   9.866  1.7316  2.3421 -3.3236
  115OSM   H12G12086   1.245   4.548   9.837  1.4875  0.1753  1.0095
  115OSM   C13F12087   1.231   4.400   9.681 -0.2328  1.4547 -0.3470
  115OSM   H13F12088   1.136   4.440   9.639 -1.4680 -0.5043  0.4464
  115OSM   H13G12089   1.232   4.289   9.672  2.0615  1.5570 -2.2666
  115OSM   C14F12090   1.338   4.451   9.587 -0.0434 -0.3314 -0.3544
  115OSM   H14F12091   1.438   4.429   9.628 -0.8152 -1.2984  1.1129
  115OSM   H14G12092   1.322   4.561   9.599 -3.4594 -0.8936  1.6862
  115OSM   C15F12093   1.331   4.401   9.448 -0.9933  0.7433 -0.1891
  115OSM   H15F12094   1.228   4.402   9.406 -1.5697  1.0478  1.1542
  115OSM   H15G12095   1.385   4.304   9.448 -0.1671  1.1432  2.0076
  115OSM   C16F12096   1.423   4.487   9.357  0.0509  0.5757 -0.3119
  115OSM   H16F12097   1.526   4.481   9.398  0.2519  0.7004 -0.7888
  115OSM   H16G12098   1.384   4.591   9.348 -0.1874  0.5007 -0.1677
  115OSM   C17F12099   1.419   4.426   9.216  0.9999 -0.1106 -0.6087
  115OSM   H17F12100   1.317   4.417   9.174  0.4237 -0.5554  0.8165
  115OSM   H17G12101   1.458   4.322   9.227 -0.9477 -0.8528 -0.2715
  115OSM   C18F12102   1.503   4.508   9.115  0.1479 -0.5164  0.1691
  115OSM   H18F12103   1.603   4.535   9.155  0.5722 -0.0096 -1.1615
  115OSM   H18G12104   1.457   4.606   9.091 -2.1825 -2.1090 -2.4251
  115OSM   H18H12105   1.526   4.456   9.020  2.7299  0.5538  0.1262
  116OSM      N12106   4.951   1.995  11.212  0.4620 -0.1791 -0.1477
  116OSM    C1512107   5.069   1.932  11.137  0.5806 -0.7055  0.3282
  116OSM   H15A12108   5.100   1.995  11.054 -3.0608  0.7256 -0.1611
  116OSM   H15B12109   5.040   1.835  11.100  0.1262 -0.2612 -0.5321
  116OSM   H15C12110   5.153   1.937  11.204 -0.4955  0.6014  1.6642
  116OSM    C1412111   4.924   1.920  11.334 -0.7585 -0.2011  0.1332
  116OSM   H14A12112   5.006   1.925  11.404 -1.9121 -1.5632  1.6421
  116OSM   H14B12113   4.905   1.814  11.320 -0.4938 -0.3759  1.0696
  116OSM   H14C12114   4.836   1.958  11.383 -1.5626 -2.1545  0.3164
  116OSM    C1312115   4.995   2.135  11.247  0.3554 -1.0067  0.7486
  116OSM   H13A12116   4.908   2.194  11.274 -0.7243 -1.9019 -0.6574
  116OSM   H13B12117   5.030   2.195  11.164 -1.2027  2.0490  2.0929
  116OSM   H13C12118   5.064   2.130  11.330  1.9148  0.0692 -0.4395
  116OSM    C1212119   4.820   2.003  11.129 -0.7785  0.3230 -0.2821
  116OSM   H12A12120   4.812   1.899  11.101  0.3644 -0.0331  0.6329
  116OSM   H12B12121   4.849   2.059  11.042  1.3663  2.4917  1.6558
  116OSM    C1112122   4.694   2.072  11.200  0.1092 -0.0640  0.1546
  116OSM   H11A12123   4.675   2.029  11.300  0.2638  0.5540  0.4562
  116OSM   H11B12124   4.615   2.029  11.135  0.0201  2.8285 -1.8636
  116OSM      P12125   4.592   2.324  11.163  0.0183 -0.0065 -0.2175
  116OSM    O1312126   4.464   2.253  11.183  0.1473 -0.2217 -0.5094
  116OSM    O1412127   4.618   2.451  11.232 -0.6573  0.1173  0.0084
  116OSM    O1112128   4.603   2.358  11.003  0.8148 -0.6944 -1.0690
  116OSM    O1212129   4.699   2.213  11.209 -0.3823 -0.5190  0.2617
  116OSM    C1S12130   4.686   2.270  10.928  0.0904  0.1446  0.1717
  116OSM    H1S12131   4.624   2.184  10.897  1.0102 -0.0284 -1.3163
  116OSM    H1T12132   4.786   2.245  10.971  1.7104  2.8658 -1.6302
  116OSM     NF12133   4.732   2.230  10.687 -0.7790  0.5511  0.5292
  116OSM    HNF12134   4.828   2.226  10.663 -0.7975 -0.7257  0.6032
  116OSM    C2S12135   4.699   2.331  10.787  0.9952  0.0067  0.5211
  116OSM    H2S12136   4.595   2.359  10.762  0.5547 -2.4386 -0.6617
  116OSM    C3S12137   4.785   2.458  10.788 -0.3352  1.0399  1.1377
  116OSM    H3S12138   4.892   2.432  10.801  0.2778  1.5073 -2.0655
  116OSM     O312139   4.765   2.557  10.889 -0.1168  0.0685 -0.0747
  116OSM    HO312140   4.701   2.519  10.950 -2.1323  2.8147 -0.2699
  116OSM    C4S12141   4.767   2.529  10.653  0.4866 -0.6766  0.2396
  116OSM    H4S12142   4.671   2.581  10.636  0.1411 -1.2508  0.4039
  116OSM    C5S12143   4.848   2.533  10.544  0.5993 -0.2047 -0.2197
  116OSM    H5S12144   4.936   2.467  10.558  1.3672  0.8386  0.0318
  116OSM    C6S12145   4.831   2.605  10.416 -0.6246 -0.1608 -0.2980
  116OSM    H6S12146   4.875   2.707  10.424  0.4302 -0.6623  0.5914
  116OSM    H6T12147   4.730   2.639  10.384  0.4485  1.4587 -2.2181
  116OSM    C7S12148   4.864   2.531  10.291 -0.2305  0.0646 -0.1185
  116OSM    H7S12149   4.818   2.431  10.283 -2.2603  0.9285  0.1004
  116OSM    H7T12150   4.967   2.490  10.291  0.3471  1.3297  1.9889
  116OSM    C8S12151   4.838   2.618  10.166 -0.3167  0.0898  0.0994
  116OSM    H8S12152   4.895   2.713  10.160 -0.0911 -0.0849 -0.6571
  116OSM    H8T12153   4.731   2.650  10.167 -0.5836 -0.7578 -0.1489
  116OSM    C9S12154   4.875   2.537  10.045 -0.5763 -0.0713  0.0582
  116OSM    H9S12155   4.832   2.435  10.054  0.7823 -0.6447  0.3130
  116OSM    H9T12156   4.985   2.530  10.057 -0.6959  0.9441  2.1097
  116OSM   C10S12157   4.834   2.596   9.916  0.2685 -0.4510 -0.1876
  116OSM   H10S12158   4.880   2.697   9.911  0.6556 -0.6538 -0.8540
  116OSM   H10T12159   4.723   2.588   9.913 -0.1375  2.3735  2.2531
  116OSM   C11S12160   4.888   2.518   9.799 -0.6561  0.3874  0.3119
  116OSM   H11S12161   4.857   2.413   9.818 -0.5374  0.3869  0.5135
  116OSM   H11T12162   4.999   2.512   9.811 -0.3496  0.8054 -1.9311
  116OSM   C12S12163   4.844   2.567   9.666  0.2549  0.6491  0.5345
  116OSM   H12S12164   4.865   2.676   9.660  1.1523  0.4476 -0.1802
  116OSM   H12T12165   4.734   2.552   9.654  0.6562 -0.0322 -4.1725
  116OSM   C13S12166   4.911   2.510   9.544  0.4680  0.0918  0.7008
  116OSM   H13S12167   4.893   2.401   9.537  1.7355 -0.0319 -1.0204
  116OSM   H13T12168   5.021   2.519   9.550  0.3691  1.8624  0.4224
  116OSM   C14S12169   4.862   2.577   9.414  0.3791 -0.2572  0.6025
  116OSM   H14S12170   4.886   2.685   9.407 -0.2328 -0.1520  0.0835
  116OSM   H14T12171   4.751   2.571   9.419  0.4592 -3.3462  0.5495
  116OSM   C15S12172   4.913   2.510   9.290  0.5114  0.2364 -0.4498
  116OSM   H15S12173   4.896   2.401   9.292  0.9583  0.0892 -2.4206
  116OSM   H15T12174   5.023   2.511   9.276  0.5879  0.4610  0.1370
  116OSM   C16S12175   4.857   2.584   9.164  0.3907 -0.5192 -0.4836
  116OSM   H16S12176   4.885   2.692   9.164 -2.7764  0.4199 -0.9862
  116OSM   H16T12177   4.746   2.580   9.158  0.4187 -0.4413 -1.1587
  116OSM   C17S12178   4.913   2.541   9.027  0.3326  0.1724  0.2938
  116OSM   H17S12179   5.019   2.574   9.017  1.2893 -2.5464  0.6530
  116OSM   H17T12180   4.863   2.597   8.945 -3.4567 -2.9382  0.2215
  116OSM   C18S12181   4.920   2.394   8.995 -0.7830  0.5301 -0.1225
  116OSM   H18S12182   4.823   2.343   9.017 -0.3190 -1.0632 -1.5619
  116OSM   H18T12183   4.994   2.345   9.061 -0.6967 -0.0164 -0.6095
  116OSM   H18U12184   4.954   2.368   8.892  0.2434 -1.5596  0.6965
  116OSM    C1F12185   4.653   2.123  10.649 -0.4038 -0.1510 -0.1239
  116OSM     OF12186   4.529   2.121  10.668  0.5126 -0.1216  0.6857
  116OSM    C2F12187   4.725   2.008  10.578 -0.0331 -0.2145  0.7295
  116OSM    H2F12188   4.739   1.926  10.652  0.4458  1.2047  2.2709
  116OSM    H2G12189   4.829   2.043  10.558 -0.7198  2.2176  1.1484
  116OSM    C3F12190   4.656   1.968  10.446 -0.5210 -0.1099  0.9236
  116OSM    H3F12191   4.555   1.937  10.481 -1.3782  2.1400  0.5548
  116OSM    H3G12192   4.707   1.883  10.395  1.5276  0.2870  2.2203
  116OSM    C4F12193   4.634   2.085  10.351 -0.9969 -0.5214 -0.0448
  116OSM    H4F12194   4.584   2.166  10.407  1.5702  0.4244  1.0294
  116OSM    H4G12195   4.568   2.041  10.272  1.4382 -3.3949 -0.6957
  116OSM    C5F12196   4.767   2.138  10.276 -0.2178  0.2932 -0.6203
  116OSM    H5F12197   4.834   2.180  10.354  1.4097  1.3188 -2.4813
  116OSM    H5G12198   4.738   2.223  10.211 -1.6935  0.3673  0.0753
  116OSM    C6F12199   4.827   2.037  10.186 -0.0124 -0.0321  0.4291
  116OSM    H6F12200   4.850   1.945  10.244  1.8104 -0.0848 -0.3044
  116OSM    H6G12201   4.927   2.080  10.166 -1.0896  3.7629  2.2925
  116OSM    C7F12202   4.745   2.017  10.053 -0.1418 -0.3413 -0.2508
  116OSM    H7F12203   4.701   2.116  10.029  0.4490  0.3540  1.3728
  116OSM    H7G12204   4.663   1.943  10.069  0.3980 -0.5292  2.0511
  116OSM    C8F12205   4.831   1.993   9.924 -0.4061 -0.4576 -0.4822
  116OSM    H8F12206   4.904   1.911   9.940  1.2382  1.0758  0.2045
  116OSM    H8G12207   4.890   2.086   9.906 -1.9645  0.2821 -2.0626
  116OSM    C9F12208   4.750   1.963   9.803 -0.1307 -0.1065 -0.4050
  116OSM    H9F12209   4.660   1.910   9.837 -0.3799  0.8588  0.5071
  116OSM   C10F12210   4.758   2.014   9.678 -0.0684  0.1631  0.6888
  116OSM   H10F12211   4.680   1.982   9.607 -0.4522 -1.8628  1.9594
  116OSM   C11F12212   4.853   2.113   9.621 -0.1673 -0.2237  0.1801
  116OSM   H11F12213   4.939   2.134   9.688  0.5543  0.6967 -0.9856
  116OSM   H11G12214   4.799   2.208   9.599  1.1386  0.9771  1.8875
  116OSM   C12F12215   4.924   2.065   9.491  0.3432 -0.3394 -0.3012
  116OSM   H12F12216   4.973   1.968   9.513 -1.2010 -0.6748  1.9507
  116OSM   H12G12217   5.000   2.142   9.465 -2.1545  1.9804 -1.2942
  116OSM   C13F12218   4.834   2.049   9.371 -0.1773 -0.0216  0.6914
  116OSM   H13F12219   4.792   2.149   9.346 -1.9586 -1.3121 -2.0389
  116OSM   H13G12220   4.744   1.989   9.398 -0.0960 -0.5349 -0.1194
  116OSM   C14F12221   4.904   1.998   9.247  0.7738  0.2578 -0.4923
  116OSM   H14F12222   4.909   1.887   9.261  0.6536  0.1476 -1.2945
  116OSM   H14G12223   5.001   2.051   9.251  0.3225  1.0447  2.7700
  116OSM   C15F12224   4.837   2.039   9.115 -0.6161 -0.9044 -0.0487
  116OSM   H15F12225   4.828   2.150   9.110 -0.5431 -0.8533  0.8012
  116OSM   H15G12226   4.729   2.016   9.131 -0.4459  0.1258  3.5693
  116OSM   C16F12227   4.902   1.989   8.985  0.0496 -0.6473  0.5693
  116OSM   H16F12228   4.889   1.881   8.963 -2.0137 -0.3701  0.2089
  116OSM   H16G12229   5.010   2.013   8.999  0.2069 -0.5608 -0.6388
  116OSM   C17F12230   4.867   2.071   8.856 -0.0307  0.3388 -0.9394
  116OSM   H17F12231   4.963   2.102   8.810  0.4058  1.3118  0.5374
  116OSM   H17G12232   4.827   2.173   8.876 -0.4019 -0.1601  1.1310
  116OSM   C18F12233   4.765   1.999   8.771 -0.1941  0.6074  0.3746
  116OSM   H18F12234   4.675   1.962   8.825  0.1978 -3.7434 -1.5582
  116OSM   H18G12235   4.814   1.905   8.739  0.0730  0.4952  1.0994
  116OSM   H18H12236   4.751   2.049   8.673  1.7432 -0.1040 -0.2962
  117OSM      N12237   1.510   4.431  11.290  0.4494 -0.2631  0.2859
  117OSM    C1512238   1.540   4.305  11.372 -0.2393  0.0870 -0.6014
  117OSM   H15A12239   1.449   4.253  11.399 -0.0007  0.4542  1.0139
  117OSM   H15B12240   1.580   4.325  11.470 -1.5461  1.2108 -0.2644
  117OSM   H15C12241   1.615   4.246  11.321 -0.5936 -0.0303 -0.9961
  117OSM    C1412242   1.384   4.491  11.343  0.1039 -0.0383 -0.2376
  117OSM   H14A12243   1.301   4.424  11.326  0.0754 -0.4325  1.2995
  117OSM   H14B12244   1.348   4.583  11.301 -2.8313 -1.4529 -1.0283
  117OSM   H14C12245   1.390   4.498  11.451 -0.9071 -1.5414 -0.0431
  117OSM    C1312246   1.609   4.529  11.327 -0.5166 -0.2539 -0.6140
  117OSM   H13A12247   1.711   4.508  11.297  0.2676  0.0459  1.6967
  117OSM   H13B12248   1.607   4.540  11.434  0.7326 -0.0898 -0.5966
  117OSM   H13C12249   1.570   4.625  11.298  0.2252  0.3502  0.3424
  117OSM    C1212250   1.504   4.395  11.141  0.3267 -0.4985  0.9871
  117OSM   H12A12251   1.470   4.486  11.095 -0.6435 -1.0491  0.5810
  117OSM   H12B12252   1.440   4.310  11.123  1.4753 -0.8604 -1.9322
  117OSM    C1112253   1.644   4.363  11.078  0.4088  0.7833  0.5300
  117OSM   H11A12254   1.703   4.449  11.117  0.4280  0.9389  0.1634
  117OSM   H11B12255   1.639   4.370  10.967  2.5004 -0.7414  0.2768
  117OSM      P12256   1.619   4.107  11.060 -0.0089  0.1879  0.0230
  117OSM    O1312257   1.691   3.987  11.096  0.4733 -0.5315  0.3038
  117OSM    O1412258   1.479   4.118  11.102  0.5299  0.1764  0.4638
  117OSM    O1112259   1.634   4.135  10.905  0.0520 -0.1725 -0.1166
  117OSM    O1212260   1.700   4.237  11.118  0.0114  0.4597 -0.3764
  117OSM    C1S12261   1.765   4.163  10.852  0.2768 -0.6072 -0.3075
  117OSM    H1S12262   1.848   4.148  10.925  2.6456  2.9463 -1.9768
  117OSM    H1T12263   1.774   4.272  10.834  2.1308 -0.2168  2.2711
  117OSM     NF12264   1.939   4.089  10.690  0.5491  0.2629 -0.1116
  117OSM    HNF12265   1.982   4.154  10.628  0.6641 -1.0470 -1.4572
  117OSM    C2S12266   1.795   4.084  10.714 -0.6674 -0.6998 -0.1712
  117OSM    H2S12267   1.763   3.981  10.739  1.5280 -1.4720 -0.3851
  117OSM    C3S12268   1.701   4.135  10.601 -0.0528 -0.2293  0.3162
  117OSM    H3S12269   1.724   4.240  10.573 -1.2185 -0.1851 -0.5591
  117OSM     O312270   1.565   4.151  10.639  0.6171 -0.4460 -0.1042
  117OSM    HO312271   1.578   4.136  10.733  2.2320  0.0926 -0.2070
  117OSM    C4S12272   1.710   4.039  10.487  0.6469 -0.5348  0.0882
  117OSM    H4S12273   1.745   3.938  10.511  2.6277  0.0676 -0.0536
  117OSM    C5S12274   1.669   4.059  10.364  0.2069  0.0351 -0.4032
  117OSM    H5S12275   1.626   4.159  10.347 -0.7147 -0.5701 -1.8430
  117OSM    C6S12276   1.685   3.965  10.252  0.5163  0.6159  0.5193
  117OSM    H6S12277   1.764   3.894  10.286 -0.6821 -0.5720  0.8788
  117OSM    H6T12278   1.725   4.026  10.168 -0.2024 -0.5001 -0.6831
  117OSM    C7S12279   1.565   3.872  10.218 -0.5933 -0.2703 -0.2721
  117OSM    H7S12280   1.476   3.930  10.185 -0.0446 -0.3475 -2.0047
  117OSM    H7T12281   1.548   3.819  10.314 -2.3757 -1.7227 -1.3093
  117OSM    C8S12282   1.594   3.778  10.098  0.2248  0.1071  0.3678
  117OSM    H8S12283   1.503   3.715  10.103  0.0277  0.3685  0.0818
  117OSM    H8T12284   1.686   3.718  10.117 -1.3620 -2.9592 -0.9611
  117OSM    C9S12285   1.608   3.838   9.961  0.5178  0.0111 -0.5478
  117OSM    H9S12286   1.683   3.920   9.954 -2.2222  2.5573 -2.9173
  117OSM    H9T12287   1.511   3.880   9.928  1.4222  0.6106 -2.6557
  117OSM   C10S12288   1.654   3.740   9.848 -0.2154  0.0470  1.0561
  117OSM   H10S12289   1.585   3.653   9.840  0.8112 -0.9559  2.5954
  117OSM   H10T12290   1.749   3.685   9.866 -1.1220 -1.6324  0.9210
  117OSM   C11S12291   1.648   3.793   9.709 -0.4724  0.6224  0.2479
  117OSM   H11S12292   1.712   3.883   9.694 -0.9549  0.7098 -1.4356
  117OSM   H11T12293   1.541   3.811   9.685 -0.1672 -1.4163 -3.2036
  117OSM   C12S12294   1.708   3.692   9.603  0.4699  0.3131 -0.7245
  117OSM   H12S12295   1.671   3.588   9.620 -1.5109  0.8671 -1.4013
  117OSM   H12T12296   1.819   3.693   9.614  0.4029  0.3166 -0.0219
  117OSM   C13S12297   1.661   3.747   9.465 -0.6310  0.1842  0.3870
  117OSM   H13S12298   1.694   3.853   9.453  3.9554 -1.1401 -0.4496
  117OSM   H13T12299   1.551   3.735   9.456 -1.0194  0.4360  3.4978
  117OSM   C14S12300   1.723   3.665   9.355 -0.6464 -0.2298 -0.1053
  117OSM   H14S12301   1.707   3.556   9.366  1.5585 -0.6392 -0.3958
  117OSM   H14T12302   1.832   3.686   9.367 -0.4256 -0.8037 -0.9279
  117OSM   C15S12303   1.690   3.717   9.213 -0.5746 -0.3773  0.1582
  117OSM   H15S12304   1.710   3.826   9.204 -0.6159 -0.5019 -1.9760
  117OSM   H15T12305   1.582   3.703   9.192 -0.9611  2.1798  0.1854
  117OSM   C16S12306   1.780   3.656   9.101  0.4881  0.3699 -0.4395
  117OSM   H16S12307   1.741   3.696   9.005 -0.2455 -1.2553 -0.8433
  117OSM   H16T12308   1.759   3.547   9.094 -0.2623  0.4297  0.5432
  117OSM   C17S12309   1.928   3.693   9.118  0.0755 -0.7101 -0.2096
  117OSM   H17S12310   1.985   3.623   9.183 -0.1583 -0.8547 -0.1614
  117OSM   H17T12311   1.927   3.794   9.165 -0.1070 -0.6584 -0.3262
  117OSM   C18S12312   2.007   3.718   8.987  0.0581 -0.1722  0.0883
  117OSM   H18S12313   2.007   3.622   8.932 -0.2103 -0.4973  0.6524
  117OSM   H18T12314   2.117   3.729   8.996  0.0699 -0.5875  0.5184
  117OSM   H18U12315   1.975   3.798   8.917  0.0819 -1.0174 -0.9006
  117OSM    C1F12316   2.025   4.016  10.762  0.0701 -0.6550 -0.0010
  117OSM     OF12317   1.987   3.939  10.849  0.1851 -0.4293 -0.4400
  117OSM    C2F12318   2.165   4.037  10.733  0.5602  0.9668 -0.6639
  117OSM    H2F12319   2.221   4.063  10.825 -0.9257 -2.2265  1.3187
  117OSM    H2G12320   2.186   4.121  10.663  0.2426  2.4023  0.9174
  117OSM    C3F12321   2.234   3.907  10.671 -0.1473  0.6316 -0.6424
  117OSM    H3F12322   2.177   3.887  10.577 -1.1299 -0.5381  0.1707
  117OSM    H3G12323   2.215   3.823  10.741 -4.4395  1.8690 -0.0088
  117OSM    C4F12324   2.384   3.914  10.634  0.4555  0.3960  1.0027
  117OSM    H4F12325   2.443   3.933  10.727  1.7669  1.0941  0.0709
  117OSM    H4G12326   2.412   3.997  10.565  3.2412 -1.7036 -0.6222
  117OSM    C5F12327   2.438   3.794  10.559  0.0802 -0.0333 -0.1215
  117OSM    H5F12328   2.435   3.708  10.629  0.8629  0.6167  0.7266
  117OSM    H5G12329   2.544   3.809  10.529 -0.3392 -0.5534 -2.0582
  117OSM    C6F12330   2.364   3.752  10.432  0.6555 -0.0793 -0.1102
  117OSM    H6F12331   2.254   3.746  10.447  0.8816 -0.5921  1.5517
  117OSM    H6G12332   2.405   3.648  10.430  0.0517 -0.3615  0.9767
  117OSM    C7F12333   2.384   3.842  10.311 -0.1919 -0.7072  0.1289
  117OSM    H7F12334   2.493   3.862  10.316 -0.5255  0.9472  2.2136
  117OSM    H7G12335   2.322   3.933  10.327 -0.4773 -0.4100 -2.3072
  117OSM    C8F12336   2.350   3.781  10.173 -0.4181 -0.3399  0.3859
  117OSM    H8F12337   2.240   3.774  10.160 -0.3965  1.0990 -0.9000
  117OSM    H8G12338   2.393   3.678  10.178  3.6670  1.1815  0.8350
  117OSM    C9F12339   2.406   3.848  10.049 -0.2583 -0.0083 -0.5146
  117OSM    H9F12340   2.413   3.958  10.056 -1.4330 -0.0200  2.4401
  117OSM   C10F12341   2.464   3.779   9.951  0.4252 -0.0611 -0.3661
  117OSM   H10F12342   2.522   3.835   9.877  1.5763  1.2964  1.4760
  117OSM   C11F12343   2.488   3.630   9.939  0.2542  0.2092  0.4179
  117OSM   H11F12344   2.478   3.572  10.034 -0.4212 -0.0541  0.1890
  117OSM   H11G12345   2.592   3.615   9.903  0.7163  1.1302  1.3137
  117OSM   C12F12346   2.388   3.574   9.830 -0.0207  0.3270  0.4104
  117OSM   H12F12347   2.287   3.613   9.854  0.8094  2.8852  0.0233
  117OSM   H12G12348   2.389   3.463   9.825 -1.4058  0.3046  0.1947
  117OSM   C13F12349   2.429   3.622   9.687 -0.1463 -0.2319  0.0740
  117OSM   H13F12350   2.538   3.603   9.686 -0.1161 -0.1084  0.8123
  117OSM   H13G12351   2.412   3.731   9.674  1.6272 -0.2425 -3.8652
  117OSM   C14F12352   2.379   3.539   9.573 -0.1633 -0.2302 -0.0077
  117OSM   H14F12353   2.288   3.593   9.537  0.0354 -0.2707 -0.5900
  117OSM   H14G12354   2.352   3.432   9.589 -1.5301  0.3997  2.3428
  117OSM   C15F12355   2.482   3.544   9.459 -0.7097  0.0323  0.3337
  117OSM   H15F12356   2.564   3.481   9.501 -1.3203  0.7296  2.6926
  117OSM   H15G12357   2.521   3.646   9.441 -2.1336  0.3403 -1.1512
  117OSM   C16F12358   2.428   3.491   9.324  0.3426  0.5074 -0.8652
  117OSM   H16F12359   2.335   3.550   9.310  1.4287  2.8627  1.2330
  117OSM   H16G12360   2.385   3.390   9.343 -1.0698  1.0363 -1.1488
  117OSM   C17F12361   2.524   3.500   9.207 -0.2238 -0.2869  0.0081
  117OSM   H17F12362   2.608   3.436   9.243 -0.3942 -0.5007  0.0263
  117OSM   H17G12363   2.560   3.605   9.202  0.1887 -0.4055  0.4311
  117OSM   C18F12364   2.477   3.461   9.070  0.0927  0.1783 -0.3531
  117OSM   H18F12365   2.380   3.514   9.060  1.0050  1.8322 -0.7853
  117OSM   H18G12366   2.477   3.351   9.055 -2.1800 -0.1119  1.2209
  117OSM   H18H12367   2.546   3.508   8.997 -0.4792  0.5076 -0.6901
  118OSM      N12368   2.128   3.355  11.222 -0.7282 -0.4432  0.5299
  118OSM    C1512369   2.079   3.291  11.344 -0.4126  0.1120  0.0182
  118OSM   H15A12370   2.066   3.350  11.434  1.4816 -0.0798  0.4505
  118OSM   H15B12371   2.143   3.208  11.366  0.3153  0.2018 -1.6183
  118OSM   H15C12372   1.980   3.254  11.320 -0.0027  0.0561 -1.7202
  118OSM    C1412373   2.030   3.461  11.175 -0.0205 -0.2835 -0.3703
  118OSM   H14A12374   2.021   3.547  11.240  0.6041  0.9400 -1.8192
  118OSM   H14B12375   1.937   3.413  11.149 -1.5770  2.4210 -0.2106
  118OSM   H14C12376   2.064   3.505  11.082  0.1469 -0.4095 -0.3685
  118OSM    C1312377   2.265   3.413  11.240  0.6720 -0.1910 -0.1624
  118OSM   H13A12378   2.261   3.486  11.320  0.5981 -0.4954  0.1135
  118OSM   H13B12379   2.294   3.468  11.151  0.5568  0.4451  0.1864
  118OSM   H13C12380   2.339   3.337  11.260 -0.4450 -1.6704 -1.4365
  118OSM    C1212381   2.132   3.245  11.112  0.9092 -1.0824  0.8110
  118OSM   H12A12382   2.163   3.303  11.026 -1.5249 -0.9729 -0.0512
  118OSM   H12B12383   2.028   3.221  11.099  0.1985  0.6294  2.7876
  118OSM    C1112384   2.217   3.119  11.132  0.6259  0.2192 -0.7307
  118OSM   H11A12385   2.206   3.050  11.046 -1.5671  2.0578 -2.0571
  118OSM   H11B12386   2.182   3.068  11.224 -3.2838  2.0948 -0.9755
  118OSM      P12387   2.453   3.114  11.251 -0.1402 -0.2638  0.2747
  118OSM    O1312388   2.485   3.212  11.353  0.5786  0.4125  0.4814
  118OSM    O1412389   2.409   2.978  11.296 -0.0147 -0.5893  0.2975
  118OSM    O1112390   2.585   3.095  11.164  0.0367  0.0701 -0.2667
  118OSM    O1212391   2.350   3.166  11.140 -0.3153 -0.0119 -0.5731
  118OSM    C1S12392   2.590   3.012  11.050 -0.1325  0.3162 -0.4327
  118OSM    H1S12393   2.501   3.038  10.989 -0.5377 -0.8845 -0.3729
  118OSM    H1T12394   2.595   2.909  11.090  0.6343 -0.0551 -1.4518
  118OSM     NF12395   2.723   2.916  10.871 -0.7035  0.5808  0.0874
  118OSM    HNF12396   2.775   2.837  10.904  1.3700  1.9597  0.2905
  118OSM    C2S12397   2.724   3.026  10.966  0.0377  0.8498  0.1156
  118OSM    H2S12398   2.724   3.120  10.907  0.7272 -0.4226 -1.9851
  118OSM    C3S12399   2.845   3.027  11.058 -1.7911  0.7970 -1.0745
  118OSM    H3S12400   2.841   2.937  11.124 -2.8762  1.6928  0.1351
  118OSM     O312401   2.836   3.128  11.160 -0.9871 -0.2761  0.0686
  118OSM    HO312402   2.740   3.136  11.157 -0.9878  0.3681  1.3521
  118OSM    C4S12403   2.972   3.036  10.980  0.3622  0.3970  0.0598
  118OSM    H4S12404   3.018   2.938  10.962 -2.9231 -1.2604 -0.1638
  118OSM    C5S12405   3.011   3.146  10.924 -0.2307  0.1489  0.1202
  118OSM    H5S12406   2.950   3.237  10.932  0.7433  0.7718  0.6929
  118OSM    C6S12407   3.138   3.173  10.844  0.2988  0.0181 -0.1943
  118OSM    H6S12408   3.215   3.104  10.886 -0.4022 -1.9397 -1.9195
  118OSM    H6T12409   3.181   3.274  10.860  0.1227 -0.2194  2.0025
  118OSM    C7S12410   3.129   3.156  10.695 -0.7851  0.3356  0.0494
  118OSM    H7S12411   3.105   3.048  10.681  2.6832 -0.4688 -0.7061
  118OSM    H7T12412   3.230   3.168  10.651 -1.5561  1.0115 -1.6099
  118OSM    C8S12413   3.023   3.257  10.632 -0.2523  0.6234 -0.3062
  118OSM    H8S12414   3.063   3.360  10.642  0.8497  0.0310  2.4507
  118OSM    H8T12415   2.932   3.251  10.696  0.9595  1.1170  1.5364
  118OSM    C9S12416   2.999   3.225  10.484 -0.4552  0.0550 -0.5421
  118OSM    H9S12417   2.921   3.287  10.435  1.1643  2.1746 -0.6020
  118OSM    H9T12418   2.970   3.119  10.468  0.2879 -0.7577  2.7672
  118OSM   C10S12419   3.119   3.257  10.402 -0.0026  0.1070  0.2422
  118OSM   H10S12420   3.199   3.182  10.419  2.1106  2.2147  0.0932
  118OSM   H10T12421   3.175   3.347  10.435  3.2997 -0.9852 -1.8158
  118OSM   C11S12422   3.090   3.275  10.259 -0.2033  0.4361  0.8462
  118OSM   H11S12423   3.012   3.351  10.236 -0.2066  0.1813  0.0090
  118OSM   H11T12424   3.058   3.179  10.213 -2.2275  2.3465 -2.0606
  118OSM   C12S12425   3.220   3.327  10.192  0.0908  0.0185  0.0589
  118OSM   H12S12426   3.301   3.265  10.234 -1.4104 -1.6779  0.5910
  118OSM   H12T12427   3.232   3.434  10.221 -0.4639  0.9986 -2.9757
  118OSM   C13S12428   3.211   3.319  10.038 -0.0383  0.0399  0.0530
  118OSM   H13S12429   3.307   3.365  10.005  0.0941  1.2311  1.9337
  118OSM   H13T12430   3.129   3.372   9.985 -1.3414 -1.0796  0.8872
  118OSM   C14S12431   3.208   3.180   9.970  0.3659  0.6739 -0.7759
  118OSM   H14S12432   3.105   3.140   9.970  0.2032  1.0656  0.2453
  118OSM   H14T12433   3.255   3.101  10.033  0.9195  1.4266 -0.2171
  118OSM   C15S12434   3.263   3.179   9.829  0.2396  0.6880 -0.2336
  118OSM   H15S12435   3.342   3.257   9.824  1.7842 -0.6969  1.3247
  118OSM   H15T12436   3.182   3.196   9.755 -0.4791 -0.8463  0.1606
  118OSM   C16S12437   3.338   3.046   9.798  0.0627 -0.2136  0.0060
  118OSM   H16S12438   3.262   2.971   9.770 -0.9413 -1.3900  5.0246
  118OSM   H16T12439   3.393   3.001   9.883 -0.0251 -1.9137 -0.7930
  118OSM   C17S12440   3.421   3.067   9.671 -0.5475 -0.7135 -0.2625
  118OSM   H17S12441   3.485   2.980   9.647 -1.5422 -1.9914  1.4999
  118OSM   H17T12442   3.489   3.154   9.689 -2.6165  1.5199 -2.4125
  118OSM   C18S12443   3.337   3.111   9.545 -0.0236 -0.5942 -0.3930
  118OSM   H18S12444   3.392   3.100   9.449 -0.6096 -3.2326 -0.4903
  118OSM   H18T12445   3.299   3.216   9.555 -1.0335 -1.1341  2.2320
  118OSM   H18U12446   3.255   3.040   9.522  1.7110 -2.1838 -1.9189
  118OSM    C1F12447   2.639   2.908  10.767 -0.2250 -0.3630  0.0913
  118OSM     OF12448   2.583   3.010  10.731  0.1985  0.9979 -0.1215
  118OSM    C2F12449   2.620   2.777  10.690 -0.0602  0.8821  0.3734
  118OSM    H2F12450   2.511   2.754  10.686  0.0723  0.3291 -0.2481
  118OSM    H2G12451   2.672   2.692  10.739 -1.3242  0.5310  1.1438
  118OSM    C3F12452   2.683   2.791  10.542 -0.2752 -1.0605  0.0062
  118OSM    H3F12453   2.644   2.881  10.488 -1.7086 -2.1063 -0.7663
  118OSM    H3G12454   2.658   2.696  10.492 -1.1252 -0.7170 -0.2431
  118OSM    C4F12455   2.841   2.793  10.539 -0.8448  0.8596  0.2050
  118OSM    H4F12456   2.866   2.689  10.569  1.2939  0.7007 -1.8485
  118OSM    H4G12457   2.893   2.849  10.620  0.6539 -1.1431  0.7138
  118OSM    C5F12458   2.904   2.835  10.409 -0.5434  0.0549 -0.6125
  118OSM    H5F12459   2.876   2.941  10.392 -3.0786  0.0849  2.7774
  118OSM    H5G12460   2.867   2.766  10.330 -2.6578 -0.0521  0.4059
  118OSM    C6F12461   3.059   2.824  10.407 -0.0770 -0.7162 -0.4842
  118OSM    H6F12462   3.077   2.716  10.430 -1.5771 -0.8325  0.3127
  118OSM    H6G12463   3.097   2.887  10.491  0.4398  1.6587 -2.4023
  118OSM    C7F12464   3.133   2.866  10.279  0.3222  0.1713 -0.3627
  118OSM    H7F12465   3.090   2.965  10.256  0.3461  0.9402  2.4513
  118OSM    H7G12466   3.125   2.801  10.190  1.0470  1.5071 -1.4386
  118OSM    C8F12467   3.281   2.894  10.298 -0.3433  0.1376  0.4456
  118OSM    H8F12468   3.291   2.973  10.376  2.1848  1.5028 -1.1242
  118OSM    H8G12469   3.317   2.956  10.213  1.3945 -0.3613  0.7789
  118OSM    C9F12470   3.378   2.785  10.320  0.9168 -0.8306 -0.7814
  118OSM    H9F12471   3.318   2.705  10.366 -1.7034 -0.6440 -3.5617
  118OSM   C10F12472   3.504   2.781  10.291 -0.4658 -0.4795 -0.0469
  118OSM   H10F12473   3.563   2.691  10.317  1.0951  0.8013  1.1071
  118OSM   C11F12474   3.585   2.891  10.227  0.2513  0.7129  0.2776
  118OSM   H11F12475   3.650   2.931  10.308  1.2126  0.4322 -0.3366
  118OSM   H11G12476   3.529   2.979  10.188  0.0487 -0.5123 -2.4206
  118OSM   C12F12477   3.677   2.850  10.107 -0.1988  0.4863  0.4353
  118OSM   H12F12478   3.758   2.777  10.126 -0.5522 -0.6052 -1.8870
  118OSM   H12G12479   3.744   2.937  10.088  0.4101 -0.3241 -1.3842
  118OSM   C13F12480   3.604   2.805   9.985 -0.0609 -0.1820 -0.1668
  118OSM   H13F12481   3.577   2.894   9.924  2.4518 -1.0229 -2.6893
  118OSM   H13G12482   3.508   2.762  10.022 -0.9355  1.3577 -0.5484
  118OSM   C14F12483   3.673   2.709   9.890 -0.3972  0.4393  0.1790
  118OSM   H14F12484   3.599   2.688   9.809 -0.0263 -2.9878  0.6129
  118OSM   H14G12485   3.704   2.611   9.931 -2.4643  0.5490  2.1985
  118OSM   C15F12486   3.802   2.778   9.830 -1.1612  0.3833 -0.4805
  118OSM   H15F12487   3.886   2.769   9.902 -1.0339  0.1828 -0.6508
  118OSM   H15G12488   3.773   2.884   9.842  1.1018  0.8195  1.7085
  118OSM   C16F12489   3.845   2.748   9.685 -0.0881  0.2971  0.7682
  118OSM   H16F12490   3.894   2.648   9.677  2.0546  1.4283 -3.1320
  118OSM   H16G12491   3.909   2.830   9.645 -1.3096 -0.1958 -2.4695
  118OSM   C17F12492   3.738   2.724   9.586  0.7976 -0.0932 -1.0134
  118OSM   H17F12493   3.651   2.792   9.602  0.6314 -0.1664 -1.5946
  118OSM   H17G12494   3.696   2.623   9.603 -0.6414  0.4531 -1.2078
  118OSM   C18F12495   3.791   2.756   9.447  0.0396  0.2480 -0.1276
  118OSM   H18F12496   3.709   2.752   9.372 -0.0969  0.5678  0.0012
  118OSM   H18G12497   3.860   2.677   9.409  0.3822  0.9114 -0.8996
  118OSM   H18H12498   3.843   2.854   9.448  0.5158  0.1520  3.9920
  119OSM      N12499   4.450   2.825  11.013  0.6827 -0.2827  0.8332
  119OSM    C1512500   4.415   2.686  11.061  0.4779 -0.0905  0.5103
  119OSM   H15A12501   4.481   2.654  11.141  1.4083  0.1368 -0.1553
  119OSM   H15B12502   4.454   2.617  10.987  1.1134 -0.3293  1.0515
  119OSM   H15C12503   4.310   2.666  11.079 -0.7251  1.2592 -3.8075
  119OSM    C1412504   4.594   2.821  10.983 -0.1395  0.3183  0.1602
  119OSM   H14A12505   4.656   2.781  11.062 -2.2907 -1.9351  0.8332
  119OSM   H14B12506   4.633   2.915  10.947 -0.0178 -0.8601 -3.1133
  119OSM   H14C12507   4.599   2.750  10.902 -0.6366 -0.8640  1.1349
  119OSM    C1312508   4.370   2.863  10.891  0.0579  0.1268  0.1176
  119OSM   H13A12509   4.373   2.781  10.820 -1.3304 -1.0385  1.3400
  119OSM   H13B12510   4.406   2.957  10.852  0.3413  0.3113  0.8131
  119OSM   H13C12511   4.267   2.876  10.919  0.0515  4.1861 -1.2372
  119OSM    C1212512   4.420   2.928  11.120  0.0421 -0.5005 -0.5115
  119OSM   H12A12513   4.481   2.907  11.206 -2.0321  2.2404  1.8806
  119OSM   H12B12514   4.318   2.906  11.151 -0.4662  1.8483 -0.2875
  119OSM    C1112515   4.429   3.085  11.097 -0.2060  0.1106 -0.0667
  119OSM   H11A12516   4.525   3.105  11.044  0.9854 -2.6130  0.8457
  119OSM   H11B12517   4.437   3.137  11.195  1.6009  0.7346 -0.4995
  119OSM      P12518   4.328   3.272  10.938  0.7630 -0.0601 -0.2155
  119OSM    O1312519   4.194   3.309  10.885  0.0655 -0.3811 -0.1342
  119OSM    O1412520   4.397   3.368  11.024  0.3182  0.0819 -0.1545
  119OSM    O1112521   4.426   3.230  10.825  0.4108  0.6229 -0.0255
  119OSM    O1212522   4.316   3.138  11.020  0.4559  0.0227 -0.5733
  119OSM    C1S12523   4.380   3.230  10.690 -0.5577  0.1598 -0.1274
  119OSM    H1S12524   4.348   3.332  10.661 -1.6128  0.0341  0.5155
  119OSM    H1T12525   4.297   3.158  10.672  0.8550 -1.2889 -0.9896
  119OSM     NF12526   4.454   3.199  10.456  0.7374  0.0190 -0.4668
  119OSM    HNF12527   4.432   3.113  10.410 -1.5430 -1.1108  2.4134
  119OSM    C2S12528   4.501   3.201  10.591  0.8773  0.8412  0.4060
  119OSM    H2S12529   4.571   3.287  10.591  0.4535  1.1920  1.3591
  119OSM    C3S12530   4.571   3.071  10.635 -1.5587 -0.1944 -0.7132
  119OSM    H3S12531   4.495   2.992  10.651  0.6331 -2.2385  0.1750
  119OSM     O312532   4.639   3.078  10.764  0.0556 -0.6064  0.2007
  119OSM    HO312533   4.603   3.154  10.811 -0.0963 -0.9087  0.5779
  119OSM    C4S12534   4.672   3.024  10.541  0.1518 -0.2236 -0.1689
  119OSM    H4S12535   4.650   2.933  10.483  0.1529 -0.3623  0.0473
  119OSM    C5S12536   4.786   3.094  10.503 -0.4078  1.1460 -0.6119
  119OSM    H5S12537   4.802   3.188  10.557  3.4430 -0.9444  2.3715
  119OSM    C6S12538   4.883   3.049  10.395  1.0995  0.3538  1.2269
  119OSM    H6S12539   4.868   2.947  10.355  1.9323  0.3279  0.9798
  119OSM    H6T12540   4.987   3.062  10.430  1.4064 -0.3235  0.5931
  119OSM    C7S12541   4.880   3.137  10.269 -0.0967 -0.2601 -0.5071
  119OSM    H7S12542   4.969   3.112  10.209 -0.0781 -0.0327 -0.5745
  119OSM    H7T12543   4.897   3.241  10.303  2.5238 -0.8914  0.2930
  119OSM    C8S12544   4.754   3.129  10.188 -0.9340  0.1787 -0.2705
  119OSM    H8S12545   4.667   3.166  10.246 -1.4625 -1.6869  0.1704
  119OSM    H8T12546   4.724   3.025  10.166  3.4375 -1.1448 -1.1227
  119OSM    C9S12547   4.771   3.194  10.048  0.3184 -0.3611 -0.2214
  119OSM    H9S12548   4.840   3.281  10.052  0.4231 -0.3952 -1.1314
  119OSM    H9T12549   4.671   3.204  10.002 -0.4727 -2.4996  0.9207
  119OSM   C10S12550   4.839   3.098   9.946 -0.6465  0.7949 -0.1784
  119OSM   H10S12551   4.787   3.001   9.960  1.9200 -0.8838 -1.5858
  119OSM   H10T12552   4.950   3.088   9.951 -0.4719  0.2104 -3.4098
  119OSM   C11S12553   4.811   3.158   9.808 -0.3062 -0.4578 -0.4293
  119OSM   H11S12554   4.842   3.263   9.790  0.4194 -0.4400  0.8065
  119OSM   H11T12555   4.701   3.147   9.794 -0.0794 -0.3842 -2.4460
  119OSM   C12S12556   4.890   3.091   9.690 -0.1746  0.0944 -0.4405
  119OSM   H12S12557   4.875   2.981   9.684  1.3366 -0.1139 -0.8342
  119OSM   H12T12558   4.998   3.104   9.714 -0.5359  1.9344  0.2963
  119OSM   C13S12559   4.852   3.153   9.555 -0.4295  0.1950 -0.1242
  119OSM   H13S12560   4.918   3.240   9.535  0.6619 -0.6518 -0.2849
  119OSM   H13T12561   4.746   3.186   9.559  0.4103  3.4574 -1.7289
  119OSM   C14S12562   4.867   3.058   9.438 -0.2036 -0.1703 -0.1238
  119OSM   H14S12563   4.845   2.956   9.478  4.1459 -1.4634 -0.5222
  119OSM   H14T12564   4.974   3.062   9.410 -0.3718  0.1756 -0.7228
  119OSM   C15S12565   4.767   3.076   9.318  0.0220  0.6154 -0.5333
  119OSM   H15S12566   4.769   3.176   9.270  0.4849  1.1201  0.5254
  119OSM   H15T12567   4.663   3.063   9.356 -0.7062  0.7231 -2.3780
  119OSM   C16S12568   4.798   2.972   9.206 -0.6260 -0.7217  0.3166
  119OSM   H16S12569   4.784   2.865   9.235  0.7776 -2.1419 -3.5296
  119OSM   H16T12570   4.905   2.983   9.178 -0.7916 -0.8648 -0.3856
  119OSM   C17S12571   4.706   3.002   9.090 -0.1739 -0.4120 -0.1265
  119OSM   H17S12572   4.732   3.098   9.042  1.0369 -0.8016 -0.2772
  119OSM   H17T12573   4.599   3.007   9.120 -0.2325  0.8148 -0.5008
  119OSM   C18S12574   4.737   2.892   8.987  0.5155 -0.2017 -0.3664
  119OSM   H18S12575   4.833   2.903   8.933  0.6606  2.0145  0.2320
  119OSM   H18T12576   4.666   2.896   8.902  2.6175  0.9151 -2.1489
  119OSM   H18U12577   4.735   2.789   9.028 -0.0825 -0.0172  0.0949
  119OSM    C1F12578   4.431   3.321  10.400 -0.1815 -0.1878 -0.1744
  119OSM     OF12579   4.465   3.423  10.462  0.6584  0.6772  0.3713
  119OSM    C2F12580   4.390   3.325  10.263  0.2689  0.1168  0.5792
  119OSM    H2F12581   4.330   3.234  10.241  1.2208 -0.0712 -1.5378
  119OSM    H2G12582   4.480   3.322  10.198 -0.8361  0.5611 -1.0324
  119OSM    C3F12583   4.304   3.446  10.232  0.0977 -0.3951  0.3333
  119OSM    H3F12584   4.350   3.544  10.255 -2.3431  1.4782 -2.1253
  119OSM    H3G12585   4.213   3.447  10.295  0.1218 -0.3880  0.3681
  119OSM    C4F12586   4.276   3.447  10.078 -0.0553  0.1937 -0.5006
  119OSM    H4F12587   4.225   3.541  10.047 -0.5729 -0.2130 -0.9077
  119OSM    H4G12588   4.216   3.354  10.069  0.8467 -0.5496  0.8782
  119OSM    C5F12589   4.403   3.458  10.001 -0.1911  0.8080  0.5018
  119OSM    H5F12590   4.439   3.354  10.013 -0.3982  0.5366 -0.9764
  119OSM    H5G12591   4.470   3.531  10.051 -0.4610  0.8446  0.8213
  119OSM    C6F12592   4.385   3.469   9.847 -1.3565 -0.5221 -0.2856
  119OSM    H6F12593   4.355   3.569   9.811 -1.1609  0.1137  1.2306
  119OSM    H6G12594   4.302   3.402   9.817 -0.7289 -1.1685 -0.6011
  119OSM    C7F12595   4.515   3.442   9.780  0.0355 -0.7107  0.1391
  119OSM    H7F12596   4.570   3.348   9.805  0.8641 -0.7047 -1.5433
  119OSM    H7G12597   4.580   3.529   9.803 -1.6938  0.7966 -0.4617
  119OSM    C8F12598   4.486   3.449   9.624  0.2327 -0.8018 -0.5348
  119OSM    H8F12599   4.580   3.460   9.565 -0.0985  3.0222 -0.6048
  119OSM    H8G12600   4.436   3.547   9.611  2.2465  0.5291  1.0722
  119OSM    C9F12601   4.403   3.335   9.585  0.5023  0.2849 -0.5890
  119OSM    H9F12602   4.425   3.238   9.631 -1.4063 -1.0868 -2.4131
  119OSM   C10F12603   4.326   3.333   9.475  0.4380 -0.9345 -0.2014
  119OSM   H10F12604   4.262   3.249   9.443 -0.3346  0.4339 -2.5584
  119OSM   C11F12605   4.295   3.446   9.380  0.0888 -0.0177  0.2184
  119OSM   H11F12606   4.316   3.541   9.432  2.2042 -0.0506 -0.4765
  119OSM   H11G12607   4.184   3.442   9.368  0.2765 -0.3886 -1.9713
  119OSM   C12F12608   4.359   3.437   9.238 -0.1176 -0.0425 -0.6916
  119OSM   H12F12609   4.317   3.517   9.174  0.5989 -0.9348 -2.3260
  119OSM   H12G12610   4.317   3.347   9.188 -2.2267  1.2714 -1.4116
  119OSM   C13F12611   4.512   3.469   9.241 -0.6718  0.4726  0.2405
  119OSM   H13F12612   4.552   3.385   9.302  2.1325  3.5467  3.0473
  119OSM   H13G12613   4.509   3.554   9.312  0.4385 -0.2479  1.1840
  119OSM   C14F12614   4.576   3.501   9.109 -0.3420 -0.4551  0.5386
  119OSM   H14F12615   4.681   3.535   9.126 -0.6501 -0.8089  3.7613
  119OSM   H14G12616   4.521   3.584   9.059 -0.0533 -1.3409 -1.3178
  119OSM   C15F12617   4.574   3.379   9.009  0.3638 -0.5090 -0.3318
  119OSM   H15F12618   4.471   3.340   8.993  0.1464  0.6208 -1.8942
  119OSM   H15G12619   4.640   3.299   9.049  0.3271 -0.2028  0.3573
  119OSM   C16F12620   4.620   3.425   8.872  0.4756 -0.0472  0.8158
  119OSM   H16F12621   4.685   3.515   8.874 -0.5168  0.6789  1.3245
  119OSM   H16G12622   4.537   3.470   8.814  2.8578  2.4842 -0.8380
  119OSM   C17F12623   4.691   3.311   8.792  0.4514 -0.0934  0.1265
  119OSM   H17F12624   4.648   3.212   8.819 -0.3335 -0.0716 -1.0112
  119OSM   H17G12625   4.796   3.312   8.830  1.0672  1.7070 -1.4884
  119OSM   C18F12626   4.683   3.323   8.643  0.0189 -0.4379 -0.8325
  119OSM   H18F12627   4.576   3.325   8.614  0.4376 -1.3385 -2.5102
  119OSM   H18G12628   4.728   3.237   8.590  2.5254 -1.2154  2.2392
  119OSM   H18H12629   4.728   3.416   8.603 -0.6638 -0.2695 -1.2273
  120OSM      N12630   3.334   5.810  10.772  0.3982 -0.6140 -0.1775
  120OSM    C1512631   3.413   5.712  10.854 -0.1027 -0.8705  0.3987
  120OSM   H15A12632   3.473   5.763  10.928 -3.3390  1.7169  1.4574
  120OSM   H15B12633   3.487   5.662  10.793  0.1927  0.9497 -0.8131
  120OSM   H15C12634   3.352   5.637  10.902 -1.1115 -0.7069 -0.5966
  120OSM    C1412635   3.251   5.885  10.870  0.1424 -0.0134  0.4101
  120OSM   H14A12636   3.189   5.813  10.920  0.5160 -0.3691  0.3619
  120OSM   H14B12637   3.179   5.953  10.826  1.9529  1.0301 -1.1367
  120OSM   H14C12638   3.315   5.938  10.940 -0.6918  0.7612  0.5972
  120OSM    C1312639   3.446   5.886  10.707  0.3253  0.4951  0.3308
  120OSM   H13A12640   3.503   5.926  10.789  1.9102 -1.9433  0.5388
  120OSM   H13B12641   3.401   5.967  10.651  0.4037  0.8696  0.8121
  120OSM   H13C12642   3.507   5.820  10.647 -2.4030 -1.5688 -0.3822
  120OSM    C1212643   3.246   5.743  10.670 -0.4512  0.1839  0.1345
  120OSM   H12A12644   3.166   5.693  10.722 -1.4172 -0.6059 -1.9774
  120OSM   H12B12645   3.297   5.662  10.620 -0.7476  0.3498 -0.4489
  120OSM    C1112646   3.164   5.830  10.571 -0.9722 -0.5095  0.3068
  120OSM   H11A12647   3.127   5.755  10.497 -2.4159 -0.9169  1.3852
  120OSM   H11B12648   3.234   5.886  10.505 -0.2441 -0.8000  0.8259
  120OSM      P12649   2.914   5.875  10.641 -0.2100  0.0084  0.1727
  120OSM    O1312650   2.907   5.777  10.745 -0.1111  0.0485  0.7138
  120OSM    O1412651   2.838   6.001  10.665  0.3641 -0.1711  0.0346
  120OSM    O1112652   2.879   5.816  10.498  0.2353 -0.1002  0.1522
  120OSM    O1212653   3.068   5.914  10.635 -0.0379 -0.0471  0.6734
  120OSM    C1S12654   2.903   5.904  10.379  0.0394  0.4661  1.1488
  120OSM    H1S12655   3.011   5.920  10.357 -0.5545  0.0836 -2.6862
  120OSM    H1T12656   2.857   6.005  10.385  1.1676  1.3365 -2.4925
  120OSM     NF12657   2.863   5.914  10.125  0.4144  1.0771  0.2185
  120OSM    HNF12658   2.779   5.962  10.100 -0.7386 -0.1187  1.5712
  120OSM    C2S12659   2.834   5.835  10.247 -0.1823 -0.5835  0.3109
  120OSM    H2S12660   2.883   5.740  10.214 -1.6883 -0.9317 -1.0303
  120OSM    C3S12661   2.682   5.812  10.259  0.5134 -0.2745  0.1789
  120OSM    H3S12662   2.641   5.906  10.302  1.0079 -0.8449  1.9858
  120OSM     O312663   2.649   5.733  10.372 -0.3066  0.9409  0.3512
  120OSM    HO312664   2.722   5.730  10.435  1.2258 -0.3109 -1.3838
  120OSM    C4S12665   2.615   5.746  10.137 -0.3566 -0.7185 -0.1709
  120OSM    H4S12666   2.629   5.639  10.119 -0.3132 -0.7347 -0.0381
  120OSM    C5S12667   2.520   5.794  10.049 -0.9910 -0.2624 -0.3199
  120OSM    H5S12668   2.487   5.898  10.064  1.5906  0.8128 -1.5891
  120OSM    C6S12669   2.459   5.714   9.935  0.0984  0.0093 -1.1888
  120OSM    H6S12670   2.389   5.775   9.873 -0.1624  0.8725 -0.0736
  120OSM    H6T12671   2.396   5.640   9.988  1.7736  0.2826  1.3648
  120OSM    C7S12672   2.557   5.654   9.837 -0.4892 -0.0842  0.1896
  120OSM    H7S12673   2.497   5.589   9.770 -1.5507  1.7557 -0.7030
  120OSM    H7T12674   2.627   5.590   9.895  0.6314  1.0988  0.1670
  120OSM    C8S12675   2.627   5.758   9.752  0.0133  0.0486 -0.7126
  120OSM    H8S12676   2.690   5.824   9.816 -1.8639  1.4621 -0.2554
  120OSM    H8T12677   2.554   5.824   9.701 -0.7013  0.4499  0.7957
  120OSM    C9S12678   2.726   5.692   9.656  0.0493  0.2065 -0.1673
  120OSM    H9S12679   2.698   5.586   9.643  0.3764  0.0365  0.4807
  120OSM    H9T12680   2.832   5.693   9.690  0.0434  1.0792 -0.1318
  120OSM   C10S12681   2.731   5.761   9.519  0.4093  0.1796  0.3945
  120OSM   H10S12682   2.782   5.858   9.536  1.2301  0.0461 -1.1314
  120OSM   H10T12683   2.627   5.775   9.483  0.9766  1.9145 -0.7177
  120OSM   C11S12684   2.803   5.675   9.411 -0.1675  0.0576 -0.1394
  120OSM   H11S12685   2.754   5.576   9.397 -0.1926 -0.3027  2.1194
  120OSM   H11T12686   2.904   5.649   9.450 -0.2817 -2.3681 -1.2530
  120OSM   C12S12687   2.815   5.753   9.278 -0.0639  0.3895 -0.4627
  120OSM   H12S12688   2.910   5.726   9.228 -0.1700 -1.9942  0.4699
  120OSM   H12T12689   2.814   5.859   9.310  3.6418  0.2243  0.6670
  120OSM   C13S12690   2.700   5.718   9.179  0.2668 -0.0398  0.6447
  120OSM   H13S12691   2.615   5.789   9.191  0.3100  0.3566 -1.0893
  120OSM   H13T12692   2.652   5.628   9.222  0.4837  0.0646  1.1180
  120OSM   C14S12693   2.740   5.714   9.025  0.1092 -0.3836 -0.3597
  120OSM   H14S12694   2.810   5.630   9.006  1.1431 -0.1918  2.1710
  120OSM   H14T12695   2.805   5.801   8.999  1.4112 -1.2263 -0.0335
  120OSM   C15S12696   2.628   5.697   8.921 -0.1402 -0.4377  0.0243
  120OSM   H15S12697   2.542   5.636   8.955  0.4340 -1.4058 -0.2184
  120OSM   H15T12698   2.670   5.669   8.822 -0.7156 -0.6842 -0.1529
  120OSM   C16S12699   2.550   5.831   8.915 -0.8288 -0.1353  0.1767
  120OSM   H16S12700   2.627   5.910   8.902 -1.0022 -0.1425 -0.9962
  120OSM   H16T12701   2.507   5.851   9.015  1.2313 -0.3932  1.1576
  120OSM   C17S12702   2.442   5.849   8.804  0.3456  0.6652  0.5146
  120OSM   H17S12703   2.380   5.937   8.832  0.2433  0.6806  0.2458
  120OSM   H17T12704   2.375   5.761   8.809  1.7812 -0.4834  0.1860
  120OSM   C18S12705   2.507   5.861   8.661  0.0410 -0.1077 -0.6305
  120OSM   H18S12706   2.428   5.846   8.585 -1.0515  0.2423  0.3991
  120OSM   H18T12707   2.593   5.794   8.639  0.4373 -0.4796  1.7518
  120OSM   H18U12708   2.546   5.964   8.645  0.6584  0.0632  1.5569
  120OSM    C1F12709   2.984   5.947  10.077  0.2197  0.3746  0.2560
  120OSM     OF12710   3.084   5.886  10.121 -0.2083  0.5569 -0.3138
  120OSM    C2F12711   2.999   6.058   9.975 -0.0688  0.0456 -0.5275
  120OSM    H2F12712   3.088   6.123   9.988  1.5755 -2.3275  0.9076
  120OSM    H2G12713   2.907   6.120   9.980 -0.7857 -1.0068 -0.3784
  120OSM    C3F12714   3.012   5.991   9.833  0.3205  0.2468 -0.2586
  120OSM    H3F12715   2.929   5.923   9.805 -0.1160  0.3420  0.7373
  120OSM    H3G12716   3.104   5.928   9.830 -0.6107 -1.3271  1.6982
  120OSM    C4F12717   3.012   6.094   9.720 -0.4586 -0.2287  0.2204
  120OSM    H4F12718   3.073   6.185   9.739  1.1809 -1.4274  0.9612
  120OSM    H4G12719   2.911   6.139   9.711 -0.4246  0.0658  1.2351
  120OSM    C5F12720   3.055   6.029   9.589 -0.4373 -0.2722 -0.4889
  120OSM    H5F12721   2.969   5.965   9.559 -1.5722  0.9245  0.1260
  120OSM    H5G12722   3.153   5.979   9.600 -1.1211 -1.5623 -0.0708
  120OSM    C6F12723   3.083   6.126   9.474 -0.0078 -0.0251 -0.2151
  120OSM    H6F12724   3.182   6.175   9.461 -0.0664 -0.1390 -1.2036
  120OSM    H6G12725   3.018   6.216   9.481  0.2603  0.4805 -2.8774
  120OSM    C7F12726   3.055   6.060   9.340  0.1299 -0.0388  0.5794
  120OSM    H7F12727   2.963   6.000   9.356 -0.3643 -0.4460 -2.9710
  120OSM    H7G12728   3.142   6.001   9.303  0.4156  1.9444 -2.2450
  120OSM    C8F12729   3.018   6.160   9.220 -0.1115  1.0276  0.0924
  120OSM    H8F12730   3.104   6.225   9.197 -0.2476  1.2435  0.1883
  120OSM    H8G12731   2.942   6.233   9.257 -1.1782  0.7920 -1.4923
  120OSM    C9F12732   2.978   6.084   9.100  0.5805  0.6465 -0.1174
  120OSM    H9F12733   3.013   5.979   9.100  2.2578  1.1234 -2.2553
  120OSM   C10F12734   2.899   6.127   9.004  1.0538 -0.5758 -0.0706
  120OSM   H10F12735   2.884   6.057   8.920  0.1277 -0.7373  0.2132
  120OSM   C11F12736   2.832   6.266   8.987  0.0785 -0.5935  0.1169
  120OSM   H11F12737   2.849   6.314   8.888 -2.2406 -0.3674 -0.2206
  120OSM   H11G12738   2.880   6.330   9.063  0.9073 -2.1002  0.9265
  120OSM   C12F12739   2.679   6.268   8.997 -0.3147  0.6661 -0.6879
  120OSM   H12F12740   2.671   6.249   9.106  2.6972  0.3732 -0.4339
  120OSM   H12G12741   2.635   6.189   8.933  5.0558 -2.1204 -1.5724
  120OSM   C13F12742   2.617   6.396   8.971 -0.4624 -0.3266 -0.2586
  120OSM   H13F12743   2.698   6.472   8.974 -0.5435  0.1036 -4.0353
  120OSM   H13G12744   2.551   6.434   9.051  1.3281  0.6875  0.8118
  120OSM   C14F12745   2.566   6.405   8.828 -0.9093 -0.1926  0.6130
  120OSM   H14F12746   2.639   6.374   8.750  0.5137  2.7230  0.6524
  120OSM   H14G12747   2.551   6.512   8.802  3.4382  0.2601 -1.0044
  120OSM   C15F12748   2.427   6.337   8.805 -0.5256 -0.1094 -0.5238
  120OSM   H15F12749   2.344   6.375   8.868 -0.7348 -0.3641 -0.6425
  120OSM   H15G12750   2.433   6.229   8.830 -0.6708 -0.3643 -1.5311
  120OSM   C16F12751   2.387   6.346   8.659  0.5262  0.7355 -0.0830
  120OSM   H16F12752   2.467   6.301   8.596  0.3368  2.2019 -1.4228
  120OSM   H16G12753   2.385   6.452   8.626 -3.1304  0.8115  0.0623
  120OSM   C17F12754   2.262   6.267   8.623  0.1080 -0.7239  0.1381
  120OSM   H17F12755   2.171   6.314   8.667 -1.9243 -1.9525 -2.4053
  120OSM   H17G12756   2.262   6.163   8.662 -0.3116 -0.5725  0.5577
  120OSM   C18F12757   2.246   6.268   8.466  0.4564 -0.4347 -0.1031
  120OSM   H18F12758   2.306   6.185   8.423  0.4528  0.7887 -2.6518
  120OSM   H18G12759   2.281   6.364   8.423 -0.1104 -0.1510  0.0552
  120OSM   H18H12760   2.140   6.259   8.433  0.4828 -0.1842 -0.2585
  121OSM      N12761   4.030   2.180  11.351 -0.0146  0.3380  0.8353
  121OSM    C1512762   4.054   2.243  11.481 -0.3195  0.5641  0.1580
  121OSM   H15A12763   3.973   2.207  11.542 -0.1531  0.1791  0.1576
  121OSM   H15B12764   4.057   2.349  11.462  1.1717  0.7317  1.1452
  121OSM   H15C12765   4.152   2.218  11.519 -0.1293  1.4362  0.2653
  121OSM    C1412766   4.140   2.197  11.252 -0.5121  0.0830  0.5224
  121OSM   H14A12767   4.112   2.161  11.153 -0.0913  2.3209 -0.4670
  121OSM   H14B12768   4.223   2.132  11.277 -1.2817 -1.5791 -0.9750
  121OSM   H14C12769   4.173   2.299  11.246 -0.7315  0.1641  0.6776
  121OSM    C1312770   4.020   2.028  11.368  0.0527 -0.4568  0.0895
  121OSM   H13A12771   4.112   2.000  11.417  2.1115  3.8174 -0.9173
  121OSM   H13B12772   4.009   1.980  11.272  0.0208 -1.2895  0.5053
  121OSM   H13C12773   3.925   2.012  11.418 -2.2327 -0.2029 -3.7287
  121OSM    C1212774   3.905   2.228  11.280 -0.0761 -0.0862 -0.8515
  121OSM   H12A12775   3.924   2.332  11.255 -0.2304  0.3423  0.6920
  121OSM   H12B12776   3.826   2.218  11.353  1.5759 -2.9625  0.7073
  121OSM    C1112777   3.861   2.160  11.153  0.3336  0.2962  0.7644
  121OSM   H11A12778   3.818   2.061  11.176 -2.2840  0.1257 -3.7438
  121OSM   H11B12779   3.943   2.145  11.080  0.8408 -1.1632  1.5864
  121OSM      P12780   3.797   2.368  11.014 -0.5004  0.1715  0.1932
  121OSM    O1312781   3.673   2.443  10.970 -0.0544  0.5025 -0.6346
  121OSM    O1412782   3.879   2.459  11.102 -0.2171 -0.5957  0.1258
  121OSM    O1112783   3.880   2.322  10.885  0.5674  0.6820  0.2899
  121OSM    O1212784   3.761   2.234  11.091  0.3066 -0.2328  0.5296
  121OSM    C1S12785   3.803   2.282  10.780 -0.2720 -0.6173 -0.0585
  121OSM    H1S12786   3.732   2.364  10.753 -0.7195 -0.2788  1.9721
  121OSM    H1T12787   3.749   2.188  10.803  1.7233 -1.3840  1.7594
  121OSM     NF12788   3.798   2.224  10.545  0.0417  0.1900 -0.0373
  121OSM    HNF12789   3.787   2.128  10.520  0.5359  0.1626 -0.1568
  121OSM    C2S12790   3.886   2.256  10.655  0.7507  0.1810 -0.8389
  121OSM    H2S12791   3.941   2.348  10.625  0.6033  0.5259 -0.0684
  121OSM    C3S12792   3.994   2.134  10.675 -0.0768  0.0744  0.5771
  121OSM    H3S12793   3.935   2.040  10.680  0.5995 -0.4837 -1.1539
  121OSM     O312794   4.070   2.142  10.794  0.0198  0.0113 -0.4311
  121OSM    HO312795   4.027   2.209  10.847  0.7365 -1.3509  2.0389
  121OSM    C4S12796   4.072   2.123  10.543 -0.6364  0.4310 -0.0798
  121OSM    H4S12797   4.010   2.104  10.454  1.7996 -1.5200 -1.4702
  121OSM    C5S12798   4.202   2.146  10.516 -0.0384 -0.1493  0.3047
  121OSM    H5S12799   4.274   2.171  10.595  0.0978 -1.3819  0.5943
  121OSM    C6S12800   4.272   2.129  10.384  0.6961  0.4028 -0.0537
  121OSM    H6S12801   4.360   2.065  10.405 -1.1204 -1.9988  0.6201
  121OSM    H6T12802   4.316   2.227  10.355  1.7469  0.0526  0.3206
  121OSM    C7S12803   4.179   2.071  10.273  0.3642  0.3597  0.1971
  121OSM    H7S12804   4.092   2.139  10.260  0.6417  0.9020  1.0764
  121OSM    H7T12805   4.136   1.979  10.318  2.0148 -1.3011 -1.4127
  121OSM    C8S12806   4.251   2.072  10.140 -0.2088 -0.3394 -0.3005
  121OSM    H8S12807   4.281   2.172  10.101 -0.2339 -0.0319  0.4585
  121OSM    H8T12808   4.173   2.051  10.064  0.5223 -1.6058 -0.7332
  121OSM    C9S12809   4.369   1.980  10.118  0.1285 -0.1860  0.1582
  121OSM    H9S12810   4.400   1.926  10.210  0.1843 -0.1794  0.1431
  121OSM    H9T12811   4.459   2.043  10.104  1.1184 -1.4959  0.4631
  121OSM   C10S12812   4.355   1.891   9.997 -0.5714 -0.3306 -0.1715
  121OSM   H10S12813   4.262   1.832  10.009  0.0785 -1.3726 -0.2011
  121OSM   H10T12814   4.424   1.805   9.995 -1.8897 -1.4871  1.2107
  121OSM   C11S12815   4.348   1.952   9.852  0.9381  0.4584  0.1711
  121OSM   H11S12816   4.451   1.968   9.815  0.8386 -0.5767 -0.5835
  121OSM   H11T12817   4.284   2.043   9.863 -0.5664 -0.6638  1.0562
  121OSM   C12S12818   4.268   1.858   9.758 -0.4955 -0.3115  0.0608
  121OSM   H12S12819   4.183   1.821   9.818  0.8171 -0.9100  1.6178
  121OSM   H12T12820   4.333   1.770   9.741 -1.3339 -0.6309 -1.6622
  121OSM   C13S12821   4.230   1.928   9.631 -0.5517  0.7026 -0.0472
  121OSM   H13S12822   4.315   1.982   9.583  0.7558 -0.6040  0.6992
  121OSM   H13T12823   4.151   2.004   9.645 -2.5767 -1.1184 -1.0928
  121OSM   C14S12824   4.182   1.833   9.525  0.4915 -0.1599 -0.2725
  121OSM   H14S12825   4.108   1.758   9.559  1.2152 -0.6603  0.2288
  121OSM   H14T12826   4.273   1.780   9.490  0.6446  0.7765 -1.3744
  121OSM   C15S12827   4.142   1.912   9.399 -0.3513 -0.3082 -0.1625
  121OSM   H15S12828   4.217   1.984   9.359  0.7313 -2.1211 -1.5703
  121OSM   H15T12829   4.047   1.961   9.428 -0.9713 -0.2384 -2.1520
  121OSM   C16S12830   4.111   1.844   9.266  0.0811 -0.0243 -0.7158
  121OSM   H16S12831   4.032   1.768   9.284  1.4197 -1.0750  1.0738
  121OSM   H16T12832   4.200   1.797   9.219  0.3837  1.3268 -1.5730
  121OSM   C17S12833   4.053   1.943   9.165  0.7919  0.4349  0.6317
  121OSM   H17S12834   4.121   2.028   9.145 -0.6336  1.1493 -1.3882
  121OSM   H17T12835   3.956   1.962   9.215  1.1347  1.4011  0.9498
  121OSM   C18S12836   4.020   1.881   9.026 -0.6138  0.1647 -0.2216
  121OSM   H18S12837   4.118   1.864   8.976  0.7950 -0.1197  2.4566
  121OSM   H18T12838   3.965   1.954   8.964 -0.5431 -0.0783 -0.5739
  121OSM   H18U12839   3.978   1.779   9.041  0.9273 -0.2154  2.0497
  121OSM    C1F12840   3.712   2.311  10.493  1.0574  0.3216 -0.5894
  121OSM     OF12841   3.711   2.426  10.541  0.4283  0.0078 -0.1214
  121OSM    C2F12842   3.618   2.276  10.375  0.0591 -0.0546 -0.3791
  121OSM    H2F12843   3.513   2.268  10.411 -0.0137 -1.2054 -0.7934
  121OSM    H2G12844   3.637   2.176  10.330  2.0252  0.6357 -1.2032
  121OSM    C3F12845   3.633   2.366  10.255 -0.0198 -0.0563  0.1294
  121OSM    H3F12846   3.720   2.325  10.199 -0.3015 -1.0501  0.4099
  121OSM    H3G12847   3.650   2.471  10.287  0.2034 -0.7502  2.4874
  121OSM    C4F12848   3.508   2.365  10.168 -0.1056 -0.2781  0.2972
  121OSM    H4F12849   3.525   2.457  10.108 -0.5630 -0.5785 -0.3070
  121OSM    H4G12850   3.424   2.383  10.239  0.1779  1.4783  0.2347
  121OSM    C5F12851   3.502   2.250  10.061  1.4658  0.2388 -0.8288
  121OSM    H5F12852   3.410   2.191  10.081 -0.8268  3.3940 -1.3225
  121OSM    H5G12853   3.580   2.171  10.064 -0.5316 -1.8391 -0.3809
  121OSM    C6F12854   3.505   2.298   9.911  0.6720  0.5838 -0.1806
  121OSM    H6F12855   3.605   2.338   9.884  0.1922  1.1354 -1.2155
  121OSM    H6G12856   3.432   2.382   9.914 -0.6638 -0.5471  0.0359
  121OSM    C7F12857   3.458   2.194   9.805 -0.6368 -0.9158  0.7543
  121OSM    H7F12858   3.348   2.186   9.819 -0.3805 -3.7807  1.8922
  121OSM    H7G12859   3.494   2.090   9.819 -0.5679 -1.1786 -1.1859
  121OSM    C8F12860   3.480   2.243   9.664 -0.4100  0.3703  0.2366
  121OSM    H8F12861   3.465   2.350   9.641  0.9888  0.3502 -0.9140
  121OSM    H8G12862   3.401   2.185   9.610  1.6427 -3.1867  0.7342
  121OSM    C9F12863   3.620   2.202   9.621 -0.8980 -0.2056 -0.0473
  121OSM    H9F12864   3.703   2.239   9.683  0.7631  1.2566 -2.9193
  121OSM   C10F12865   3.654   2.119   9.516 -0.7161 -0.2793 -0.3203
  121OSM   H10F12866   3.759   2.103   9.486 -0.7751  0.0590 -0.7171
  121OSM   C11F12867   3.551   2.070   9.421  0.2100  0.4938  0.5448
  121OSM   H11F12868   3.449   2.054   9.463 -0.0146 -0.2759 -0.2717
  121OSM   H11G12869   3.576   1.971   9.378  0.4204  0.8331 -0.1392
  121OSM   C12F12870   3.526   2.160   9.296 -0.0315 -0.1862 -0.0239
  121OSM   H12F12871   3.627   2.180   9.255  0.6665 -1.3362  1.0937
  121OSM   H12G12872   3.469   2.253   9.321  0.7267  0.6290 -1.2144
  121OSM   C13F12873   3.458   2.084   9.175  0.3589 -0.7817 -0.6568
  121OSM   H13F12874   3.352   2.063   9.200 -0.2193  0.2947 -2.0867
  121OSM   H13G12875   3.509   1.985   9.179  1.0527 -0.4019  0.4429
  121OSM   C14F12876   3.471   2.137   9.031  0.1344 -0.6486  0.3963
  121OSM   H14F12877   3.570   2.186   9.019 -0.5085  0.2930 -1.3074
  121OSM   H14G12878   3.402   2.220   9.007  1.9526  0.6861 -0.4425
  121OSM   C15F12879   3.470   2.028   8.922  0.5907  0.2723 -0.1063
  121OSM   H15F12880   3.414   1.945   8.969 -3.5899  2.9529  0.1479
  121OSM   H15G12881   3.575   1.999   8.897  0.8825  1.9445 -0.9790
  121OSM   C16F12882   3.406   2.056   8.780  0.3036  0.5499 -0.7139
  121OSM   H16F12883   3.458   1.989   8.708 -2.7217 -0.7010 -1.8967
  121OSM   H16G12884   3.436   2.161   8.758  0.1336  0.0614 -3.7004
  121OSM   C17F12885   3.249   2.050   8.788 -0.2552 -0.0086  0.5683
  121OSM   H17F12886   3.219   2.116   8.872 -1.2878 -0.8575  0.8877
  121OSM   H17G12887   3.213   1.948   8.812 -0.0200 -0.2896 -0.2414
  121OSM   C18F12888   3.185   2.108   8.661  0.6753 -0.0935 -0.7357
  121OSM   H18F12889   3.080   2.075   8.644  0.0811 -0.6267  3.0810
  121OSM   H18G12890   3.256   2.086   8.578  1.7624  0.5033  0.0218
  121OSM   H18H12891   3.177   2.218   8.674 -1.4337 -0.3193  0.3668
  122OSM      N12892   2.344   0.777  11.233 -0.0383 -0.2408 -0.3369
  122OSM    C1512893   2.413   0.868  11.332  0.1530  0.2805  0.1856
  122OSM   H15A12894   2.419   0.814  11.425  3.2934 -0.9879 -0.6198
  122OSM   H15B12895   2.353   0.955  11.353 -2.2380 -1.1496 -0.2724
  122OSM   H15C12896   2.512   0.886  11.293  1.3121 -1.4991  2.1207
  122OSM    C1412897   2.403   0.637  11.257 -0.3295 -0.4026  0.1241
  122OSM   H14A12898   2.373   0.589  11.349  0.6802 -0.6877  0.3144
  122OSM   H14B12899   2.511   0.641  11.265 -0.3262 -0.8906  0.3311
  122OSM   H14C12900   2.371   0.572  11.177 -3.5335 -0.2093  1.1013
  122OSM    C1312901   2.206   0.767  11.269 -0.4042  0.5028 -0.3647
  122OSM   H13A12902   2.194   0.743  11.373 -2.0185  0.6287 -0.4930
  122OSM   H13B12903   2.158   0.694  11.205 -2.2554  0.4311  1.0238
  122OSM   H13C12904   2.149   0.858  11.276 -3.4477 -1.2626 -0.5913
  122OSM    C1212905   2.353   0.829  11.092 -1.4336  0.2449  0.3817
  122OSM   H12A12906   2.455   0.848  11.065 -0.9193 -2.0499  0.5598
  122OSM   H12B12907   2.295   0.920  11.092 -0.0760  1.1560 -0.9242
  122OSM    C1112908   2.286   0.736  10.990  0.3535  0.3211  0.5341
  122OSM   H11A12909   2.315   0.631  11.010 -0.1617 -0.0173 -0.4734
  122OSM   H11B12910   2.334   0.751  10.891  1.6421 -0.2215  1.0463
  122OSM      P12911   2.084   0.873  10.906  0.0371  0.3133  0.4426
  122OSM    O1312912   1.933   0.860  10.880  0.0104 -0.2200  0.4394
  122OSM    O1412913   2.129   1.002  10.966 -0.8035  0.3887 -0.0708
  122OSM    O1112914   2.156   0.854  10.775  0.6576 -0.3763 -0.0043
  122OSM    O1212915   2.145   0.744  10.986  0.4845  0.4933  0.3722
  122OSM    C1S12916   2.085   0.830  10.653 -1.0164 -0.3612 -0.3008
  122OSM    H1S12917   1.991   0.888  10.638 -1.0365 -0.5930 -1.1302
  122OSM    H1T12918   2.049   0.725  10.656 -0.5510 -0.5033  1.3242
  122OSM     NF12919   2.097   0.841  10.397 -0.0103 -0.0281 -1.1302
  122OSM    HNF12920   2.100   0.759  10.340  1.5236 -0.5930 -0.3123
  122OSM    C2S12921   2.179   0.840  10.524  0.6672  0.3223 -0.4096
  122OSM    H2S12922   2.239   0.933  10.534 -0.0385  0.9659 -1.8589
  122OSM    C3S12923   2.270   0.717  10.526  0.1566 -0.7145 -0.4099
  122OSM    H3S12924   2.210   0.629  10.497  2.2107 -1.9094 -1.2485
  122OSM     O312925   2.340   0.712  10.648  0.2339  0.0178  0.2690
  122OSM    HO312926   2.295   0.770  10.710  0.4086  1.8795 -1.2552
  122OSM    C4S12927   2.373   0.723  10.422 -0.4926  0.1130 -0.0811
  122OSM    H4S12928   2.427   0.818  10.420 -1.5478  0.7187 -0.3524
  122OSM    C5S12929   2.401   0.623  10.336 -0.0605 -0.4518 -0.2203
  122OSM    H5S12930   2.343   0.530  10.346 -1.8095  0.5178 -0.8807
  122OSM    C6S12931   2.506   0.627  10.225  0.2473  0.2043 -0.2479
  122OSM    H6S12932   2.583   0.550  10.247  0.9518  1.6301  2.8083
  122OSM    H6T12933   2.561   0.723  10.227  2.1803 -0.8692  0.5308
  122OSM    C7S12934   2.442   0.613  10.088 -0.0035  0.0312 -0.1348
  122OSM    H7S12935   2.395   0.513  10.075 -0.2273  0.0173  0.7796
  122OSM    H7T12936   2.528   0.606  10.017 -0.4062  0.6399 -0.7009
  122OSM    C8S12937   2.365   0.732  10.023  0.3825 -0.0799  0.5027
  122OSM    H8S12938   2.417   0.827  10.049  0.7497 -0.0648 -0.2812
  122OSM    H8T12939   2.262   0.743  10.065 -0.0761 -1.1985 -0.2786
  122OSM    C9S12940   2.357   0.723   9.873 -0.0819  0.3483  0.4051
  122OSM    H9S12941   2.309   0.627   9.842 -1.8671  1.0430  0.8413
  122OSM    H9T12942   2.461   0.731   9.837 -0.5922 -0.4928 -1.3565
  122OSM   C10S12943   2.279   0.839   9.815 -0.2954  0.6601 -0.7953
  122OSM   H10S12944   2.297   0.916   9.894 -2.9917 -1.2745  1.9560
  122OSM   H10T12945   2.171   0.812   9.822  0.2249 -1.0840  1.6757
  122OSM   C11S12946   2.325   0.879   9.676 -0.6587  0.5680  1.1685
  122OSM   H11S12947   2.429   0.916   9.683 -1.6851  4.2919 -0.6442
  122OSM   H11T12948   2.270   0.972   9.647  0.6990  1.6429  1.9250
  122OSM   C12S12949   2.302   0.769   9.569  0.4428 -0.6604 -0.3721
  122OSM   H12S12950   2.199   0.730   9.561 -0.4065  1.7274 -2.5130
  122OSM   H12T12951   2.374   0.686   9.582  0.8039 -0.5009 -1.2549
  122OSM   C13S12952   2.330   0.820   9.429 -0.9633 -0.1534  0.0915
  122OSM   H13S12953   2.429   0.863   9.403 -2.0217  2.4607  0.0019
  122OSM   H13T12954   2.262   0.904   9.403  0.4727  1.0905  0.2086
  122OSM   C14S12955   2.305   0.707   9.323  0.3199 -0.5790 -0.0722
  122OSM   H14S12956   2.211   0.655   9.353  0.5497 -0.8046  0.2564
  122OSM   H14T12957   2.386   0.631   9.330 -0.4751 -1.4976 -0.5049
  122OSM   C15S12958   2.299   0.755   9.176 -0.6938 -0.8313  0.3825
  122OSM   H15S12959   2.400   0.799   9.159 -0.6868 -0.7529  0.6243
  122OSM   H15T12960   2.238   0.845   9.157 -0.2998 -0.5416  0.4816
  122OSM   C16S12961   2.263   0.645   9.081  0.2454  0.1230  0.5450
  122OSM   H16S12962   2.166   0.607   9.119 -0.1663 -0.0369 -0.6101
  122OSM   H16T12963   2.322   0.551   9.089  0.6886  0.4162  0.7273
  122OSM   C17S12964   2.232   0.686   8.937  0.4521 -0.0254 -0.2819
  122OSM   H17S12965   2.212   0.597   8.873  2.9862 -1.6624  1.0393
  122OSM   H17T12966   2.323   0.738   8.901 -0.0500  0.5732 -0.7225
  122OSM   C18S12967   2.119   0.789   8.923  0.6841 -0.0693 -0.0360
  122OSM   H18S12968   2.114   0.817   8.815  0.8453  1.3279  0.2943
  122OSM   H18T12969   2.129   0.892   8.962 -2.9327  1.1589 -1.9273
  122OSM   H18U12970   2.026   0.746   8.964  2.4304 -1.0945  3.2392
  122OSM    C1F12971   2.022   0.948  10.361 -0.4295 -0.2893  0.1312
  122OSM     OF12972   2.053   1.062  10.404 -0.1396 -0.1324 -0.6009
  122OSM    C2F12973   1.912   0.928  10.268 -0.5378  0.4499  0.2335
  122OSM    H2F12974   1.819   0.929  10.328 -1.8353 -0.3082 -1.6620
  122OSM    H2G12975   1.924   0.834  10.210 -0.8699  0.4274  0.2000
  122OSM    C3F12976   1.907   1.042  10.158  0.1477  0.3987  0.0448
  122OSM    H3F12977   1.885   1.142  10.202 -0.6107 -0.3962  1.5169
  122OSM    H3G12978   1.821   1.017  10.092 -0.4291  2.4826 -0.0789
  122OSM    C4F12979   2.032   1.053  10.075  0.4944  0.2161  0.5225
  122OSM    H4F12980   2.049   0.954  10.027  0.5964  0.5916 -0.2337
  122OSM    H4G12981   2.120   1.086  10.135  0.1185 -0.6896  1.5991
  122OSM    C5F12982   2.008   1.162   9.973  0.0517  0.5179  0.5294
  122OSM    H5F12983   1.953   1.246  10.021 -0.2673  0.6076  0.0187
  122OSM    H5G12984   1.947   1.113   9.894 -0.6755 -0.5913  1.7426
  122OSM    C6F12985   2.129   1.208   9.891 -0.8751  0.2474 -0.5148
  122OSM    H6F12986   2.163   1.113   9.843 -1.6726  0.0274 -0.6748
  122OSM    H6G12987   2.215   1.252   9.945  1.0588 -2.5059 -1.1393
  122OSM    C7F12988   2.079   1.307   9.790  0.5373  0.4270  0.5310
  122OSM    H7F12989   2.052   1.405   9.833 -0.2360  0.5832 -0.2807
  122OSM    H7G12990   1.987   1.276   9.735  1.7827  2.1095 -2.8346
  122OSM    C8F12991   2.191   1.330   9.687 -0.5131 -0.0387 -0.9855
  122OSM    H8F12992   2.211   1.228   9.647 -0.1315 -1.7278  3.0576
  122OSM    H8G12993   2.283   1.348   9.747 -1.3744  0.8901  0.0921
  122OSM    C9F12994   2.177   1.433   9.575  0.3105  0.6256 -0.3140
  122OSM    H9F12995   2.160   1.534   9.616 -0.6117  0.4795 -0.3115
  122OSM   C10F12996   2.192   1.410   9.444  0.0484  0.5304  0.5229
  122OSM   H10F12997   2.167   1.480   9.363 -1.1146 -1.9820 -1.4723
  122OSM   C11F12998   2.223   1.279   9.381 -0.0272 -0.2915 -0.1338
  122OSM   H11F12999   2.131   1.222   9.358 -0.1103  0.6571 -2.3390
  122OSM   H11G13000   2.285   1.217   9.450 -0.7952 -0.8843  0.0346
  122OSM   C12F13001   2.303   1.292   9.252  0.1586  0.9415 -0.3139
  122OSM   H12F13002   2.403   1.336   9.270  0.1017  0.6775  0.7252
  122OSM   H12G13003   2.248   1.356   9.180  0.4526  2.4302  0.7413
  122OSM   C13F13004   2.306   1.146   9.193 -0.3012 -0.6842 -0.0444
  122OSM   H13F13005   2.205   1.123   9.155  0.0373 -1.7097 -0.3421
  122OSM   H13G13006   2.309   1.066   9.270 -2.3613 -1.0318 -0.2686
  122OSM   C14F13007   2.416   1.117   9.083  0.0563 -1.0322  0.2461
  122OSM   H14F13008   2.418   1.207   9.016  0.2837 -1.5535 -0.4603
  122OSM   H14G13009   2.364   1.050   9.010 -1.8277  0.7628 -0.1865
  122OSM   C15F13010   2.547   1.074   9.128  0.2649  0.5200 -1.0500
  122OSM   H15F13011   2.529   0.983   9.188 -4.8402  1.8966  0.0074
  122OSM   H15G13012   2.593   1.150   9.194  2.1265  0.2140 -1.9273
  122OSM   C16F13013   2.653   1.058   9.013  0.3676  0.4162  0.0047
  122OSM   H16F13014   2.650   1.154   8.958 -0.5799 -0.4459 -1.5488
  122OSM   H16G13015   2.614   0.978   8.946  0.3158  0.9210 -0.5690
  122OSM   C17F13016   2.804   1.008   9.051 -0.7098 -0.2819 -0.2012
  122OSM   H17F13017   2.799   0.911   9.104 -3.1627 -0.4560 -0.6404
  122OSM   H17G13018   2.842   1.085   9.122 -0.7053 -1.4857  1.1277
  122OSM   C18F13019   2.891   0.996   8.932  0.0170 -0.5702  0.4292
  122OSM   H18F13020   2.875   1.086   8.869 -0.2915 -0.1987  1.0227
  122OSM   H18G13021   2.878   0.903   8.872  0.8327 -0.3817 -0.0546
  122OSM   H18H13022   2.999   0.992   8.960  0.5964  1.4746 -1.2657
  123OSM      N13023   0.292   6.342   6.327  0.6627 -0.1565  0.1366
  123OSM    C1513024   0.144   6.299   6.333 -0.4871  0.1317  0.1422
  123OSM   H15A13025   0.082   6.385   6.315 -1.3507 -0.2030  1.3761
  123OSM   H15B13026   0.115   6.255   6.428 -0.1860 -1.4709 -0.4747
  123OSM   H15C13027   0.124   6.214   6.269  0.2290 -0.3099  0.4900
  123OSM    C1413028   0.312   6.396   6.466 -1.1066 -0.7960 -0.0764
  123OSM   H14A13029   0.419   6.409   6.469 -0.6154 -3.6036 -1.6135
  123OSM   H14B13030   0.272   6.338   6.548 -3.8295  1.2887  0.2145
  123OSM   H14C13031   0.281   6.496   6.490  0.8411 -0.0305 -0.5637
  123OSM    C1313032   0.373   6.222   6.315  0.3820 -0.7887 -1.0968
  123OSM   H13A13033   0.334   6.148   6.383 -0.6420  0.3137 -0.4374
  123OSM   H13B13034   0.473   6.238   6.350 -0.0002  1.4957 -0.8613
  123OSM   H13C13035   0.376   6.183   6.214 -0.7901  2.7475 -2.6932
  123OSM    C1213036   0.314   6.448   6.227  0.6726 -0.6911  0.9010
  123OSM   H12A13037   0.303   6.408   6.127  1.4624  0.4932  0.3277
  123OSM   H12B13038   0.419   6.472   6.227  0.8947 -1.5869  0.0711
  123OSM    C1113039   0.243   6.587   6.233 -0.5526  0.4073 -0.0590
  123OSM   H11A13040   0.268   6.664   6.157 -0.8825  2.4337  1.7851
  123OSM   H11B13041   0.283   6.625   6.329  0.3437  1.7267 -0.9337
  123OSM      P13042  -0.001   6.662   6.303 -0.0487  0.2190  0.1953
  123OSM    O1313043   0.004   6.792   6.234 -0.3569  0.3468  0.7038
  123OSM    O1413044  -0.126   6.591   6.318  0.0201  0.4811 -0.2315
  123OSM    O1113045   0.069   6.680   6.441  0.4706  0.2890  0.3011
  123OSM    O1213046   0.096   6.560   6.228 -0.2260  0.2059  0.7914
  123OSM    C1S13047   0.080   6.812   6.496  0.2502  0.0642 -0.2528
  123OSM    H1S13048   0.005   6.885   6.459 -2.3068 -1.2468  1.9808
  123OSM    H1T13049   0.183   6.847   6.474  0.5250 -0.8480 -0.4641
  123OSM     NF13050   0.059   6.939   6.710  0.1187  0.0355  0.5033
  123OSM    HNF13051   0.132   6.971   6.770  0.8430 -0.4796 -0.0874
  123OSM    C2S13052   0.065   6.802   6.652 -0.1075 -0.0378 -0.0027
  123OSM    H2S13053  -0.030   6.748   6.670  1.9741 -3.9748  0.1814
  123OSM    C3S13054   0.183   6.711   6.702 -0.3344  0.3304 -0.2156
  123OSM    H3S13055   0.281   6.759   6.679  0.7312 -2.0674 -0.9844
  123OSM     O313056   0.192   6.578   6.648  0.1118 -0.4909 -0.0817
  123OSM    HO313057   0.136   6.572   6.570  0.2614  1.1946 -0.3481
  123OSM    C4S13058   0.176   6.694   6.850 -0.4442 -0.2705 -0.0111
  123OSM    H4S13059   0.232   6.773   6.901 -1.8503 -0.0771  1.2808
  123OSM    C5S13060   0.105   6.609   6.925  0.1933 -0.0395  0.8675
  123OSM    H5S13061   0.053   6.528   6.872  3.4696 -1.4900 -0.4285
  123OSM    C6S13062   0.104   6.605   7.075 -0.4673  0.1242  0.1102
  123OSM    H6S13063   0.096   6.504   7.120  0.1681  1.3144  3.1126
  123OSM    H6T13064   0.008   6.655   7.098 -1.9144 -1.5667 -1.8918
  123OSM    C7S13065   0.224   6.678   7.143  0.0065  0.5648  0.1078
  123OSM    H7S13066   0.218   6.786   7.118  2.4709  0.5767 -0.7195
  123OSM    H7T13067   0.320   6.644   7.100 -1.1009 -2.9936  0.1211
  123OSM    C8S13068   0.237   6.657   7.292  0.2865 -0.8954 -0.4794
  123OSM    H8S13069   0.139   6.681   7.336 -0.1844 -1.7844 -1.0176
  123OSM    H8T13070   0.319   6.722   7.330  0.9311 -2.4166  0.8458
  123OSM    C9S13071   0.281   6.515   7.334  0.3294 -0.4059  0.2955
  123OSM    H9S13072   0.375   6.486   7.284  0.5301  2.0520 -0.8661
  123OSM    H9T13073   0.205   6.442   7.298  1.1827 -1.0960 -0.1508
  123OSM   C10S13074   0.287   6.506   7.485  0.0508 -0.2177 -1.0898
  123OSM   H10S13075   0.196   6.528   7.545  2.2402  1.1596  1.9969
  123OSM   H10T13076   0.378   6.565   7.507 -0.4344  0.0866  0.1699
  123OSM   C11S13077   0.329   6.366   7.534 -0.8241  0.6230  0.1923
  123OSM   H11S13078   0.414   6.349   7.466  0.1531  0.0965  1.4968
  123OSM   H11T13079   0.244   6.296   7.514 -0.6383  0.6698 -0.7973
  123OSM   C12S13080   0.386   6.358   7.676  0.0744  0.3684 -0.5672
  123OSM   H12S13081   0.471   6.429   7.680 -0.5006  1.0284  1.5843
  123OSM   H12T13082   0.430   6.257   7.691 -3.0801 -0.7150  3.1636
  123OSM   C13S13083   0.296   6.390   7.795 -0.4621 -0.0715  0.9857
  123OSM   H13S13084   0.200   6.336   7.779 -0.9468  0.6636  1.3574
  123OSM   H13T13085   0.268   6.497   7.788  2.3982  0.7732  1.2316
  123OSM   C14S13086   0.354   6.364   7.934 -0.2117 -0.8143 -0.1924
  123OSM   H14S13087   0.452   6.415   7.948 -0.6313 -0.2189  0.6462
  123OSM   H14T13088   0.370   6.255   7.935  1.3262 -0.7091 -2.8800
  123OSM   C15S13089   0.258   6.413   8.046 -0.5105  0.1173  0.1424
  123OSM   H15S13090   0.164   6.357   8.031  0.6324 -1.6507 -0.8572
  123OSM   H15T13091   0.239   6.521   8.028 -0.3115  0.0593 -0.4680
  123OSM   C16S13092   0.323   6.386   8.185 -0.0017  0.0537  0.2811
  123OSM   H16S13093   0.417   6.445   8.186  0.2853 -0.4021  0.2128
  123OSM   H16T13094   0.348   6.278   8.190 -2.0434 -0.4268  1.1314
  123OSM   C17S13095   0.247   6.425   8.312  0.2759 -0.2122  0.1060
  123OSM   H17S13096   0.224   6.533   8.302  1.0596 -0.0428  0.1399
  123OSM   H17T13097   0.313   6.397   8.397  1.2741  0.3743 -0.4565
  123OSM   C18S13098   0.114   6.345   8.355  0.3445 -0.0092  0.6650
  123OSM   H18S13099   0.075   6.389   8.449  2.5349  0.2155  1.5252
  123OSM   H18T13100   0.145   6.239   8.361  0.0929 -0.2316 -1.2717
  123OSM   H18U13101   0.032   6.345   8.280  1.2408 -0.9088 -0.3404
  123OSM    C1F13102  -0.049   7.020   6.686 -0.5049 -0.3414  0.4438
  123OSM     OF13103  -0.155   6.983   6.636  0.0897 -0.8505  0.6175
  123OSM    C2F13104  -0.038   7.160   6.734  0.0243  0.2254 -0.1047
  123OSM    H2F13105  -0.057   7.232   6.652  0.1487  0.7188  0.3012
  123OSM    H2G13106   0.067   7.177   6.767 -0.1753  1.7126 -0.1890
  123OSM    C3F13107  -0.118   7.185   6.865 -0.0847 -0.1439 -1.2919
  123OSM    H3F13108  -0.222   7.182   6.826 -0.3948 -2.9723 -0.4479
  123OSM    H3G13109  -0.099   7.288   6.903 -0.6441 -0.0455 -1.2624
  123OSM    C4F13110  -0.093   7.089   6.985  0.8469  0.0774 -0.3218
  123OSM    H4F13111  -0.112   6.985   6.951 -1.5795  0.0096  1.0463
  123OSM    H4G13112  -0.170   7.115   7.060  2.2119  1.1052  0.7851
  123OSM    C5F13113   0.046   7.104   7.042 -0.1083  0.4775  0.1390
  123OSM    H5F13114   0.063   7.214   7.052 -0.5871  0.6104 -0.4507
  123OSM    H5G13115   0.130   7.061   6.984  1.9155  1.4900  2.1522
  123OSM    C6F13116   0.052   7.046   7.185 -0.2819  0.2492  0.0637
  123OSM    H6F13117   0.045   6.935   7.190  2.0075  0.1103  2.2611
  123OSM    H6G13118  -0.029   7.103   7.235  0.1535 -0.4791  1.6411
  123OSM    C7F13119   0.182   7.085   7.259 -0.3162 -0.1601 -0.6587
  123OSM    H7F13120   0.200   7.194   7.260  2.4996 -0.5629  0.5037
  123OSM    H7G13121   0.267   7.040   7.205  0.5735 -1.0004  1.3378
  123OSM    C8F13122   0.186   7.026   7.402 -0.4227  0.5788 -0.2794
  123OSM    H8F13123   0.188   6.916   7.389 -0.7631  0.6823 -1.2526
  123OSM    H8G13124   0.087   7.050   7.447  0.1364  2.6646 -0.0773
  123OSM    C9F13125   0.284   7.083   7.497  0.0827 -0.1258 -0.2084
  123OSM    H9F13126   0.308   7.190   7.484  1.5337 -0.3439  0.3922
  123OSM   C10F13127   0.322   7.016   7.608 -0.1768 -0.6175 -0.1994
  123OSM   H10F13128   0.400   7.059   7.672 -1.1175 -0.5393  0.9201
  123OSM   C11F13129   0.274   6.882   7.643 -0.2385 -0.2092  0.0938
  123OSM   H11F13130   0.358   6.816   7.616 -1.6074 -0.7964 -3.1937
  123OSM   H11G13131   0.186   6.844   7.587  0.0706  0.2629 -0.7255
  123OSM   C12F13132   0.246   6.873   7.799 -0.6241 -0.1284 -0.3942
  123OSM   H12F13133   0.322   6.907   7.872 -2.0606  1.1274  0.5724
  123OSM   H12G13134   0.231   6.765   7.820 -0.4538 -0.1644 -0.4593
  123OSM   C13F13135   0.124   6.943   7.837  0.0621 -0.8899  0.0367
  123OSM   H13F13136   0.031   6.913   7.784  0.4628 -1.1830 -0.5000
  123OSM   H13G13137   0.133   7.049   7.802  0.7912 -0.4105  1.5933
  123OSM   C14F13138   0.083   6.923   7.986 -0.1318 -0.2363 -0.9042
  123OSM   H14F13139   0.076   7.029   8.018 -2.3121  0.1378 -2.3900
  123OSM   H14G13140   0.165   6.865   8.034 -0.3941 -0.5629 -0.8481
  123OSM   C15F13141  -0.056   6.857   8.004  0.6065  0.6486  0.7855
  123OSM   H15F13142  -0.120   6.893   7.920  1.9683  1.2395 -0.0503
  123OSM   H15G13143  -0.101   6.888   8.101  0.1326  1.2018  0.3979
  123OSM   C16F13144  -0.041   6.707   8.010  0.7198 -0.1607 -0.3101
  123OSM   H16F13145   0.033   6.670   8.084  2.5984  1.7967 -1.1209
  123OSM   H16G13146  -0.007   6.672   7.909 -0.0587  2.3158 -1.4990
  123OSM   C17F13147  -0.171   6.642   8.051  0.0933 -0.3230  0.0105
  123OSM   H17F13148  -0.203   6.681   8.150 -0.8949  0.6742 -0.6777
  123OSM   H17G13149  -0.156   6.532   8.058  1.8008 -0.0952  0.3086
  123OSM   C18F13150  -0.283   6.657   7.948  0.0652 -0.3030 -0.3171
  123OSM   H18F13151  -0.309   6.764   7.931  0.5371  0.2266  1.9999
  123OSM   H18G13152  -0.367   6.607   8.002 -0.6371 -0.5222 -1.5645
  123OSM   H18H13153  -0.263   6.609   7.850 -1.3109  0.3819 -0.9666
  124OSM      N13154   0.803   2.570   6.083  0.3776  0.4404  0.2881
  124OSM    C1513155   0.785   2.545   5.932 -0.5792 -0.1787 -0.4385
  124OSM   H15A13156   0.859   2.611   5.889 -1.6939  1.4259  0.0603
  124OSM   H15B13157   0.684   2.567   5.902 -0.4944 -0.3811 -0.8834
  124OSM   H15C13158   0.815   2.443   5.910 -0.7456 -0.7082  1.6034
  124OSM    C1413159   0.951   2.548   6.107 -0.0028  0.2736  0.1576
  124OSM   H14A13160   0.964   2.442   6.093 -3.2241 -0.2519  0.2991
  124OSM   H14B13161   0.985   2.565   6.208 -1.0300 -0.4310  0.6423
  124OSM   H14C13162   1.013   2.616   6.051 -2.4650  0.7519 -2.2259
  124OSM    C1313163   0.768   2.706   6.108  0.8271 -0.6615 -0.8132
  124OSM   H13A13164   0.793   2.736   6.209  2.0743  0.2610 -1.3741
  124OSM   H13B13165   0.666   2.733   6.082  0.0273 -0.3142  2.2619
  124OSM   H13C13166   0.832   2.764   6.044  2.2581  0.9103  1.8901
  124OSM    C1213167   0.723   2.468   6.163  0.8515 -0.7717  0.0871
  124OSM   H12A13168   0.753   2.369   6.130  0.6598 -0.4371 -1.1459
  124OSM   H12B13169   0.617   2.464   6.143  0.6948 -1.9088  1.0243
  124OSM    C1113170   0.738   2.474   6.317  0.1824 -0.2249 -0.4340
  124OSM   H11A13171   0.731   2.578   6.356 -0.0125 -1.1349  2.1744
  124OSM   H11B13172   0.841   2.449   6.350 -0.1054 -0.4893  0.2993
  124OSM      P13173   0.661   2.228   6.367  0.4213  0.2771 -0.1552
  124OSM    O1313174   0.613   2.175   6.240  0.3539  0.6371 -0.4917
  124OSM    O1413175   0.801   2.200   6.402 -0.1494  0.0246  0.1365
  124OSM    O1113176   0.561   2.174   6.476 -0.6820 -0.4143  0.0402
  124OSM    O1213177   0.630   2.390   6.364 -0.4041  0.2446  0.6923
  124OSM    C1S13178   0.522   2.261   6.585  0.0322  0.1063 -0.4412
  124OSM    H1S13179   0.424   2.306   6.560 -0.2265 -0.8060 -1.1103
  124OSM    H1T13180   0.600   2.332   6.619 -0.1949 -0.2711  0.9104
  124OSM     NF13181   0.471   2.254   6.815  0.6591 -0.1508  0.2955
  124OSM    HNF13182   0.542   2.271   6.883 -1.1652  2.5098  1.7522
  124OSM    C2S13183   0.504   2.164   6.706 -0.4044  0.2937  0.3910
  124OSM    H2S13184   0.424   2.093   6.675  0.7418 -0.8987  0.0472
  124OSM    C3S13185   0.626   2.075   6.733  0.3181 -0.0896  0.4350
  124OSM    H3S13186   0.705   2.149   6.759  0.0734 -0.0273  1.0007
  124OSM     O313187   0.678   1.988   6.630  0.0708 -0.3905  0.1227
  124OSM    HO313188   0.651   2.025   6.546  2.5851 -1.8100 -1.4265
  124OSM    C4S13189   0.593   1.998   6.860  0.3884 -0.4954 -0.3944
  124OSM    H4S13190   0.502   1.938   6.848 -0.0985  0.3958 -1.2082
  124OSM    C5S13191   0.663   1.991   6.971 -0.1881 -1.1601  0.6017
  124OSM    H5S13192   0.754   2.051   6.988 -0.1892 -1.6836  2.7082
  124OSM    C6S13193   0.626   1.919   7.097 -0.1558 -0.2890  0.2168
  124OSM    H6S13194   0.667   1.971   7.186  2.5314 -0.4653 -0.8302
  124OSM    H6T13195   0.678   1.821   7.090  0.6287  0.2303 -2.1949
  124OSM    C7S13196   0.476   1.908   7.122  0.1058  0.3934  0.0780
  124OSM    H7S13197   0.426   1.871   7.030 -0.7244 -0.3301  0.7978
  124OSM    H7T13198   0.429   2.007   7.139 -1.3981 -0.5132  1.6481
  124OSM    C8S13199   0.427   1.824   7.234 -0.4799  0.1316 -0.1167
  124OSM    H8S13200   0.455   1.719   7.211 -1.6006  0.1140 -1.5686
  124OSM    H8T13201   0.316   1.820   7.245 -0.6605  1.5423 -1.2161
  124OSM    C9S13202   0.475   1.864   7.366  0.9826 -0.0208 -0.1397
  124OSM    H9S13203   0.411   1.948   7.402 -1.3790 -0.7738 -2.3123
  124OSM    H9T13204   0.578   1.905   7.380  0.2958  0.8873  3.3104
  124OSM   C10S13205   0.463   1.740   7.453 -0.2856  0.6493  0.8218
  124OSM   H10S13206   0.530   1.664   7.408 -1.5542 -0.7345  1.2143
  124OSM   H10T13207   0.358   1.703   7.459  0.0526 -0.4966  0.0253
  124OSM   C11S13208   0.494   1.758   7.604 -0.2187  0.3994  0.4588
  124OSM   H11S13209   0.491   1.658   7.650 -2.5072  0.5308  0.6992
  124OSM   H11T13210   0.414   1.824   7.644 -1.6287 -2.4092  2.5589
  124OSM   C12S13211   0.633   1.827   7.629  0.2465  0.4805  0.3634
  124OSM   H12S13212   0.622   1.927   7.582 -0.1586 -0.2995 -1.2997
  124OSM   H12T13213   0.711   1.771   7.573 -0.0952  1.1119 -0.7712
  124OSM   C13S13214   0.674   1.836   7.773  0.5016 -0.0095  0.4136
  124OSM   H13S13215   0.756   1.910   7.784  1.2742 -0.8933  0.8146
  124OSM   H13T13216   0.725   1.744   7.808  0.0954  0.5451  2.5818
  124OSM   C14S13217   0.566   1.867   7.875  0.6324 -0.4040 -0.0910
  124OSM   H14S13218   0.497   1.780   7.886  0.8072 -0.4933  0.3103
  124OSM   H14T13219   0.499   1.950   7.844 -0.6724 -2.0656 -1.9923
  124OSM   C15S13220   0.627   1.901   8.014 -0.1359  0.5416  0.3761
  124OSM   H15S13221   0.613   2.009   8.036  0.6814  0.9879 -1.1372
  124OSM   H15T13222   0.736   1.879   8.017  0.0132  0.6563 -2.1528
  124OSM   C16S13223   0.559   1.821   8.126  0.6580  0.2469  0.6023
  124OSM   H16S13224   0.573   1.714   8.101 -0.3123 -0.4849  2.9346
  124OSM   H16T13225   0.451   1.844   8.125  0.2567 -1.4518  1.2795
  124OSM   C17S13226   0.615   1.835   8.264  0.3462 -0.3931  0.4048
  124OSM   H17S13227   0.557   1.766   8.330  0.9934 -2.7010 -1.3221
  124OSM   H17T13228   0.588   1.939   8.294 -0.1616 -0.2525 -0.4962
  124OSM   C18S13229   0.765   1.793   8.270 -0.2952  0.5372  0.0417
  124OSM   H18S13230   0.794   1.782   8.377 -0.9194 -0.8571  0.1028
  124OSM   H18T13231   0.825   1.873   8.224  0.8327 -0.3509 -0.0692
  124OSM   H18U13232   0.795   1.703   8.212  0.3488  1.2836 -0.8006
  124OSM    C1F13233   0.350   2.314   6.828  0.4821 -0.3003  0.2930
  124OSM     OF13234   0.263   2.289   6.742 -0.1214  0.2368  0.6235
  124OSM    C2F13235   0.318   2.384   6.953 -0.3360  0.3894  0.4711
  124OSM    H2F13236   0.217   2.350   6.984 -0.7480 -0.3334 -1.5332
  124OSM    H2G13237   0.315   2.494   6.935  0.4668  0.2433 -0.6348
  124OSM    C3F13238   0.421   2.359   7.070  0.4033 -0.9777 -0.2552
  124OSM    H3F13239   0.518   2.403   7.042 -1.1274  2.0873 -1.1369
  124OSM    H3G13240   0.424   2.249   7.085  2.3127 -0.9709 -0.3874
  124OSM    C4F13241   0.387   2.424   7.208 -0.6492 -0.1191 -0.1166
  124OSM    H4F13242   0.300   2.372   7.254 -0.7375 -0.7134 -0.9213
  124OSM    H4G13243   0.362   2.532   7.195  2.0625  0.7972  1.5214
  124OSM    C5F13244   0.504   2.412   7.316  0.5521 -0.3869  0.2503
  124OSM    H5F13245   0.550   2.511   7.333 -0.7901  0.0763  1.3815
  124OSM    H5G13246   0.578   2.333   7.289 -0.8138 -1.7875  0.4193
  124OSM    C6F13247   0.437   2.355   7.446 -0.9440  0.0305  0.0024
  124OSM    H6F13248   0.409   2.255   7.407  2.6653 -0.6036 -1.4353
  124OSM    H6G13249   0.347   2.418   7.464 -0.1009  0.8618  1.5056
  124OSM    C7F13250   0.529   2.327   7.565  0.3734 -0.2483 -0.2414
  124OSM    H7F13251   0.589   2.410   7.607 -1.2090  0.7582  0.1512
  124OSM    H7G13252   0.612   2.262   7.530  0.3163 -0.8278  0.6730
  124OSM    C8F13253   0.467   2.249   7.682 -0.6575 -0.3123  0.7142
  124OSM    H8F13254   0.548   2.224   7.753 -0.1830 -0.0273  0.2843
  124OSM    H8G13255   0.428   2.154   7.639  0.4087 -1.7990  2.8579
  124OSM    C9F13256   0.362   2.339   7.735  0.2927 -0.5471 -0.5463
  124OSM    H9F13257   0.278   2.370   7.670  0.5302  0.2723 -0.4603
  124OSM   C10F13258   0.356   2.389   7.861 -0.9244  0.6798  0.3853
  124OSM   H10F13259   0.259   2.430   7.891 -1.3313 -0.1405  0.2390
  124OSM   C11F13260   0.447   2.347   7.978 -0.1731 -0.5450  0.4479
  124OSM   H11F13261   0.455   2.430   8.052 -2.9847 -0.1820  0.4635
  124OSM   H11G13262   0.547   2.326   7.934  0.8662  0.3552  2.2439
  124OSM   C12F13263   0.396   2.230   8.059 -0.2918 -0.0591 -0.5195
  124OSM   H12F13264   0.477   2.198   8.129 -0.2807 -0.4498 -0.7057
  124OSM   H12G13265   0.385   2.138   7.997 -0.7296 -1.2313  1.2300
  124OSM   C13F13266   0.272   2.256   8.148 -0.0344 -0.6395  0.0268
  124OSM   H13F13267   0.245   2.150   8.167  1.7327 -1.5492 -2.0223
  124OSM   H13G13268   0.198   2.300   8.079  1.9915  1.1609 -1.1210
  124OSM   C14F13269   0.287   2.347   8.278 -0.1657  0.0927  1.1491
  124OSM   H14F13270   0.346   2.440   8.260 -0.9519  0.7777  2.0092
  124OSM   H14G13271   0.340   2.288   8.356  0.2944 -0.3319  0.5249
  124OSM   C15F13272   0.145   2.396   8.322  0.0898 -0.2040  0.2456
  124OSM   H15F13273   0.107   2.481   8.261  0.3506 -0.4327 -0.2448
  124OSM   H15G13274   0.163   2.422   8.428  0.5733 -1.4798  0.4920
  124OSM   C16F13275   0.041   2.278   8.324  0.4275 -0.0773 -0.3338
  124OSM   H16F13276   0.042   2.215   8.416  0.5812 -0.4662 -0.5957
  124OSM   H16G13277   0.052   2.201   8.244  0.4850  0.2917 -0.6855
  124OSM   C17F13278  -0.103   2.334   8.334  0.4261 -0.1216  0.5177
  124OSM   H17F13279  -0.181   2.254   8.336 -1.6789  1.6961 -2.0825
  124OSM   H17G13280  -0.125   2.366   8.230  0.5169 -0.5240  0.3732
  124OSM   C18F13281  -0.136   2.434   8.440  0.1937  0.5085 -0.4061
  124OSM   H18F13282  -0.059   2.515   8.440  1.4246 -0.5773  1.7753
  124OSM   H18G13283  -0.126   2.386   8.539 -0.1390  2.5972  0.7056
  124OSM   H18H13284  -0.237   2.475   8.422 -1.2675 -1.6967  2.1097
  125OSM      N13285   3.905   3.702   6.316  0.4167 -0.6691  0.3593
  125OSM    C1513286   3.981   3.820   6.257  0.3957  0.1016  0.2641
  125OSM   H15A13287   4.089   3.810   6.264  0.4671  0.9299  0.4595
  125OSM   H15B13288   3.948   3.915   6.295 -0.3893  0.3918 -1.0973
  125OSM   H15C13289   3.953   3.812   6.153 -0.5153  0.8265  0.4470
  125OSM    C1413290   3.903   3.598   6.210 -0.5854 -0.2986  0.0201
  125OSM   H14A13291   3.881   3.500   6.251  0.6948  0.3289  2.4159
  125OSM   H14B13292   4.001   3.583   6.167 -0.6222 -0.2737 -0.0722
  125OSM   H14C13293   3.838   3.608   6.125  0.6767 -0.6293 -1.0324
  125OSM    C1313294   3.985   3.665   6.429 -0.0590  0.2690 -0.0535
  125OSM   H13A13295   4.084   3.629   6.408 -0.2705 -1.0830  1.0667
  125OSM   H13B13296   3.938   3.586   6.486  0.3385 -0.8939 -1.3061
  125OSM   H13C13297   4.000   3.753   6.490  0.0747  0.2571 -0.0701
  125OSM    C1213298   3.758   3.745   6.354 -0.6727  0.0537 -0.3699
  125OSM   H12A13299   3.695   3.749   6.266 -0.5519  1.8613 -0.4247
  125OSM   H12B13300   3.754   3.839   6.407  1.1267  0.9179 -1.6777
  125OSM    C1113301   3.684   3.645   6.453 -0.0384  0.0685  0.1250
  125OSM   H11A13302   3.580   3.678   6.471  0.5550  1.2078  1.7643
  125OSM   H11B13303   3.727   3.649   6.555 -0.0741 -2.4995  0.3077
  125OSM      P13304   3.604   3.436   6.318 -0.1560 -0.1970 -0.1029
  125OSM    O1313305   3.522   3.532   6.247 -0.3003 -0.0375 -0.9058
  125OSM    O1413306   3.687   3.338   6.238 -0.3233  0.1099  0.3712
  125OSM    O1113307   3.501   3.362   6.403 -0.2136  0.1228  0.2011
  125OSM    O1213308   3.692   3.505   6.425 -0.0314 -0.1968  0.2901
  125OSM    C1S13309   3.534   3.304   6.533 -0.4798 -0.2270  0.0844
  125OSM    H1S13310   3.640   3.272   6.532  0.0611  1.4652  0.0965
  125OSM    H1T13311   3.462   3.220   6.543 -1.7540  0.7219 -0.8608
  125OSM     NF13312   3.513   3.309   6.775 -0.0361 -0.2270 -0.0567
  125OSM    HNF13313   3.430   3.272   6.815 -0.6964  1.9098  0.7378
  125OSM    C2S13314   3.503   3.392   6.659 -0.5942  0.5405  0.5875
  125OSM    H2S13315   3.583   3.468   6.660  0.6076 -0.6690  0.0189
  125OSM    C3S13316   3.368   3.470   6.650 -1.0003 -0.5958  0.0044
  125OSM    H3S13317   3.291   3.396   6.618 -1.5689  0.9185 -2.3695
  125OSM     O313318   3.367   3.578   6.557 -0.5083 -0.9092 -0.0403
  125OSM    HO313319   3.447   3.575   6.505  1.9377  1.7282  3.1185
  125OSM    C4S13320   3.324   3.531   6.778 -0.4669  0.1139  0.2735
  125OSM    H4S13321   3.373   3.629   6.791 -1.7201  0.7200  0.4893
  125OSM    C5S13322   3.225   3.497   6.862  0.2105  0.1187 -0.3864
  125OSM    H5S13323   3.173   3.403   6.838  2.6719 -1.4762  0.2202
  125OSM    C6S13324   3.188   3.567   6.984 -0.5172  0.5296 -0.0482
  125OSM    H6S13325   3.081   3.568   7.013 -0.9751 -1.4990 -1.4374
  125OSM    H6T13326   3.230   3.668   7.000 -1.0563  0.7771 -0.1853
  125OSM    C7S13327   3.265   3.484   7.090  0.3229 -0.1000 -0.7702
  125OSM    H7S13328   3.374   3.471   7.073  0.4998 -0.2726  0.4451
  125OSM    H7T13329   3.224   3.381   7.089  2.1399 -0.9391  1.7599
  125OSM    C8S13330   3.258   3.540   7.235  0.1840  0.5622 -0.3344
  125OSM    H8S13331   3.156   3.535   7.277  0.4133  0.1427  0.1889
  125OSM    H8T13332   3.281   3.649   7.234 -1.1184  0.8488 -0.5774
  125OSM    C9S13333   3.352   3.455   7.329 -0.3921 -0.2849 -0.9507
  125OSM    H9S13334   3.449   3.437   7.279 -0.8052 -0.7155 -1.6060
  125OSM    H9T13335   3.306   3.355   7.320  0.2532 -0.6771 -0.0602
  125OSM   C10S13336   3.353   3.498   7.479  0.1554  0.1370  0.2788
  125OSM   H10S13337   3.403   3.597   7.483 -0.7432  0.7309 -1.8658
  125OSM   H10T13338   3.409   3.423   7.539 -0.1306  0.4284  0.9184
  125OSM   C11S13339   3.215   3.509   7.532 -0.1228  0.1583 -0.0547
  125OSM   H11S13340   3.169   3.410   7.510  0.5111 -0.3581  0.8723
  125OSM   H11T13341   3.153   3.594   7.496  0.6300  1.0484  0.7100
  125OSM   C12S13342   3.222   3.538   7.685  0.2840  0.3543  0.0634
  125OSM   H12S13343   3.123   3.577   7.716  0.7345  0.9446  0.7939
  125OSM   H12T13344   3.289   3.624   7.707 -1.3487  1.2639  1.7261
  125OSM   C13S13345   3.243   3.411   7.774 -0.0301 -1.0502 -0.1030
  125OSM   H13S13346   3.352   3.392   7.765  0.3963  1.5294 -1.3681
  125OSM   H13T13347   3.177   3.326   7.747  0.9148 -1.3674 -1.4901
  125OSM   C14S13348   3.211   3.430   7.925 -0.2188  0.0270 -0.1794
  125OSM   H14S13349   3.225   3.340   7.988  0.5546 -0.3978 -0.9283
  125OSM   H14T13350   3.103   3.456   7.926  0.4660  3.4354  1.7319
  125OSM   C15S13351   3.299   3.531   8.005  0.3810  0.1771  0.0456
  125OSM   H15S13352   3.296   3.633   7.962 -1.9898  0.3450  0.4794
  125OSM   H15T13353   3.403   3.494   7.993 -0.5892 -2.0555 -2.2547
  125OSM   C16S13354   3.258   3.540   8.154  0.3185 -0.3266 -0.4408
  125OSM   H16S13355   3.147   3.537   8.153  0.3335 -2.1512 -0.8908
  125OSM   H16T13356   3.285   3.639   8.195 -1.7472  0.6074 -1.2189
  125OSM   C17S13357   3.323   3.435   8.246 -0.2355 -0.0531  0.1547
  125OSM   H17S13358   3.431   3.457   8.240 -0.5672  1.8800  0.6919
  125OSM   H17T13359   3.300   3.331   8.214  2.8523 -0.9519  0.5378
  125OSM   C18S13360   3.271   3.433   8.391  0.0517 -0.0570  0.3346
  125OSM   H18S13361   3.160   3.436   8.389  0.0521  0.4708  0.9203
  125OSM   H18T13362   3.308   3.523   8.444  0.7641 -0.6553  0.8885
  125OSM   H18U13363   3.306   3.346   8.451  0.8457 -0.4508 -0.6535
  125OSM    C1F13364   3.621   3.268   6.829  0.2420  0.3239  0.1829
  125OSM     OF13365   3.733   3.293   6.771 -0.2777 -0.5726 -0.7168
  125OSM    C2F13366   3.608   3.193   6.961 -0.0441  1.1259 -0.6124
  125OSM    H2F13367   3.612   3.084   6.940 -4.2326  0.7179 -0.2240
  125OSM    H2G13368   3.509   3.218   7.006 -0.4312  1.1518 -1.4547
  125OSM    C3F13369   3.728   3.222   7.050 -0.4075  0.2709 -0.4946
  125OSM    H3F13370   3.738   3.331   7.071 -0.3074  0.0205  0.8628
  125OSM    H3G13371   3.824   3.198   7.000 -0.6251 -2.4160  0.2333
  125OSM    C4F13372   3.716   3.153   7.183 -0.0590 -0.3048  0.0045
  125OSM    H4F13373   3.722   3.043   7.175 -3.9477 -0.8551  2.1977
  125OSM    H4G13374   3.618   3.174   7.230  0.5924  0.0692  1.2410
  125OSM    C5F13375   3.822   3.201   7.288  0.0328 -0.3371  0.3382
  125OSM    H5F13376   3.927   3.219   7.256  0.1411 -0.6091  0.5243
  125OSM    H5G13377   3.834   3.107   7.347  1.7180 -0.3088  0.0866
  125OSM    C6F13378   3.769   3.316   7.368 -0.4152  0.0658 -0.2697
  125OSM    H6F13379   3.668   3.285   7.404 -1.6301  1.6909 -2.0639
  125OSM    H6G13380   3.745   3.403   7.303 -0.6135  0.2400  0.0314
  125OSM    C7F13381   3.848   3.372   7.481  0.3335 -0.0664 -0.2513
  125OSM    H7F13382   3.821   3.477   7.506  1.9887  0.0159  1.4657
  125OSM    H7G13383   3.955   3.366   7.450 -0.0531 -0.9945 -1.4938
  125OSM    C8F13384   3.824   3.301   7.618  0.2922 -0.4420 -0.0656
  125OSM    H8F13385   3.904   3.333   7.689 -0.3498  0.2325  0.3666
  125OSM    H8G13386   3.841   3.193   7.596  0.7648 -0.1587 -1.1672
  125OSM    C9F13387   3.687   3.315   7.670  1.0568  0.1580  0.1063
  125OSM    H9F13388   3.629   3.398   7.627 -1.7621 -1.0968  1.1787
  125OSM   C10F13389   3.626   3.235   7.762 -0.3533  0.1766 -0.5078
  125OSM   H10F13390   3.520   3.253   7.784 -0.7300 -1.5666 -0.8011
  125OSM   C11F13391   3.700   3.118   7.829 -0.2941 -0.8975  0.5566
  125OSM   H11F13392   3.801   3.102   7.788 -0.2486  2.6830 -1.0306
  125OSM   H11G13393   3.653   3.019   7.808  2.0429 -1.7841 -0.8722
  125OSM   C12F13394   3.706   3.146   7.980 -0.7751 -0.6636  0.0803
  125OSM   H12F13395   3.759   3.242   8.001 -0.8731 -0.0426 -2.2182
  125OSM   H12G13396   3.773   3.061   8.004  0.0180 -0.4773 -1.3732
  125OSM   C13F13397   3.573   3.128   8.045 -0.6385  0.7112 -0.8760
  125OSM   H13F13398   3.517   3.056   7.982 -1.7212 -0.7429  1.6143
  125OSM   H13G13399   3.526   3.229   8.047  2.0919  2.0895 -0.7300
  125OSM   C14F13400   3.584   3.081   8.186  0.5942  0.2879 -0.2102
  125OSM   H14F13401   3.595   2.970   8.183  1.1787  0.3080  0.6090
  125OSM   H14G13402   3.482   3.098   8.226  1.5261  1.7013  1.7433
  125OSM   C15F13403   3.669   3.167   8.280 -0.3848  0.1395 -0.1770
  125OSM   H15F13404   3.626   3.269   8.269 -2.4013 -0.5907  0.4928
  125OSM   H15G13405   3.776   3.167   8.250 -0.5663  0.0159 -0.8405
  125OSM   C16F13406   3.649   3.127   8.428  0.1181  0.0592  0.1289
  125OSM   H16F13407   3.748   3.145   8.475 -0.8675  0.1057  2.3455
  125OSM   H16G13408   3.621   3.020   8.440 -0.6238  0.3660  1.4070
  125OSM   C17F13409   3.556   3.211   8.509 -0.3204 -0.2340  0.2201
  125OSM   H17F13410   3.539   3.166   8.609 -0.4372 -0.6901 -0.0028
  125OSM   H17G13411   3.459   3.220   8.455 -0.1788 -0.6413 -0.1052
  125OSM   C18F13412   3.606   3.346   8.537 -0.4168  0.1457  0.0548
  125OSM   H18F13413   3.536   3.392   8.610 -1.0098 -0.4961 -0.0897
  125OSM   H18G13414   3.624   3.402   8.443  0.5922 -0.4559 -0.1226
  125OSM   H18H13415   3.705   3.338   8.587 -0.4279 -2.3043 -0.1880
  126OSM      N13416   2.319   3.232   6.358 -0.8133 -0.3467 -0.1887
  126OSM    C1513417   2.327   3.102   6.436  0.5753 -0.2521  0.9771
  126OSM   H15A13418   2.231   3.054   6.425 -0.3155  1.7098 -0.4057
  126OSM   H15B13419   2.341   3.116   6.542  0.1279  1.0716  0.8784
  126OSM   H15C13420   2.397   3.037   6.387 -1.8864 -0.7217 -2.2715
  126OSM    C1413421   2.462   3.288   6.348  0.6164  0.0322  0.4924
  126OSM   H14A13422   2.526   3.217   6.297  0.4945 -0.3137  0.8157
  126OSM   H14B13423   2.493   3.301   6.450  1.0893  0.3421  0.3092
  126OSM   H14C13424   2.471   3.384   6.301  0.7822 -0.4702 -0.5419
  126OSM    C1313425   2.280   3.213   6.219 -0.1197 -0.1212  0.7707
  126OSM   H13A13426   2.360   3.166   6.165 -0.1288 -1.2609  1.7092
  126OSM   H13B13427   2.259   3.302   6.162 -0.2571 -0.9929 -0.5876
  126OSM   H13C13428   2.198   3.145   6.202 -0.8881  1.2283 -1.2600
  126OSM    C1213429   2.232   3.343   6.418  0.4613 -0.5462  0.1658
  126OSM   H12A13430   2.252   3.437   6.368 -1.3762 -0.7530 -1.0553
  126OSM   H12B13431   2.260   3.368   6.519  1.2624  0.0212 -0.1865
  126OSM    C1113432   2.075   3.329   6.410 -0.6923  0.6240 -0.5961
  126OSM   H11A13433   2.036   3.314   6.306 -0.4267  0.7571 -0.7159
  126OSM   H11B13434   2.032   3.425   6.446  2.1640  2.0671 -0.7313
  126OSM      P13435   1.923   3.122   6.453  0.4634  0.5049  0.3438
  126OSM    O1313436   1.818   3.197   6.384 -0.3046 -0.1994 -0.3355
  126OSM    O1413437   1.982   3.018   6.371 -0.5184 -0.0100  0.2590
  126OSM    O1113438   1.860   3.060   6.587 -0.0870 -0.2056  0.0917
  126OSM    O1213439   2.035   3.219   6.494 -0.1614 -0.2329 -0.7288
  126OSM    C1S13440   1.898   3.089   6.718 -0.2494  0.0806 -0.5652
  126OSM    H1S13441   1.977   3.167   6.726  0.4392 -0.4547 -1.8997
  126OSM    H1T13442   1.933   2.995   6.766 -2.3682 -1.0209 -1.0278
  126OSM     NF13443   1.841   3.159   6.944 -0.3628 -0.2234  0.5175
  126OSM    HNF13444   1.837   3.090   7.016  0.3429  0.9334  1.7134
  126OSM    C2S13445   1.778   3.137   6.811  0.6648  0.0402 -0.2883
  126OSM    H2S13446   1.732   3.226   6.764 -0.3967 -1.6201 -2.5672
  126OSM    C3S13447   1.665   3.030   6.818  0.5885  0.2357 -0.1319
  126OSM    H3S13448   1.712   2.937   6.856  0.2841  1.4775  3.7468
  126OSM     O313449   1.610   3.007   6.690  0.7607 -0.0794 -0.1912
  126OSM    HO313450   1.655   3.068   6.630  1.0644  0.2181  0.3319
  126OSM    C4S13451   1.558   3.045   6.918  0.0253  0.1290  0.2671
  126OSM    H4S13452   1.570   2.987   7.011 -0.9700  0.0702  0.3732
  126OSM    C5S13453   1.442   3.105   6.909 -0.6733  0.0923  0.7017
  126OSM    H5S13454   1.420   3.153   6.813 -0.0626 -1.3941 -0.2121
  126OSM    C6S13455   1.342   3.121   7.023 -0.2808 -0.1385 -0.0707
  126OSM    H6S13456   1.245   3.082   6.984  0.8337 -0.2147 -3.0883
  126OSM    H6T13457   1.314   3.228   7.029  0.6491  0.2028 -1.3756
  126OSM    C7S13458   1.372   3.065   7.160  0.0839 -0.5498  0.1369
  126OSM    H7S13459   1.466   3.120   7.184 -0.1521  0.3924 -0.9900
  126OSM    H7T13460   1.386   2.956   7.151  0.8524 -0.3566 -1.1472
  126OSM    C8S13461   1.279   3.105   7.274 -0.0632 -0.0839 -0.6065
  126OSM    H8S13462   1.173   3.079   7.254 -0.5618  0.1207  1.5803
  126OSM    H8T13463   1.277   3.215   7.290  1.7978 -0.1878  0.7195
  126OSM    C9S13464   1.307   3.035   7.404  0.6944  0.4350 -0.4590
  126OSM    H9S13465   1.409   3.063   7.436  2.9129 -2.4092 -4.2396
  126OSM    H9T13466   1.305   2.925   7.391 -0.0048  0.3085  0.6259
  126OSM   C10S13467   1.218   3.082   7.513 -0.4222 -0.3166 -0.5934
  126OSM   H10S13468   1.116   3.095   7.472 -1.2771 -2.1211  0.8774
  126OSM   H10T13469   1.247   3.185   7.544  3.3491 -2.2293  3.1171
  126OSM   C11S13470   1.217   2.989   7.634  0.0802  0.1867  0.1130
  126OSM   H11S13471   1.321   2.958   7.657  0.3630  0.1908 -1.1274
  126OSM   H11T13472   1.156   2.897   7.621  1.8588 -1.0837  0.4202
  126OSM   C12S13473   1.157   3.049   7.764  0.2648 -0.0930  0.4393
  126OSM   H12S13474   1.049   3.072   7.752  0.9823  3.2517 -0.9545
  126OSM   H12T13475   1.206   3.149   7.756 -0.1203 -0.0184 -1.2434
  126OSM   C13S13476   1.182   2.984   7.901 -0.8579  0.3909  1.0728
  126OSM   H13S13477   1.293   2.972   7.908 -0.5760  2.3948  0.6760
  126OSM   H13T13478   1.136   2.883   7.894 -1.6314  0.5086  3.5073
  126OSM   C14S13479   1.110   3.040   8.020 -0.3117 -1.1007  0.1838
  126OSM   H14S13480   1.003   3.053   7.992  0.3978 -1.1940 -2.8442
  126OSM   H14T13481   1.147   3.140   8.051 -0.4166 -0.7880 -0.6845
  126OSM   C15S13482   1.128   2.942   8.136  0.2579 -0.0074  0.5619
  126OSM   H15S13483   1.233   2.942   8.170  0.8002 -3.1634 -0.7674
  126OSM   H15T13484   1.093   2.841   8.104 -0.6416  1.1637 -2.4572
  126OSM   C16S13485   1.052   2.987   8.264  0.0834 -0.6581  0.1435
  126OSM   H16S13486   0.946   2.984   8.232  0.3411 -1.2911 -0.7081
  126OSM   H16T13487   1.068   3.089   8.305  1.6465 -1.3628  1.4330
  126OSM   C17S13488   1.070   2.883   8.373 -0.5725 -0.2234  0.7477
  126OSM   H17S13489   1.177   2.871   8.399 -0.9227  0.9152  3.0222
  126OSM   H17T13490   1.044   2.780   8.339 -0.2048  0.2325 -1.0196
  126OSM   C18S13491   0.980   2.916   8.495 -0.4100 -0.0694 -0.7092
  126OSM   H18S13492   1.031   2.968   8.579  1.1182 -1.8957 -0.4202
  126OSM   H18T13493   0.948   2.823   8.548  1.7716 -0.8295 -0.6303
  126OSM   H18U13494   0.889   2.968   8.458  0.2390  2.0569  0.5003
  126OSM    C1F13495   1.921   3.262   6.964 -0.1412 -0.0961  0.3280
  126OSM     OF13496   1.933   3.338   6.871 -0.2382  0.6157 -0.0556
  126OSM    C2F13497   1.993   3.276   7.096  0.2548 -0.1098  1.4857
  126OSM    H2F13498   2.087   3.218   7.082 -0.6437 -1.1999 -0.4063
  126OSM    H2G13499   1.924   3.214   7.156 -1.2763 -2.1473 -2.0163
  126OSM    C3F13500   2.027   3.422   7.131  0.9409  0.3456 -0.1426
  126OSM    H3F13501   1.926   3.463   7.153  0.8023 -1.3736  3.0494
  126OSM    H3G13502   2.072   3.475   7.044 -0.6272 -3.0350 -3.2526
  126OSM    C4F13503   2.121   3.437   7.253 -1.0333 -0.1327  0.2022
  126OSM    H4F13504   2.099   3.533   7.304  1.6932  1.1624 -0.8957
  126OSM    H4G13505   2.224   3.446   7.213 -1.4783 -0.7450 -1.1728
  126OSM    C5F13506   2.103   3.328   7.360 -0.4395 -0.1612  0.6952
  126OSM    H5F13507   2.140   3.234   7.315  1.8202  1.1210 -0.3242
  126OSM    H5G13508   1.995   3.322   7.385 -0.6085  0.5767  0.1694
  126OSM    C6F13509   2.189   3.343   7.480  0.0793  0.0778 -0.1959
  126OSM    H6F13510   2.175   3.445   7.520  1.4897 -0.2457  1.2439
  126OSM    H6G13511   2.294   3.327   7.446  0.1735 -1.0094  0.5554
  126OSM    C7F13512   2.149   3.240   7.588  0.3615  0.2293  0.5807
  126OSM    H7F13513   2.153   3.137   7.546 -3.4143  0.0333  0.3097
  126OSM    H7G13514   2.041   3.252   7.614 -0.0364 -0.6704 -0.5719
  126OSM    C8F13515   2.239   3.250   7.707  0.4029  0.0028 -0.2036
  126OSM    H8F13516   2.345   3.272   7.679  0.6037  0.2262  0.7069
  126OSM    H8G13517   2.239   3.150   7.756  0.8476 -0.8086 -1.7866
  126OSM    C9F13518   2.189   3.362   7.797  0.4520  0.0135 -0.1941
  126OSM    H9F13519   2.117   3.428   7.746 -1.8051 -2.2162 -0.1059
  126OSM   C10F13520   2.202   3.373   7.929  0.2858  0.3352  0.6133
  126OSM   H10F13521   2.175   3.467   7.980  1.9473 -0.1075  2.4163
  126OSM   C11F13522   2.286   3.280   8.014  0.2631 -0.9613 -0.0095
  126OSM   H11F13523   2.379   3.250   7.961  0.4664 -1.8954  0.8428
  126OSM   H11G13524   2.236   3.185   8.041 -2.7162  0.4487 -0.1790
  126OSM   C12F13525   2.312   3.354   8.146  1.0548 -0.7443 -0.0623
  126OSM   H12F13526   2.362   3.282   8.214  0.4311  1.0144  2.3955
  126OSM   H12G13527   2.218   3.370   8.204  0.7262 -0.9238 -0.5367
  126OSM   C13F13528   2.400   3.481   8.149 -0.5738  0.4384  0.0544
  126OSM   H13F13529   2.348   3.572   8.113  1.5603  2.1210  1.0131
  126OSM   H13G13530   2.482   3.448   8.081 -0.0313  1.7955  0.0304
  126OSM   C14F13531   2.464   3.529   8.277 -0.0106 -0.4328  0.3135
  126OSM   H14F13532   2.405   3.608   8.328 -0.0975 -1.1388  1.3443
  126OSM   H14G13533   2.556   3.583   8.246 -1.2316  2.0994  0.8286
  126OSM   C15F13534   2.505   3.417   8.373 -0.0816  0.7456 -1.0459
  126OSM   H15F13535   2.551   3.348   8.300  0.3143  0.6502 -0.7056
  126OSM   H15G13536   2.424   3.360   8.423  0.9877 -0.4939 -0.6934
  126OSM   C16F13537   2.612   3.452   8.475  0.4218  0.1085  0.3679
  126OSM   H16F13538   2.690   3.515   8.427  0.4564  0.5031  0.9252
  126OSM   H16G13539   2.654   3.363   8.527  1.7846  1.6976  2.1601
  126OSM   C17F13540   2.551   3.540   8.580  0.4034  0.0251 -0.6540
  126OSM   H17F13541   2.452   3.495   8.604  0.6382 -0.0216  0.2543
  126OSM   H17G13542   2.538   3.643   8.540  1.2448  0.1965 -0.5064
  126OSM   C18F13543   2.635   3.549   8.700  0.6090  0.3452  0.0004
  126OSM   H18F13544   2.663   3.447   8.732  1.3963  0.5532 -0.0011
  126OSM   H18G13545   2.566   3.587   8.778 -0.0958 -0.1156 -0.3917
  126OSM   H18H13546   2.723   3.615   8.683 -0.0438  1.3410  0.3674
  127OSM      N13547   1.937   1.150   6.079 -0.2438 -0.2639 -0.2459
  127OSM    C1513548   2.048   1.238   6.027 -0.0775 -0.5969  0.0840
  127OSM   H15A13549   2.030   1.342   6.050 -1.7108 -1.2214  1.8420
  127OSM   H15B13550   2.058   1.232   5.920 -0.4364 -0.1543  0.0263
  127OSM   H15C13551   2.139   1.222   6.084  0.4326  3.5774  0.7442
  127OSM    C1413552   1.971   1.001   6.056 -0.0189 -0.4153  0.6328
  127OSM   H14A13553   1.902   0.936   6.108  0.4586  0.7435  2.8887
  127OSM   H14B13554   2.075   0.989   6.084  1.4851  1.7946 -3.2196
  127OSM   H14C13555   1.973   0.989   5.949 -2.5250  2.1215  0.1734
  127OSM    C1313556   1.929   1.178   6.220 -0.4074 -0.0326 -0.2769
  127OSM   H13A13557   1.851   1.119   6.266 -0.5476  1.0206  0.8799
  127OSM   H13B13558   1.915   1.283   6.240 -0.0751  0.2984 -1.6812
  127OSM   H13C13559   2.017   1.142   6.272  0.0379 -0.0980 -1.0584
  127OSM    C1213560   1.810   1.191   6.016 -0.7820 -0.9860  0.1331
  127OSM   H12A13561   1.831   1.180   5.911  0.9982 -0.2102  0.3751
  127OSM   H12B13562   1.796   1.296   6.035 -0.8109 -0.8270 -0.7296
  127OSM    C1113563   1.680   1.112   6.036  0.0318 -0.0312  0.3062
  127OSM   H11A13564   1.703   1.007   6.009 -0.5079  0.3399 -1.6996
  127OSM   H11B13565   1.611   1.147   5.957  0.4351 -0.1415 -0.1000
  127OSM      P13566   1.545   1.248   6.210  0.1571 -0.1388  0.1901
  127OSM    O1313567   1.640   1.350   6.255 -0.3689 -0.2856 -0.0815
  127OSM    O1413568   1.441   1.288   6.113 -0.1596 -0.4232  0.4148
  127OSM    O1113569   1.474   1.192   6.331  0.1164 -0.2571 -0.3697
  127OSM    O1213570   1.627   1.124   6.163  0.2960  0.1730 -0.8211
  127OSM    C1S13571   1.526   1.171   6.459  0.1958  0.7043 -0.1208
  127OSM    H1S13572   1.632   1.204   6.462  0.4402 -0.1373  1.1688
  127OSM    H1T13573   1.521   1.062   6.480  1.3896  0.8101  0.8389
  127OSM     NF13574   1.507   1.252   6.704 -0.4214  0.6224 -0.1529
  127OSM    HNF13575   1.455   1.204   6.775 -2.3248  0.5704 -1.5238
  127OSM    C2S13576   1.445   1.253   6.568  0.1846 -0.4500 -0.0445
  127OSM    H2S13577   1.447   1.358   6.534 -1.6403 -0.2257  0.4503
  127OSM    C3S13578   1.298   1.205   6.574 -0.5423  0.2288 -0.1942
  127OSM    H3S13579   1.304   1.096   6.595  2.3321  0.7749  2.5054
  127OSM     O313580   1.226   1.225   6.449 -0.6170 -0.1103 -0.1273
  127OSM    HO313581   1.299   1.251   6.392 -0.0115 -3.0557 -0.8654
  127OSM    C4S13582   1.234   1.274   6.691 -0.5080 -0.2993 -0.6253
  127OSM    H4S13583   1.248   1.383   6.698 -3.5295  0.0977  0.5035
  127OSM    C5S13584   1.159   1.216   6.787  0.0060 -0.1151 -0.4285
  127OSM    H5S13585   1.120   1.113   6.779 -3.5088  1.0456 -0.2686
  127OSM    C6S13586   1.096   1.279   6.904  0.0767 -0.4168 -0.3614
  127OSM    H6S13587   0.993   1.241   6.920 -0.5580  0.4199 -2.2047
  127OSM    H6T13588   1.080   1.389   6.891  1.0101 -0.1857  0.3576
  127OSM    C7S13589   1.189   1.266   7.023  0.6000 -0.3043 -0.3631
  127OSM    H7S13590   1.283   1.322   7.007 -0.0829  0.6498 -1.1729
  127OSM    H7T13591   1.203   1.158   7.044 -0.1364 -0.2167  0.6787
  127OSM    C8S13592   1.125   1.315   7.159  0.0026  0.0807 -0.2539
  127OSM    H8S13593   1.015   1.304   7.154 -0.1432 -0.9010  3.0548
  127OSM    H8T13594   1.141   1.425   7.173  2.4403 -0.0717 -1.3017
  127OSM    C9S13595   1.193   1.238   7.279 -0.3398  0.2134  0.2102
  127OSM    H9S13596   1.300   1.267   7.268 -0.8348  2.4921  0.8003
  127OSM    H9T13597   1.167   1.132   7.262 -0.3058  0.2373  0.0128
  127OSM   C10S13598   1.136   1.292   7.405 -0.1602 -0.8673  0.2411
  127OSM   H10S13599   1.027   1.279   7.391 -0.3500 -0.0926  0.9215
  127OSM   H10T13600   1.156   1.399   7.425 -1.2431 -0.7178  0.5453
  127OSM   C11S13601   1.173   1.208   7.530 -0.1642 -0.2753  0.3039
  127OSM   H11S13602   1.283   1.217   7.537 -0.2476  0.2857  1.1666
  127OSM   H11T13603   1.153   1.100   7.518  1.8096 -0.4395 -2.3192
  127OSM   C12S13604   1.112   1.268   7.654 -0.6311 -0.4758  0.9509
  127OSM   H12S13605   1.004   1.248   7.643 -0.2687 -2.4644  0.6346
  127OSM   H12T13606   1.134   1.377   7.652  2.9389 -1.0531  0.8877
  127OSM   C13S13607   1.152   1.229   7.796 -0.0925 -0.2090 -0.3502
  127OSM   H13S13608   1.263   1.228   7.797 -0.0658  1.4751  0.0009
  127OSM   H13T13609   1.121   1.123   7.803  0.6974 -0.5175 -1.2238
  127OSM   C14S13610   1.103   1.316   7.910  0.2342 -0.2607 -0.4554
  127OSM   H14S13611   0.994   1.300   7.895  0.3036 -0.1873 -1.0486
  127OSM   H14T13612   1.132   1.423   7.905 -1.1612  0.2873  1.4816
  127OSM   C15S13613   1.135   1.277   8.056 -0.2324  0.0225 -0.2688
  127OSM   H15S13614   1.244   1.267   8.072  0.0618  1.0530 -1.4526
  127OSM   H15T13615   1.094   1.176   8.075 -0.5828  0.1045 -0.5831
  127OSM   C16S13616   1.086   1.380   8.162  0.1364  0.5968  0.5808
  127OSM   H16S13617   0.976   1.390   8.154  0.2705  0.3398 -2.9777
  127OSM   H16T13618   1.132   1.476   8.130  0.1106  0.1359 -0.9271
  127OSM   C17S13619   1.137   1.352   8.302  0.0050  0.5060  0.2607
  127OSM   H17S13620   1.248   1.354   8.294  0.0552 -1.6855 -0.1608
  127OSM   H17T13621   1.097   1.251   8.325 -0.8419  0.4441 -1.3793
  127OSM   C18S13622   1.097   1.451   8.411  0.1367 -0.3239 -0.3894
  127OSM   H18S13623   1.153   1.442   8.507 -1.8132 -0.1042  0.8238
  127OSM   H18T13624   0.992   1.429   8.439  0.2561 -0.5200 -0.0928
  127OSM   H18U13625   1.089   1.556   8.376 -0.3364  0.0659  0.8085
  127OSM    C1F13626   1.620   1.319   6.734 -0.2397 -0.1343  0.3938
  127OSM     OF13627   1.677   1.396   6.658  0.0408  0.5675  0.5930
  127OSM    C2F13628   1.681   1.311   6.864 -0.1047  0.0542 -0.3653
  127OSM    H2F13629   1.690   1.411   6.912 -0.7391  0.4666 -1.0880
  127OSM    H2G13630   1.779   1.261   6.848 -0.1758 -0.5433  0.9943
  127OSM    C3F13631   1.599   1.231   6.965  0.4557 -0.0821  0.9002
  127OSM    H3F13632   1.587   1.129   6.923  1.7771  0.3240 -0.5870
  127OSM    H3G13633   1.498   1.276   6.968 -1.4379 -3.2550 -3.6931
  127OSM    C4F13634   1.663   1.235   7.106  0.3924 -0.2291  0.4796
  127OSM    H4F13635   1.642   1.334   7.153 -1.4255  0.6466 -1.9294
  127OSM    H4G13636   1.774   1.228   7.098  0.5200 -0.8781  2.3875
  127OSM    C5F13637   1.629   1.114   7.194 -0.0967  0.6603 -0.5270
  127OSM    H5F13638   1.654   1.020   7.140 -2.4328 -0.4592  0.1896
  127OSM    H5G13639   1.518   1.114   7.195 -0.1663 -1.8901 -0.3028
  127OSM    C6F13640   1.690   1.126   7.340 -0.2576  0.1162 -0.4538
  127OSM    H6F13641   1.783   1.187   7.346 -0.5075  0.3373  2.4369
  127OSM    H6G13642   1.707   1.025   7.383 -1.4859  0.0717 -0.0507
  127OSM    C7F13643   1.598   1.197   7.444  0.3012 -0.3607 -0.0505
  127OSM    H7F13644   1.508   1.136   7.465 -0.5934  0.4519 -1.3867
  127OSM    H7G13645   1.571   1.297   7.405 -0.7801 -0.6927 -0.1827
  127OSM    C8F13646   1.670   1.220   7.580 -0.0359  0.8114 -0.6336
  127OSM    H8F13647   1.763   1.274   7.554 -0.6066  0.8888 -2.6716
  127OSM    H8G13648   1.693   1.122   7.627 -2.4208  0.2583 -0.4819
  127OSM    C9F13649   1.574   1.299   7.667  0.1329  0.3313  0.4430
  127OSM    H9F13650   1.528   1.377   7.604 -0.5398 -0.6739 -0.3436
  127OSM   C10F13651   1.531   1.274   7.788  0.0583  0.1395  0.7548
  127OSM   H10F13652   1.472   1.351   7.839  2.3464  1.5539  1.4196
  127OSM   C11F13653   1.590   1.165   7.870 -0.3179 -0.1494 -0.1494
  127OSM   H11F13654   1.695   1.199   7.884 -0.6623  0.1232  2.2390
  127OSM   H11G13655   1.586   1.065   7.821  0.3916 -0.0224 -0.4769
  127OSM   C12F13656   1.517   1.158   8.004 -1.1856 -0.0787 -0.2087
  127OSM   H12F13657   1.416   1.114   7.989 -1.3128  0.1249  0.0251
  127OSM   H12G13658   1.520   1.259   8.052 -1.5695  0.3607 -1.0881
  127OSM   C13F13659   1.601   1.073   8.100 -0.2512 -0.1820 -0.8050
  127OSM   H13F13660   1.695   1.134   8.105  0.5010 -1.3570 -0.2474
  127OSM   H13G13661   1.615   0.979   8.043 -0.9933 -0.4250 -0.5875
  127OSM   C14F13662   1.527   1.066   8.232 -0.9791 -0.4283  0.0664
  127OSM   H14F13663   1.418   1.047   8.218 -1.7106  3.1514  0.0114
  127OSM   H14G13664   1.525   1.160   8.292 -0.6884  0.1909 -0.8824
  127OSM   C15F13665   1.597   0.952   8.322  0.3076 -0.1090  0.1576
  127OSM   H15F13666   1.583   0.858   8.265 -0.1611  0.8884 -1.4446
  127OSM   H15G13667   1.527   0.943   8.408  1.8618 -0.2667  1.4397
  127OSM   C16F13668   1.735   0.992   8.368 -0.7003  0.3686 -0.2621
  127OSM   H16F13669   1.709   1.060   8.452 -1.7413 -0.0294 -0.2504
  127OSM   H16G13670   1.792   1.055   8.296 -0.1965 -0.7952 -0.9154
  127OSM   C17F13671   1.819   0.875   8.432  0.2831 -0.8055  0.4067
  127OSM   H17F13672   1.911   0.928   8.465 -0.0210  0.6218 -0.9356
  127OSM   H17G13673   1.847   0.802   8.353  1.5154 -0.4258  0.4675
  127OSM   C18F13674   1.756   0.806   8.553 -0.4480  0.2523 -0.3255
  127OSM   H18F13675   1.657   0.758   8.542 -0.9450  0.8256  1.3455
  127OSM   H18G13676   1.770   0.885   8.631  2.9785 -0.1925 -0.3396
  127OSM   H18H13677   1.824   0.726   8.588 -0.5367 -0.7471 -2.3038
  128OSM      N13678   2.919   4.388   5.858 -0.7258 -0.1536  0.2094
  128OSM    C1513679   2.937   4.451   5.727 -0.1301  0.5346 -0.1851
  128OSM   H15A13680   2.936   4.377   5.648  0.1169 -0.7942  1.0099
  128OSM   H15B13681   3.026   4.510   5.714  0.7471 -1.0875 -2.0051
  128OSM   H15C13682   2.852   4.512   5.700 -0.8058  0.1194  0.9245
  128OSM    C1413683   2.927   4.497   5.958  0.0586  0.1889 -0.6019
  128OSM   H14A13684   3.029   4.530   5.976 -0.0045  0.3292 -0.4963
  128OSM   H14B13685   2.889   4.462   6.052 -0.3636 -1.7752 -1.4631
  128OSM   H14C13686   2.862   4.577   5.927 -0.6349 -0.0854  0.1202
  128OSM    C1313687   2.780   4.329   5.864  0.2629 -0.2814  0.4738
  128OSM   H13A13688   2.763   4.291   5.964 -1.3984  1.1145  0.7668
  128OSM   H13B13689   2.788   4.251   5.789  0.0983 -0.4340  0.6153
  128OSM   H13C13690   2.696   4.393   5.845  0.9442  0.5688  0.2794
  128OSM    C1213691   3.019   4.279   5.881  0.8082 -0.1354  0.2620
  128OSM   H12A13692   3.122   4.304   5.862  0.2599  1.6194 -0.6854
  128OSM   H12B13693   2.990   4.204   5.809 -1.9801  2.1735 -1.2636
  128OSM    C1113694   3.015   4.216   6.014  0.6892  0.8754 -0.1827
  128OSM   H11A13695   2.950   4.129   5.991  0.2727  1.4034 -1.0859
  128OSM   H11B13696   2.974   4.265   6.105 -0.9555 -1.7170  0.5755
  128OSM      P13697   3.252   4.280   6.078  0.0659  0.6077 -0.0619
  128OSM    O1313698   3.382   4.205   6.083  0.5561 -0.2938 -0.0867
  128OSM    O1413699   3.242   4.399   5.991 -0.0401 -0.1213 -0.5112
  128OSM    O1113700   3.194   4.314   6.224  0.0119  0.3269 -0.5213
  128OSM    O1213701   3.144   4.170   6.035 -0.5180  0.7640 -0.5136
  128OSM    C1S13702   3.204   4.232   6.338  0.0396 -0.4202  0.5723
  128OSM    H1S13703   3.275   4.148   6.323 -0.2155 -0.5855  0.2554
  128OSM    H1T13704   3.102   4.188   6.347 -1.1571  1.3542 -2.5149
  128OSM     NF13705   3.302   4.237   6.571 -0.0715 -0.7958  0.0686
  128OSM    HNF13706   3.248   4.217   6.652 -2.0484 -3.0681 -1.6345
  128OSM    C2S13707   3.241   4.323   6.464  0.0032  0.2263 -0.1169
  128OSM    H2S13708   3.319   4.393   6.426  1.2389 -0.6674  0.7171
  128OSM    C3S13709   3.111   4.396   6.521 -0.5413 -0.6048  0.0236
  128OSM    H3S13710   3.029   4.323   6.538 -1.8604 -0.2196 -3.9038
  128OSM     O313711   3.051   4.468   6.411  0.4879 -0.3599  0.0788
  128OSM    HO313712   3.101   4.437   6.335 -1.6406  0.1155 -1.6154
  128OSM    C4S13713   3.149   4.488   6.638  0.9255 -0.5232 -0.1361
  128OSM    H4S13714   3.242   4.545   6.619  0.4331  0.7747  1.2136
  128OSM    C5S13715   3.078   4.513   6.747  0.2505 -0.0662  0.1236
  128OSM    H5S13716   2.975   4.479   6.769  0.3999  0.1805  1.2609
  128OSM    C6S13717   3.140   4.614   6.839  0.3984  0.3900 -0.0645
  128OSM    H6S13718   3.227   4.665   6.791  0.6979 -0.1191 -0.0629
  128OSM    H6T13719   3.169   4.566   6.935 -0.4197  0.3157  0.1444
  128OSM    C7S13720   3.028   4.717   6.872 -0.2742  0.9496  0.3734
  128OSM    H7S13721   2.961   4.677   6.951 -0.2970  2.9927  1.4428
  128OSM    H7T13722   2.969   4.733   6.779  1.0808 -0.1639 -0.7344
  128OSM    C8S13723   3.072   4.859   6.921 -0.7393  0.6621 -0.0312
  128OSM    H8S13724   2.982   4.920   6.949 -0.4775  1.3802 -0.7188
  128OSM    H8T13725   3.115   4.900   6.827  1.0272  2.4149  1.4502
  128OSM    C9S13726   3.183   4.856   7.024 -0.5155  0.4969  0.2468
  128OSM    H9S13727   3.243   4.949   7.027 -0.0911  0.2043  1.3544
  128OSM    H9T13728   3.256   4.773   7.011  0.9819  1.6885  0.8304
  128OSM   C10S13729   3.131   4.835   7.170 -0.1401 -0.5101  0.2402
  128OSM   H10S13730   3.072   4.741   7.165  2.5085 -2.2827 -0.6225
  128OSM   H10T13731   3.067   4.921   7.195 -0.8600  0.4279 -3.9538
  128OSM   C11S13732   3.242   4.815   7.278 -0.0790  0.1260 -0.5025
  128OSM   H11S13733   3.317   4.896   7.271  0.2873 -0.2425 -0.8804
  128OSM   H11T13734   3.299   4.724   7.251 -1.5579 -0.6527 -1.1244
  128OSM   C12S13735   3.184   4.802   7.419 -0.0538 -0.0631 -0.4644
  128OSM   H12S13736   3.084   4.851   7.431  0.3176  0.7279 -0.5454
  128OSM   H12T13737   3.254   4.852   7.489 -1.2800  1.5616 -0.3311
  128OSM   C13S13738   3.167   4.652   7.463 -0.0546  0.4222  0.3009
  128OSM   H13S13739   3.267   4.607   7.478 -0.2806 -0.7298 -1.4504
  128OSM   H13T13740   3.133   4.592   7.377  0.5052 -2.0162  1.6996
  128OSM   C14S13741   3.096   4.622   7.594  0.2133  0.7644 -0.6244
  128OSM   H14S13742   3.081   4.512   7.605 -0.0370  0.9628  1.6611
  128OSM   H14T13743   2.997   4.672   7.582 -0.8914 -1.4638 -1.4285
  128OSM   C15S13744   3.184   4.678   7.711 -0.1298 -0.2099  0.4432
  128OSM   H15S13745   3.187   4.788   7.703  1.0609 -0.3483 -1.5254
  128OSM   H15T13746   3.291   4.649   7.699  0.5232  1.3529  2.0850
  128OSM   C16S13747   3.136   4.625   7.851 -0.4139 -0.7913 -0.3414
  128OSM   H16S13748   3.135   4.516   7.832  0.1717 -0.8363 -0.1023
  128OSM   H16T13749   3.034   4.659   7.879 -0.2978 -1.6231  1.1433
  128OSM   C17S13750   3.230   4.661   7.964  0.1569  0.8787  0.2042
  128OSM   H17S13751   3.332   4.621   7.945 -0.0447 -0.2567  1.3233
  128OSM   H17T13752   3.179   4.603   8.044 -2.3431  2.0420 -0.4716
  128OSM   C18S13753   3.246   4.805   7.995 -0.2690  0.1650  0.2445
  128OSM   H18S13754   3.321   4.870   7.944 -1.8195  2.6798  0.9730
  128OSM   H18T13755   3.253   4.813   8.105  0.5068 -2.9019  0.5062
  128OSM   H18U13756   3.151   4.854   7.967 -0.0891 -0.0029 -0.7177
  128OSM    C1F13757   3.411   4.165   6.545  0.8703 -0.2201  0.4396
  128OSM     OF13758   3.495   4.197   6.463 -0.2540 -0.4781  0.1617
  128OSM    C2F13759   3.430   4.041   6.623  0.0586  0.3361  0.1839
  128OSM    H2F13760   3.358   3.960   6.598  1.2025 -0.1600 -1.6990
  128OSM    H2G13761   3.402   4.073   6.725  0.7256  1.5173  0.0155
  128OSM    C3F13762   3.568   3.982   6.648  0.1637 -0.2039 -0.2054
  128OSM    H3F13763   3.623   4.054   6.713  0.7920 -1.8869  1.2067
  128OSM    H3G13764   3.633   3.974   6.558 -0.7071  0.7351 -0.9412
  128OSM    C4F13765   3.566   3.850   6.728  0.4529 -0.3427  0.0919
  128OSM    H4F13766   3.531   3.775   6.654  2.7442 -0.7043 -0.6938
  128OSM    H4G13767   3.488   3.864   6.806 -2.2660 -2.5301 -2.0558
  128OSM    C5F13768   3.704   3.824   6.780  0.0870  0.1813 -0.5385
  128OSM    H5F13769   3.731   3.909   6.846 -0.9301 -0.5430  0.8374
  128OSM    H5G13770   3.780   3.816   6.699 -1.4772  2.5237 -2.4100
  128OSM    C6F13771   3.717   3.701   6.880  0.1923  0.3952  0.2062
  128OSM    H6F13772   3.822   3.701   6.915  0.2220 -0.0128  0.1244
  128OSM    H6G13773   3.692   3.608   6.824  0.6814  1.4043 -1.7351
  128OSM    C7F13774   3.632   3.698   7.006 -0.2267 -1.3088 -0.2545
  128OSM    H7F13775   3.682   3.629   7.078 -2.5437 -1.0228  1.7448
  128OSM    H7G13776   3.527   3.671   6.984 -0.3223 -0.8705 -0.3454
  128OSM    C8F13777   3.616   3.836   7.084 -1.0830  0.1161 -0.1044
  128OSM    H8F13778   3.549   3.802   7.166 -0.1291  0.0095  0.6531
  128OSM    H8G13779   3.569   3.912   7.018 -2.4568  0.3886  1.1370
  128OSM    C9F13780   3.749   3.874   7.148 -0.5047 -0.0047  0.0757
  128OSM    H9F13781   3.818   3.928   7.083 -2.1883  2.2688  0.0571
  128OSM   C10F13782   3.796   3.840   7.272  0.0799 -0.1532  0.3299
  128OSM   H10F13783   3.899   3.867   7.300  0.8276 -2.1626 -0.3170
  128OSM   C11F13784   3.722   3.755   7.375 -0.2233 -0.3143 -0.1201
  128OSM   H11F13785   3.778   3.661   7.396 -1.1795 -0.5273  1.7179
  128OSM   H11G13786   3.619   3.722   7.348 -0.0071 -1.9121  0.8688
  128OSM   C12F13787   3.710   3.827   7.511 -0.1287 -0.3139  0.3519
  128OSM   H12F13788   3.626   3.900   7.506 -1.6052 -2.0048 -1.2721
  128OSM   H12G13789   3.802   3.882   7.540  0.5927  0.9949 -3.8126
  128OSM   C13F13790   3.691   3.734   7.624 -0.6026 -0.6671 -0.8256
  128OSM   H13F13791   3.750   3.640   7.622  3.8889  1.8460 -1.5292
  128OSM   H13G13792   3.586   3.700   7.630 -1.3592  1.6000 -0.1098
  128OSM   C14F13793   3.710   3.799   7.765  0.3353 -0.3122  0.4441
  128OSM   H14F13794   3.628   3.874   7.773  0.2869 -0.4993  1.8368
  128OSM   H14G13795   3.813   3.839   7.765  0.2047  0.0294  0.4458
  128OSM   C15F13796   3.705   3.693   7.878 -0.1686 -0.5713  0.0577
  128OSM   H15F13797   3.776   3.611   7.855  0.5813 -0.1039  0.6532
  128OSM   H15G13798   3.601   3.654   7.875 -0.7203  0.8386 -0.0129
  128OSM   C16F13799   3.741   3.757   8.013  0.4569  0.0191 -0.6064
  128OSM   H16F13800   3.658   3.822   8.049  0.8361  0.3004 -0.2289
  128OSM   H16G13801   3.824   3.830   8.007  0.3514  0.4223  1.7192
  128OSM   C17F13802   3.797   3.655   8.116 -0.1802 -0.2389 -0.1620
  128OSM   H17F13803   3.819   3.701   8.214 -1.6111  1.6786 -0.6847
  128OSM   H17G13804   3.884   3.610   8.063 -1.9109 -3.1702 -0.6971
  128OSM   C18F13805   3.701   3.541   8.163 -0.1163 -0.9437  0.2200
  128OSM   H18F13806   3.664   3.477   8.080 -0.6124 -1.4842  0.8508
  128OSM   H18G13807   3.618   3.587   8.220  0.7109 -1.5145  1.9685
  128OSM   H18H13808   3.745   3.471   8.238 -0.1140 -0.7250  0.4246
  129OSM      N13809   1.250   0.918   6.184  0.1030 -0.5979 -0.7797
  129OSM    C1513810   1.185   1.050   6.155 -1.2410  0.4370  0.0754
  129OSM   H15A13811   1.088   1.068   6.200 -1.8108  0.8163 -1.2504
  129OSM   H15B13812   1.168   1.058   6.048 -0.5683  1.2598  0.0164
  129OSM   H15C13813   1.240   1.136   6.189 -1.5961  1.0355 -0.8152
  129OSM    C1413814   1.291   0.921   6.332 -0.3027 -0.9193 -0.7123
  129OSM   H14A13815   1.345   0.829   6.347  2.0344  0.3902 -0.6879
  129OSM   H14B13816   1.202   0.910   6.392 -0.0921  0.7195 -0.0733
  129OSM   H14C13817   1.339   1.015   6.355 -1.3137 -0.9713  1.9128
  129OSM    C1313818   1.154   0.800   6.161 -0.2352 -0.6211  0.6129
  129OSM   H13A13819   1.203   0.712   6.198  1.3273 -0.1233 -0.2119
  129OSM   H13B13820   1.126   0.786   6.057  1.3453  0.2094  0.0325
  129OSM   H13C13821   1.065   0.822   6.218  1.9360 -0.8782  4.3819
  129OSM    C1213822   1.369   0.898   6.098  0.8434 -0.1935  0.7431
  129OSM   H12A13823   1.433   0.983   6.112 -0.3291  1.0846 -1.2419
  129OSM   H12B13824   1.333   0.898   5.997 -0.0986 -1.0193  1.0549
  129OSM    C1113825   1.440   0.761   6.100  0.2208 -0.6069  0.5504
  129OSM   H11A13826   1.526   0.751   6.031  0.2720  0.7376  0.3916
  129OSM   H11B13827   1.371   0.684   6.058 -0.1302  0.1129 -0.2390
  129OSM      P13828   1.469   0.577   6.279  0.8008  0.1219  0.0816
  129OSM    O1313829   1.341   0.560   6.354 -0.1902  0.3484 -0.0099
  129OSM    O1413830   1.494   0.481   6.169  0.0613  0.2828 -0.2447
  129OSM    O1113831   1.579   0.561   6.388 -0.2611 -0.4872  0.4672
  129OSM    O1213832   1.479   0.724   6.232 -0.2621 -0.0687  0.4989
  129OSM    C1S13833   1.591   0.669   6.484 -0.0077 -0.1543  0.1277
  129OSM    H1S13834   1.515   0.750   6.477 -0.8315 -1.0267 -1.5816
  129OSM    H1T13835   1.684   0.730   6.481 -0.1266  0.1559  1.7738
  129OSM     NF13836   1.525   0.702   6.718 -0.0431 -0.4121  0.3303
  129OSM    HNF13837   1.587   0.727   6.792 -1.3042 -1.7197  1.8980
  129OSM    C2S13838   1.575   0.605   6.624  0.0586 -0.0495 -1.3210
  129OSM    H2S13839   1.500   0.523   6.616  1.3587 -1.3475 -0.5987
  129OSM    C3S13840   1.708   0.524   6.664 -0.2199  0.1693  0.9726
  129OSM    H3S13841   1.792   0.593   6.642 -1.3491  1.8678  1.7764
  129OSM     O313842   1.723   0.419   6.570 -0.0477  0.1212  0.1760
  129OSM    HO313843   1.659   0.447   6.504  1.8736 -0.1437 -1.9062
  129OSM    C4S13844   1.711   0.481   6.803 -0.7993 -0.0626 -0.7410
  129OSM    H4S13845   1.634   0.404   6.816  0.4957 -1.0581  1.6277
  129OSM    C5S13846   1.787   0.531   6.903  0.1364  0.0002  0.7457
  129OSM    H5S13847   1.848   0.621   6.892 -1.7417  1.2216 -0.0993
  129OSM    C6S13848   1.789   0.497   7.045  0.0814 -0.0099 -0.0905
  129OSM    H6S13849   1.899   0.482   7.060  0.0669 -1.0767 -0.9559
  129OSM    H6T13850   1.742   0.402   7.076 -1.0538 -0.6087 -3.2959
  129OSM    C7S13851   1.743   0.603   7.141 -0.0578 -0.1726  0.4599
  129OSM    H7S13852   1.633   0.619   7.130 -0.0883 -0.2655  0.6201
  129OSM    H7T13853   1.785   0.701   7.109  0.7076 -1.2041 -1.9254
  129OSM    C8S13854   1.802   0.563   7.282 -0.3330  0.4573  0.4557
  129OSM    H8S13855   1.910   0.588   7.285 -0.6571  1.9398  2.3980
  129OSM    H8T13856   1.779   0.458   7.310  2.1214 -0.5135 -0.8817
  129OSM    C9S13857   1.740   0.640   7.405 -0.2045  0.0525  1.0873
  129OSM    H9S13858   1.630   0.621   7.408 -0.4465  1.3368  0.7944
  129OSM    H9T13859   1.745   0.747   7.375 -3.5501  0.0099 -0.1069
  129OSM   C10S13860   1.820   0.612   7.536  1.3374 -0.2004  0.4308
  129OSM   H10S13861   1.922   0.656   7.538  0.6885  1.3898  0.4042
  129OSM   H10T13862   1.838   0.503   7.549  0.6285 -0.2826  0.7525
  129OSM   C11S13863   1.736   0.675   7.645 -0.8218 -0.3153 -0.6856
  129OSM   H11S13864   1.643   0.632   7.689 -1.1092  2.0407  1.2370
  129OSM   H11T13865   1.706   0.779   7.622 -0.3434  0.1062  0.4907
  129OSM   C12S13866   1.825   0.705   7.765 -0.6213  0.0397 -0.5969
  129OSM   H12S13867   1.915   0.766   7.742 -0.1254  1.2864  3.7558
  129OSM   H12T13868   1.858   0.606   7.802  1.6282  0.1466 -2.1369
  129OSM   C13S13869   1.757   0.788   7.880  0.2265  1.1798  0.2217
  129OSM   H13S13870   1.662   0.735   7.900  0.9294 -0.2020  0.0370
  129OSM   H13T13871   1.743   0.889   7.837  1.6788  1.6082  0.6919
  129OSM   C14S13872   1.844   0.790   8.009  0.0138  0.0875  0.1961
  129OSM   H14S13873   1.788   0.843   8.089  0.0544  1.5087 -0.6887
  129OSM   H14T13874   1.940   0.845   8.004 -0.3119  0.5561 -1.7315
  129OSM   C15S13875   1.882   0.649   8.060  0.3088 -0.4571 -0.3067
  129OSM   H15S13876   1.974   0.660   8.121  0.9082  0.5933 -1.3359
  129OSM   H15T13877   1.913   0.582   7.977 -0.0524 -0.1611 -0.6909
  129OSM   C16S13878   1.767   0.592   8.146 -0.1131  0.4038 -0.8069
  129OSM   H16S13879   1.685   0.559   8.078 -0.9723  0.2314  0.2974
  129OSM   H16T13880   1.718   0.667   8.212 -1.1661 -1.8425  1.1208
  129OSM   C17S13881   1.809   0.465   8.230 -0.1301 -0.0614  0.7683
  129OSM   H17S13882   1.718   0.420   8.274 -0.4905 -0.2676 -0.1527
  129OSM   H17T13883   1.863   0.497   8.322 -2.4472  1.2384  1.7698
  129OSM   C18S13884   1.889   0.370   8.145  0.2020  0.5143 -0.1732
  129OSM   H18S13885   1.890   0.267   8.187 -0.7038  1.5721  2.6803
  129OSM   H18T13886   1.993   0.406   8.134  0.3114  0.7436  1.3311
  129OSM   H18U13887   1.843   0.363   8.044  0.7006  0.1450 -0.3789
  129OSM    C1F13888   1.406   0.767   6.712  0.2286 -0.6657  0.4656
  129OSM     OF13889   1.311   0.717   6.658 -0.1959 -0.3641 -0.0985
  129OSM    C2F13890   1.393   0.901   6.776  0.5173 -0.2893 -0.7563
  129OSM    H2F13891   1.297   0.942   6.737 -0.0560 -0.7341  0.1571
  129OSM    H2G13892   1.470   0.975   6.746 -0.1949  0.8375  0.0886
  129OSM    C3F13893   1.397   0.893   6.930  0.2550 -0.0965 -0.1359
  129OSM    H3F13894   1.364   0.992   6.967 -0.0016 -0.0715 -0.4277
  129OSM    H3G13895   1.501   0.891   6.970  0.1228 -0.9662  0.1975
  129OSM    C4F13896   1.316   0.787   7.008 -0.2435  0.4547 -0.2569
  129OSM    H4F13897   1.371   0.691   7.014  0.9527  1.1754  1.1916
  129OSM    H4G13898   1.226   0.756   6.952 -0.6189 -3.1089  2.0040
  129OSM    C5F13899   1.269   0.831   7.151 -0.1079  0.5225  0.0776
  129OSM    H5F13900   1.183   0.763   7.166 -0.5700  1.0148 -0.2920
  129OSM    H5G13901   1.234   0.936   7.143 -1.9974  0.0460  1.5161
  129OSM    C6F13902   1.369   0.828   7.263  0.4216  0.1463 -0.0834
  129OSM    H6F13903   1.450   0.902   7.243  1.4915 -1.0368 -0.2654
  129OSM    H6G13904   1.418   0.728   7.259  1.8702  0.8555 -1.1109
  129OSM    C7F13905   1.309   0.856   7.405 -0.1453  0.0104  0.8590
  129OSM    H7F13906   1.226   0.785   7.428 -0.0490  0.0991  1.4849
  129OSM    H7G13907   1.279   0.962   7.395  0.0254 -0.0879 -1.2261
  129OSM    C8F13908   1.425   0.854   7.500  0.1459 -0.5073 -0.6061
  129OSM    H8F13909   1.510   0.909   7.455 -0.8892 -0.2263 -2.2872
  129OSM    H8G13910   1.459   0.749   7.514  0.1083 -0.1239  4.2055
  129OSM    C9F13911   1.391   0.912   7.633  0.3930  0.4613  0.2368
  129OSM    H9F13912   1.422   1.017   7.646 -0.2499  0.5889  0.8075
  129OSM   C10F13913   1.334   0.843   7.742  0.1406 -0.0308  0.1545
  129OSM   H10F13914   1.314   0.890   7.839 -1.6302  0.2176 -0.2944
  129OSM   C11F13915   1.306   0.698   7.750 -0.0040  0.2821  0.2417
  129OSM   H11F13916   1.314   0.654   7.648 -1.8099  1.8745 -0.6583
  129OSM   H11G13917   1.202   0.677   7.784  1.0589 -0.7743  3.1315
  129OSM   C12F13918   1.393   0.628   7.852  0.0932  0.6921 -0.1918
  129OSM   H12F13919   1.397   0.672   7.953  1.5064 -0.2545  0.1937
  129OSM   H12G13920   1.493   0.627   7.805  0.1882 -0.5034  0.0106
  129OSM   C13F13921   1.349   0.489   7.885 -0.7708  0.0395 -0.2806
  129OSM   H13F13922   1.299   0.445   7.796 -1.6515  1.5008 -0.5355
  129OSM   H13G13923   1.270   0.493   7.963 -0.1163 -0.1382  0.4040
  129OSM   C14F13924   1.460   0.391   7.936  0.4062  0.3398  0.0258
  129OSM   H14F13925   1.486   0.427   8.038  0.9243  0.6327 -0.2085
  129OSM   H14G13926   1.550   0.402   7.873  1.5085  2.4508  1.8272
  129OSM   C15F13927   1.414   0.248   7.941  0.2850 -0.6348 -0.0434
  129OSM   H15F13928   1.403   0.203   7.840  0.6432 -1.3773  0.2434
  129OSM   H15G13929   1.311   0.240   7.981 -0.4456 -2.3836 -2.0870
  129OSM   C16F13930   1.516   0.163   8.016  1.1165 -0.0443 -0.0321
  129OSM   H16F13931   1.536   0.212   8.113 -0.0951  1.3175 -0.4347
  129OSM   H16G13932   1.609   0.155   7.957  1.7015 -0.7376  0.9557
  129OSM   C17F13933   1.458   0.018   8.046  0.1684 -0.8459 -0.2056
  129OSM   H17F13934   1.446  -0.020   7.942  1.0685 -2.0571  0.1172
  129OSM   H17G13935   1.360   0.026   8.099  0.3330  0.1653 -0.0350
  129OSM   C18F13936   1.552  -0.052   8.140 -0.1374 -0.4273 -0.0309
  129OSM   H18F13937   1.650  -0.061   8.090 -1.1825 -0.4065 -2.2066
  129OSM   H18G13938   1.517  -0.156   8.161  0.8579 -0.4255  1.8776
  129OSM   H18H13939   1.554  -0.004   8.240  2.5637  1.8145 -1.0687
  130OSM      N13940   4.430   4.198   5.783 -0.2917  0.5701  0.0739
  130OSM    C1513941   4.345   4.144   5.671  0.0743 -0.4058 -0.2759
  130OSM   H15A13942   4.305   4.050   5.704 -1.0722  0.3087  0.4388
  130OSM   H15B13943   4.410   4.136   5.585  0.4337 -0.6643  0.0145
  130OSM   H15C13944   4.261   4.210   5.657  2.0598  2.4377  0.2234
  130OSM    C1413945   4.543   4.096   5.812  1.1711  0.0315 -0.3748
  130OSM   H14A13946   4.510   3.994   5.805  0.2346  0.3367 -0.5149
  130OSM   H14B13947   4.590   4.109   5.908  2.6291  0.3152 -1.0909
  130OSM   H14C13948   4.622   4.117   5.741  1.0978  1.5757 -0.0384
  130OSM    C1313949   4.486   4.330   5.741  0.0744  0.4642 -0.1604
  130OSM   H13A13950   4.551   4.380   5.811  1.1414 -0.3496 -0.5305
  130OSM   H13B13951   4.404   4.397   5.722 -0.0650  1.2035  2.5647
  130OSM   H13C13952   4.540   4.315   5.649  2.1460  0.4511  0.9971
  130OSM    C1213953   4.357   4.214   5.912 -0.3667  0.0786 -0.2228
  130OSM   H12A13954   4.305   4.124   5.940 -0.3569 -0.1020 -0.7759
  130OSM   H12B13955   4.280   4.288   5.900 -0.6893 -0.3852 -1.0714
  130OSM    C1113956   4.434   4.267   6.037 -0.8755 -0.6095 -0.2175
  130OSM   H11A13957   4.362   4.303   6.114  0.9650  2.8273  0.0605
  130OSM   H11B13958   4.495   4.355   6.009 -0.4501  0.0267  2.4239
  130OSM      P13959   4.477   4.034   6.165 -0.3081  0.1671  0.2407
  130OSM    O1313960   4.336   4.037   6.207  0.2588 -0.4148 -0.5295
  130OSM    O1413961   4.513   3.923   6.075  0.6402 -0.3376  0.2451
  130OSM    O1113962   4.569   4.026   6.291 -0.0051 -0.0043 -0.3069
  130OSM    O1213963   4.519   4.173   6.103 -0.1596 -0.9378  0.3426
  130OSM    C1S13964   4.586   4.150   6.361 -0.6174  0.1172 -0.2172
  130OSM    H1S13965   4.506   4.227   6.356 -0.4312  0.2372 -1.6817
  130OSM    H1T13966   4.682   4.194   6.327 -0.6437  0.1480 -0.2508
  130OSM     NF13967   4.620   4.235   6.580  0.2813 -0.9236 -0.1858
  130OSM    HNF13968   4.714   4.244   6.614  0.6205  1.2367 -1.4676
  130OSM    C2S13969   4.595   4.114   6.508  0.1273  0.1743  0.4280
  130OSM    H2S13970   4.491   4.084   6.531 -0.1311  0.0016 -0.8953
  130OSM    C3S13971   4.695   3.991   6.542  0.4700 -0.4069  0.9142
  130OSM    H3S13972   4.796   4.029   6.516  0.7689 -1.6192  0.2246
  130OSM     O313973   4.677   3.880   6.457 -0.0996  0.4359 -0.0079
  130OSM    HO313974   4.627   3.912   6.382  0.1903 -1.6775 -1.1859
  130OSM    C4S13975   4.693   3.962   6.694 -0.0731  0.1442  0.2547
  130OSM    H4S13976   4.755   4.027   6.757  0.2122  0.9275 -0.8129
  130OSM    C5S13977   4.648   3.851   6.750  0.1886  0.5518 -0.9297
  130OSM    H5S13978   4.597   3.773   6.690 -1.0172  1.9433 -1.7831
  130OSM    C6S13979   4.659   3.831   6.900 -0.4590 -0.5287  0.3953
  130OSM    H6S13980   4.669   3.926   6.956  1.9877 -1.5871  1.9351
  130OSM    H6T13981   4.764   3.798   6.917  0.3874  0.7780 -1.8582
  130OSM    C7S13982   4.542   3.752   6.953  0.1346  0.7058  0.2030
  130OSM    H7S13983   4.537   3.654   6.900  0.7516  0.0902  1.2389
  130OSM    H7T13984   4.447   3.807   6.937 -0.3974 -0.4177 -0.7020
  130OSM    C8S13985   4.546   3.719   7.103 -0.2002  0.2130  0.1736
  130OSM    H8S13986   4.625   3.644   7.122 -0.0525  0.1477 -0.6856
  130OSM    H8T13987   4.449   3.685   7.144  0.7516 -1.3621  1.2407
  130OSM    C9S13988   4.569   3.839   7.198  0.6383 -0.3876  0.2528
  130OSM    H9S13989   4.487   3.913   7.193  2.2382  1.6025  1.9885
  130OSM    H9T13990   4.668   3.880   7.169  0.9227 -1.0986  0.1779
  130OSM   C10S13991   4.570   3.806   7.347 -0.3888 -0.5144 -0.6036
  130OSM   H10S13992   4.471   3.788   7.394  1.1324  0.0295  3.1192
  130OSM   H10T13993   4.598   3.897   7.404  1.5588 -0.8345 -0.9781
  130OSM   C11S13994   4.673   3.700   7.397  0.4754 -0.1280  0.1622
  130OSM   H11S13995   4.772   3.741   7.366 -0.9522  2.5186 -1.2074
  130OSM   H11T13996   4.659   3.600   7.350 -0.3082  0.7240 -1.4943
  130OSM   C12S13997   4.679   3.676   7.544 -0.3614  0.4270 -0.1500
  130OSM   H12S13998   4.729   3.580   7.570 -2.1663 -0.0946  1.6610
  130OSM   H12T13999   4.580   3.680   7.595  0.7691 -1.7022  2.4750
  130OSM   C13S14000   4.768   3.783   7.617  0.0583  0.2205 -0.7849
  130OSM   H13S14001   4.732   3.888   7.604 -0.0336  0.1762 -0.8985
  130OSM   H13T14002   4.866   3.771   7.567  0.9164  0.1484  0.8523
  130OSM   C14S14003   4.768   3.758   7.768  0.2074  0.2234  0.6126
  130OSM   H14S14004   4.802   3.654   7.784 -1.1151 -0.2123  0.7279
  130OSM   H14T14005   4.659   3.771   7.787 -0.1023  3.3020 -2.3895
  130OSM   C15S14006   4.831   3.870   7.854 -0.0183 -0.3510  0.0497
  130OSM   H15S14007   4.798   3.973   7.828  1.1956  0.1261  0.3427
  130OSM   H15T14008   4.942   3.876   7.845 -0.1662  1.7654 -0.9893
  130OSM   C16S14009   4.797   3.857   8.002  0.1448 -0.1130  0.4799
  130OSM   H16S14010   4.688   3.869   8.019  0.4074  0.8429  1.5839
  130OSM   H16T14011   4.841   3.938   8.064 -1.1466 -0.2893  1.6669
  130OSM   C17S14012   4.827   3.712   8.049  0.3491  0.5433  0.2164
  130OSM   H17S14013   4.900   3.664   7.980  0.5330 -2.6327  2.3917
  130OSM   H17T14014   4.734   3.652   8.048  1.1007 -0.6990 -1.6222
  130OSM   C18S14015   4.886   3.679   8.180 -0.5000 -0.9773 -0.1094
  130OSM   H18S14016   4.986   3.728   8.185 -0.0069 -1.9760 -0.1233
  130OSM   H18T14017   4.897   3.573   8.209  1.0162 -0.6511  0.6507
  130OSM   H18U14018   4.817   3.715   8.260 -2.9422 -0.9613 -2.0865
  130OSM    C1F14019   4.523   4.325   6.610  0.1936  0.0489  0.6268
  130OSM     OF14020   4.413   4.314   6.557  0.2684  0.4431 -0.3348
  130OSM    C2F14021   4.554   4.430   6.718 -0.0776  0.0509  0.0707
  130OSM    H2F14022   4.514   4.521   6.668 -2.0222 -1.2501 -0.9010
  130OSM    H2G14023   4.665   4.430   6.724 -0.0674 -2.2453  0.9751
  130OSM    C3F14024   4.499   4.388   6.856 -0.1524 -0.6493  0.3751
  130OSM    H3F14025   4.389   4.376   6.842  0.0187 -2.6595  0.4528
  130OSM    H3G14026   4.515   4.470   6.928 -0.4227 -0.5264  0.2963
  130OSM    C4F14027   4.555   4.254   6.909  0.3908  0.0689 -0.4111
  130OSM    H4F14028   4.665   4.248   6.922  0.5610  1.4224 -1.0466
  130OSM    H4G14029   4.523   4.166   6.850  0.4758 -0.9462  1.0120
  130OSM    C5F14030   4.497   4.213   7.053 -0.2832  0.3797  0.0058
  130OSM    H5F14031   4.499   4.105   7.076 -0.6866  0.8346  2.4479
  130OSM    H5G14032   4.391   4.248   7.048 -0.3981 -0.1168 -1.2636
  130OSM    C6F14033   4.571   4.290   7.159 -0.1252  0.2332 -1.1876
  130OSM    H6F14034   4.554   4.400   7.154  1.4916  0.6763  1.2766
  130OSM    H6G14035   4.678   4.264   7.146 -0.2647  0.1874 -2.3824
  130OSM    C7F14036   4.504   4.258   7.298  0.2349  0.3706  0.1881
  130OSM    H7F14037   4.484   4.151   7.321 -0.1316  0.1725 -1.0093
  130OSM    H7G14038   4.401   4.298   7.300  0.2790  0.6831 -1.8357
  130OSM    C8F14039   4.590   4.316   7.413 -0.5430 -0.0602 -0.7578
  130OSM    H8F14040   4.599   4.427   7.412 -1.4021  0.0252 -0.3768
  130OSM    H8G14041   4.690   4.274   7.391  0.2027  1.8720 -1.3122
  130OSM    C9F14042   4.540   4.277   7.546 -0.0488 -0.0798 -0.2558
  130OSM    H9F14043   4.446   4.221   7.530 -0.5948  1.1558 -1.6387
  130OSM   C10F14044   4.598   4.297   7.667  0.1603  0.1133 -0.0602
  130OSM   H10F14045   4.537   4.254   7.748  0.8047  1.0629  0.9552
  130OSM   C11F14046   4.728   4.373   7.685  0.1792 -0.4779 -0.4005
  130OSM   H11F14047   4.739   4.443   7.600 -0.6662 -1.7547 -1.6120
  130OSM   H11G14048   4.819   4.310   7.672  2.3278  2.4116 -0.4701
  130OSM   C12F14049   4.754   4.426   7.830  0.3561 -0.2081 -1.0283
  130OSM   H12F14050   4.675   4.499   7.857  0.3173 -0.7389  0.3581
  130OSM   H12G14051   4.852   4.475   7.846 -1.1723  2.2392  1.9807
  130OSM   C13F14052   4.760   4.312   7.939  0.1654 -0.9603  0.3198
  130OSM   H13F14053   4.855   4.255   7.924  1.5027  0.9526  1.0517
  130OSM   H13G14054   4.676   4.240   7.944 -1.4822  0.7125 -1.6751
  130OSM   C14F14055   4.763   4.373   8.079 -0.2702 -0.0275  0.0336
  130OSM   H14F14056   4.673   4.435   8.098 -0.1641  0.3440 -0.6478
  130OSM   H14G14057   4.854   4.436   8.075 -0.5890  0.4212 -2.9659
  130OSM   C15F14058   4.777   4.260   8.182  0.0538  0.2244  0.3862
  130OSM   H15F14059   4.875   4.208   8.189  0.0208  0.1150  0.0414
  130OSM   H15G14060   4.697   4.186   8.161 -0.7717  1.0628  0.5201
  130OSM   C16F14061   4.757   4.306   8.324  0.8611  0.5709  0.5992
  130OSM   H16F14062   4.656   4.349   8.343 -0.2468 -1.3893 -0.5498
  130OSM   H16G14063   4.827   4.390   8.346 -0.4871  1.2384  2.6761
  130OSM   C17F14064   4.787   4.200   8.431  0.0529 -0.3513 -0.1795
  130OSM   H17F14065   4.806   4.245   8.530  4.4298  0.3670 -1.1304
  130OSM   H17G14066   4.890   4.167   8.405  0.7909  1.1111  0.7984
  130OSM   C18F14067   4.681   4.083   8.443 -0.1454 -0.0754  0.0994
  130OSM   H18F14068   4.682   4.017   8.353  3.1958 -0.5096  0.3151
  130OSM   H18G14069   4.582   4.130   8.459 -0.5032 -0.8307  0.1380
  130OSM   H18H14070   4.692   4.014   8.529 -0.5079 -1.8445 -1.2168
  131OSM      N14071   1.443   5.936   5.659  0.5878  0.2507 -1.0016
  131OSM    C1514072   1.393   5.841   5.556 -0.5715 -0.7016 -0.3574
  131OSM   H15A14073   1.399   5.882   5.456  0.1438  2.3241  0.8263
  131OSM   H15B14074   1.289   5.830   5.584 -0.3140  1.8870  1.9770
  131OSM   H15C14075   1.437   5.744   5.576 -2.7132 -1.6068  0.3036
  131OSM    C1414076   1.587   5.946   5.629  1.0301 -0.8630 -0.7681
  131OSM   H14A14077   1.612   6.004   5.717 -2.8277  0.6480 -0.4881
  131OSM   H14B14078   1.610   5.998   5.538 -0.6847  2.0996  0.3749
  131OSM   H14C14079   1.631   5.848   5.639  1.3506 -0.6590 -0.1004
  131OSM    C1314080   1.389   6.074   5.645  0.3604 -0.9379 -1.0160
  131OSM   H13A14081   1.458   6.153   5.673 -0.5389  1.2844 -4.3778
  131OSM   H13B14082   1.292   6.093   5.687  0.6025 -1.0483 -0.3957
  131OSM   H13C14083   1.377   6.099   5.540  0.3126  1.3573 -0.5199
  131OSM    C1214084   1.420   5.886   5.799 -0.2112  0.6320  0.2406
  131OSM   H12A14085   1.318   5.895   5.833  0.2120 -0.1428  1.8074
  131OSM   H12B14086   1.477   5.950   5.864  2.7801 -1.4342 -0.1389
  131OSM    C1114087   1.472   5.741   5.830  0.5459 -0.0533  0.2430
  131OSM   H11A14088   1.420   5.667   5.766  1.0534  0.7913 -1.2103
  131OSM   H11B14089   1.444   5.717   5.934  3.8915  1.2755  1.5999
  131OSM      P14090   1.710   5.757   5.933  0.0468 -0.6356  0.1526
  131OSM    O1314091   1.842   5.721   5.882 -0.2000  0.2852 -0.0030
  131OSM    O1414092   1.711   5.900   5.975  0.3587  0.1129 -0.1181
  131OSM    O1114093   1.668   5.655   6.045  0.2704  0.0195 -0.7019
  131OSM    O1214094   1.616   5.714   5.811  0.1971 -0.1636  0.0075
  131OSM    C1S14095   1.747   5.634   6.169 -0.1522 -0.1056  1.2198
  131OSM    H1S14096   1.846   5.685   6.174  0.7141 -1.8422  3.1533
  131OSM    H1T14097   1.764   5.526   6.186  2.6230  0.5160  3.0690
  131OSM     NF14098   1.767   5.684   6.413 -0.4657  0.7543  0.7806
  131OSM    HNF14099   1.773   5.603   6.471  1.2439 -0.5777 -1.0948
  131OSM    C2S14100   1.672   5.669   6.300  0.0428  0.0765 -0.3819
  131OSM    H2S14101   1.617   5.764   6.283 -1.5429 -0.6110  0.6538
  131OSM    C3S14102   1.560   5.563   6.326  0.3443  0.0183  0.4331
  131OSM    H3S14103   1.608   5.464   6.340  1.2007  0.4461  0.6256
  131OSM     O314104   1.470   5.564   6.216 -1.0322 -0.1878  0.1902
  131OSM    HO314105   1.534   5.584   6.147 -1.0581 -0.9712 -0.0700
  131OSM    C4S14106   1.492   5.599   6.451 -0.0371 -0.6018 -0.4006
  131OSM    H4S14107   1.481   5.512   6.518  0.2456 -0.0808  0.3437
  131OSM    C5S14108   1.445   5.727   6.484  0.0965  0.2141  0.4224
  131OSM    H5S14109   1.468   5.820   6.432 -0.3567  0.5510  0.8168
  131OSM    C6S14110   1.374   5.764   6.609  0.1158 -0.1201  0.0136
  131OSM    H6S14111   1.348   5.673   6.667  0.5950  0.9975  2.1076
  131OSM    H6T14112   1.285   5.825   6.583 -0.3536 -1.7407 -2.4120
  131OSM    C7S14113   1.464   5.843   6.700 -0.8285 -0.0056 -0.4179
  131OSM    H7S14114   1.504   5.928   6.641 -0.8470  0.8111  0.7301
  131OSM    H7T14115   1.543   5.774   6.737 -0.8579 -0.2357 -0.7710
  131OSM    C8S14116   1.377   5.921   6.801 -0.2862 -0.1864 -0.0259
  131OSM    H8S14117   1.278   5.870   6.797 -0.1053 -0.5999  0.6991
  131OSM    H8T14118   1.356   6.025   6.767  3.7259  1.0132  0.6905
  131OSM    C9S14119   1.439   5.926   6.945 -0.2106  0.1786 -0.2711
  131OSM    H9S14120   1.533   5.986   6.943 -0.6047  0.8017 -1.2918
  131OSM    H9T14121   1.453   5.823   6.982  0.1939  0.0132 -0.8591
  131OSM   C10S14122   1.351   6.012   7.036 -0.7187 -0.0793 -0.2251
  131OSM   H10S14123   1.263   5.961   7.080 -0.1645 -0.4229  0.5146
  131OSM   H10T14124   1.310   6.096   6.975 -2.1434  0.7666  1.7637
  131OSM   C11S14125   1.432   6.092   7.145  0.0333 -0.4736 -0.3319
  131OSM   H11S14126   1.520   6.142   7.099  0.8101 -0.6838  0.8622
  131OSM   H11T14127   1.484   6.021   7.214 -0.6466 -0.8066 -0.1479
  131OSM   C12S14128   1.348   6.204   7.213  0.4694  0.2596  0.2868
  131OSM   H12S14129   1.248   6.163   7.236  0.0320  1.3038  0.2764
  131OSM   H12T14130   1.328   6.279   7.133 -0.1889 -0.5817 -0.3681
  131OSM   C13S14131   1.419   6.248   7.339  0.2612  0.4415 -0.4028
  131OSM   H13S14132   1.518   6.286   7.308 -0.9694  3.7663 -0.7121
  131OSM   H13T14133   1.440   6.161   7.405  0.6058  0.2607 -0.7484
  131OSM   C14S14134   1.347   6.357   7.413  0.1072 -0.2009  0.0543
  131OSM   H14S14135   1.408   6.371   7.505  1.1296 -0.4231 -0.5795
  131OSM   H14T14136   1.244   6.333   7.447  0.8986 -1.0502  2.0385
  131OSM   C15S14137   1.364   6.501   7.343  1.1329  0.1469  0.6831
  131OSM   H15S14138   1.333   6.504   7.236  0.6327 -2.2705  0.6894
  131OSM   H15T14139   1.473   6.520   7.349  1.3093 -0.6073  0.1048
  131OSM   C16S14140   1.303   6.607   7.432  0.6387 -0.4388  0.1978
  131OSM   H16S14141   1.194   6.601   7.454  0.7781 -1.6317  0.6187
  131OSM   H16T14142   1.304   6.706   7.382 -2.1998  0.6044  1.9186
  131OSM   C17S14143   1.369   6.618   7.573 -0.4925  0.0319 -0.2410
  131OSM   H17S14144   1.476   6.627   7.545 -0.5127  2.8166  0.3310
  131OSM   H17T14145   1.360   6.529   7.639  1.1853 -1.2098 -1.6050
  131OSM   C18S14146   1.324   6.744   7.656  0.1084 -0.2204 -0.2934
  131OSM   H18S14147   1.224   6.726   7.702  1.5237 -0.0751  3.1155
  131OSM   H18T14148   1.320   6.830   7.586  3.8852  1.3410  1.1501
  131OSM   H18U14149   1.404   6.763   7.730  1.8229  0.0101 -2.1232
  131OSM    C1F14150   1.857   5.786   6.429 -0.1125 -0.1156 -0.7389
  131OSM     OF14151   1.886   5.864   6.342 -0.0448  0.3493 -0.2585
  131OSM    C2F14152   1.931   5.786   6.559  0.1616 -0.6888  0.7015
  131OSM    H2F14153   2.038   5.766   6.538  0.7449  3.2690 -0.9448
  131OSM    H2G14154   1.904   5.696   6.618  1.7461 -1.5200  0.2193
  131OSM    C3F14155   1.939   5.921   6.625 -0.2625 -0.3130 -0.1890
  131OSM    H3F14156   1.979   5.987   6.545  0.2782 -2.7855 -2.0381
  131OSM    H3G14157   2.006   5.924   6.713 -1.6587  1.2582  0.9009
  131OSM    C4F14158   1.807   5.980   6.685 -0.5151 -0.1606  0.3709
  131OSM    H4F14159   1.780   5.939   6.785 -1.0212 -1.7733 -0.3789
  131OSM    H4G14160   1.720   5.968   6.617 -1.6768  0.1837  1.7459
  131OSM    C5F14161   1.805   6.136   6.708  0.4385  0.5889 -0.1642
  131OSM    H5F14162   1.835   6.184   6.613  3.3516 -0.2519  0.2203
  131OSM    H5G14163   1.882   6.153   6.786  0.9280  1.0533 -0.7370
  131OSM    C6F14164   1.665   6.188   6.748 -0.4042  0.3181 -0.3938
  131OSM    H6F14165   1.630   6.142   6.843  1.6031 -1.6375 -0.5135
  131OSM    H6G14166   1.595   6.158   6.667 -0.6381  1.2639 -0.5534
  131OSM    C7F14167   1.659   6.337   6.756 -0.4323 -0.6836  0.2088
  131OSM    H7F14168   1.562   6.376   6.793 -0.0607  0.7318 -0.2314
  131OSM    H7G14169   1.665   6.376   6.652  0.5695  3.0796  1.5263
  131OSM    C8F14170   1.779   6.411   6.821 -0.0257  0.2789 -0.3028
  131OSM    H8F14171   1.785   6.520   6.802 -0.2753  0.2839 -0.3461
  131OSM    H8G14172   1.877   6.369   6.790  0.4250 -0.2525  1.6949
  131OSM    C9F14173   1.763   6.394   6.971 -0.4567 -0.0473  0.0670
  131OSM    H9F14174   1.827   6.319   7.020  0.7932 -0.1051 -1.5583
  131OSM   C10F14175   1.661   6.445   7.046  0.1115 -0.0632  0.1205
  131OSM   H10F14176   1.654   6.430   7.154  0.8508 -0.3537  0.1317
  131OSM   C11F14177   1.541   6.534   7.000 -0.4855  0.1585  0.0530
  131OSM   H11F14178   1.445   6.481   7.020 -0.2801 -0.5100 -0.6513
  131OSM   H11G14179   1.546   6.545   6.889 -0.0394  0.6484  0.1176
  131OSM   C12F14180   1.527   6.675   7.057 -0.8660  0.1234 -0.1499
  131OSM   H12F14181   1.465   6.669   7.149  0.0007 -1.6677  0.3563
  131OSM   H12G14182   1.474   6.745   6.989 -0.9700  0.9361  0.7424
  131OSM   C13F14183   1.662   6.742   7.091  0.1674  0.4403  0.2015
  131OSM   H13F14184   1.724   6.721   7.001 -0.4140 -0.2514 -0.0429
  131OSM   H13G14185   1.713   6.690   7.174  0.4025 -0.2648 -0.3760
  131OSM   C14F14186   1.658   6.893   7.112  0.6689  0.7360 -0.3269
  131OSM   H14F14187   1.610   6.946   7.027  0.4847  3.6543  1.4250
  131OSM   H14G14188   1.762   6.931   7.115  1.2181 -0.6288 -1.4185
  131OSM   C15F14189   1.590   6.942   7.241 -0.2835  0.7758 -0.4159
  131OSM   H15F14190   1.493   6.889   7.256 -0.7724  2.2100  2.0945
  131OSM   H15G14191   1.561   7.049   7.238 -0.9140  0.7153  1.8769
  131OSM   C16F14192   1.657   6.899   7.373 -0.2898  0.4019  0.2633
  131OSM   H16F14193   1.757   6.948   7.371 -0.3590  0.6721 -3.6171
  131OSM   H16G14194   1.688   6.793   7.381  1.6004  0.8913 -0.0686
  131OSM   C17F14195   1.576   6.950   7.492 -0.2512  0.6519  0.6125
  131OSM   H17F14196   1.618   6.892   7.578 -0.5493  1.1727  1.1154
  131OSM   H17G14197   1.472   6.919   7.467  0.0894  0.5980 -0.7904
  131OSM   C18F14198   1.560   7.100   7.518 -0.3629  0.9491 -0.4788
  131OSM   H18F14199   1.496   7.140   7.437 -0.0733 -0.1756 -1.2803
  131OSM   H18G14200   1.663   7.141   7.507  1.1984 -2.0813  1.3974
  131OSM   H18H14201   1.507   7.102   7.616 -3.2354 -3.0934 -1.7019
  132OSM      N14202   3.310   0.055   6.106  0.9876 -0.2646  0.3348
  132OSM    C1514203   3.204   0.129   6.033 -0.8928 -0.3246  0.7838
  132OSM   H15A14204   3.112   0.123   6.089 -0.7856 -0.2303  0.9699
  132OSM   H15B14205   3.196   0.091   5.932  1.5512  0.0745  0.3728
  132OSM   H15C14206   3.236   0.232   6.033  2.7136 -1.2168  4.1619
  132OSM    C1414207   3.256  -0.076   6.134 -1.0430  0.2927  0.3917
  132OSM   H14A14208   3.181  -0.073   6.212 -1.1243  1.2340  0.2940
  132OSM   H14B14209   3.340  -0.137   6.162 -0.1661  1.2977  0.0349
  132OSM   H14C14210   3.215  -0.122   6.045 -0.2024 -0.4727  0.3862
  132OSM    C1314211   3.426   0.066   6.019  0.2222 -0.8049  0.1169
  132OSM   H13A14212   3.451   0.163   5.979 -2.2813  1.6751  3.8724
  132OSM   H13B14213   3.409   0.014   5.926 -1.1942  3.8289 -2.5423
  132OSM   H13C14214   3.514   0.021   6.064  0.6790  0.6219  0.7140
  132OSM    C1214215   3.351   0.128   6.227 -0.2422 -0.2469 -0.0043
  132OSM   H12A14216   3.431   0.068   6.266 -1.7908 -3.0375 -0.8456
  132OSM   H12B14217   3.266   0.122   6.293  0.8835 -0.1740  1.5020
  132OSM    C1114218   3.391   0.275   6.222  0.2359 -0.2471 -0.1418
  132OSM   H11A14219   3.474   0.299   6.153 -1.8019  1.8142 -2.0556
  132OSM   H11B14220   3.428   0.291   6.325 -0.5208 -1.4485  0.3455
  132OSM      P14221   3.268   0.508   6.245  0.4510 -0.3820  0.4924
  132OSM    O1314222   3.389   0.585   6.211  0.2867  0.6214  0.2839
  132OSM    O1414223   3.137   0.563   6.214 -0.7431  0.2629  0.1983
  132OSM    O1114224   3.268   0.499   6.403 -0.0200  0.0636  0.8498
  132OSM    O1214225   3.272   0.356   6.194  0.3509  0.1157  0.3745
  132OSM    C1S14226   3.169   0.441   6.480  0.2377 -0.0982 -0.3391
  132OSM    H1S14227   3.129   0.342   6.447  2.0605 -1.5970  1.6751
  132OSM    H1T14228   3.082   0.509   6.495 -0.2081 -0.8799  0.8020
  132OSM     NF14229   3.110   0.327   6.695  0.0641 -0.8599  0.0467
  132OSM    HNF14230   3.039   0.379   6.743 -0.7054 -1.0583 -0.8536
  132OSM    C2S14231   3.212   0.409   6.625  0.2464  0.0843 -0.3815
  132OSM    H2S14232   3.295   0.336   6.613  0.1732  0.1994 -1.7805
  132OSM    C3S14233   3.247   0.539   6.701 -0.2192 -0.4455  0.3015
  132OSM    H3S14234   3.162   0.610   6.711  1.4333  1.6920  0.1325
  132OSM     O314235   3.339   0.624   6.632  0.5075 -0.2032  0.8980
  132OSM    HO314236   3.346   0.587   6.544 -0.5149  0.7931  0.3681
  132OSM    C4S14237   3.294   0.506   6.838 -0.0751  0.2078  0.8201
  132OSM    H4S14238   3.207   0.479   6.900 -2.9541  3.2917 -1.5191
  132OSM    C5S14239   3.419   0.495   6.881  0.0036 -0.6129  0.1142
  132OSM    H5S14240   3.506   0.515   6.817  0.5298 -1.3502  0.5857
  132OSM    C6S14241   3.461   0.455   7.022  0.5174  0.3035 -0.2322
  132OSM    H6S14242   3.445   0.550   7.077  3.0929 -0.5659  2.2912
  132OSM    H6T14243   3.570   0.443   7.035  0.3513  0.4088  1.4798
  132OSM    C7S14244   3.393   0.331   7.079 -0.4565 -0.0998 -0.5908
  132OSM    H7S14245   3.409   0.253   7.001 -2.3454 -2.8045  1.5297
  132OSM    H7T14246   3.290   0.351   7.115  0.5598 -0.0102  2.6202
  132OSM    C8S14247   3.460   0.288   7.210  1.0770  0.8457 -0.0080
  132OSM    H8S14248   3.565   0.258   7.189  0.0635 -1.5947 -2.0637
  132OSM    H8T14249   3.398   0.204   7.248  1.5468  1.3819  2.1162
  132OSM    C9S14250   3.466   0.394   7.324  0.6343  0.6364 -1.5593
  132OSM    H9S14251   3.379   0.463   7.322  0.3283  0.5507  1.9478
  132OSM    H9T14252   3.559   0.452   7.309  1.9164 -1.1721 -1.0208
  132OSM   C10S14253   3.468   0.321   7.464 -0.3999  0.3884 -0.1247
  132OSM   H10S14254   3.560   0.259   7.466  0.8973  2.2159 -0.8702
  132OSM   H10T14255   3.376   0.259   7.475 -0.5203  0.7025  0.7971
  132OSM   C11S14256   3.477   0.418   7.585 -0.0417  0.3366 -0.1081
  132OSM   H11S14257   3.386   0.482   7.583  0.3753  0.9409 -2.1144
  132OSM   H11T14258   3.569   0.475   7.562  0.4171 -0.4101 -0.1498
  132OSM   C12S14259   3.513   0.346   7.716 -0.1634 -0.0056  0.0320
  132OSM   H12S14260   3.590   0.268   7.696 -0.3258  0.0219 -0.7137
  132OSM   H12T14261   3.423   0.290   7.748 -1.3907  2.3111  0.8667
  132OSM   C13S14262   3.550   0.438   7.827  0.1659  0.2232 -0.1160
  132OSM   H13S14263   3.461   0.504   7.833 -2.7335 -3.3560 -0.3571
  132OSM   H13T14264   3.630   0.509   7.797 -0.1639  0.5736 -0.1830
  132OSM   C14S14265   3.576   0.367   7.958 -0.2746  0.2222 -0.2392
  132OSM   H14S14266   3.667   0.304   7.949 -0.6276  0.0057 -3.6841
  132OSM   H14T14267   3.489   0.299   7.973  1.7608 -2.6279 -0.4560
  132OSM   C15S14268   3.584   0.457   8.082 -0.1253  0.3265  0.6417
  132OSM   H15S14269   3.484   0.504   8.093 -0.4057  0.4342 -1.7926
  132OSM   H15T14270   3.659   0.538   8.069 -1.7902  1.8192 -0.1169
  132OSM   C16S14271   3.616   0.384   8.214  0.0068  0.3120 -0.1415
  132OSM   H16S14272   3.703   0.316   8.201  0.0472 -0.0684  1.8397
  132OSM   H16T14273   3.528   0.327   8.249 -0.1818  0.6732 -0.0173
  132OSM   C17S14274   3.661   0.476   8.324 -0.3605  0.5561 -0.3803
  132OSM   H17S14275   3.761   0.512   8.292 -0.4635  1.1260 -0.0925
  132OSM   H17T14276   3.675   0.427   8.423 -2.1024  2.1892  0.7549
  132OSM   C18S14277   3.565   0.590   8.360  0.5311  0.1320 -0.6264
  132OSM   H18S14278   3.469   0.552   8.401  1.5679  2.1789  4.5303
  132OSM   H18T14279   3.545   0.647   8.267 -2.2801 -0.4845 -0.4832
  132OSM   H18U14280   3.612   0.661   8.431 -1.1404  0.9724 -0.3129
  132OSM    C1F14281   3.089   0.204   6.674 -0.7084  0.3033  0.3843
  132OSM     OF14282   3.154   0.147   6.590  0.2515 -0.1436 -0.4519
  132OSM    C2F14283   2.964   0.148   6.739 -0.8527  0.1268 -0.1386
  132OSM    H2F14284   2.883   0.187   6.673 -1.0043  1.1399  0.6382
  132OSM    H2G14285   2.950   0.187   6.842 -1.9496 -3.3768  1.2043
  132OSM    C3F14286   2.972  -0.007   6.740 -0.3156 -0.3993  0.2701
  132OSM    H3F14287   3.001  -0.051   6.643 -0.9707  0.7478 -0.4701
  132OSM    H3G14288   2.866  -0.034   6.761 -0.7114  0.5902 -0.3598
  132OSM    C4F14289   3.054  -0.056   6.860  0.0523 -0.1460 -0.3058
  132OSM    H4F14290   3.149  -0.003   6.883  1.0280 -1.1798 -1.7964
  132OSM    H4G14291   3.071  -0.165   6.844 -0.7821 -0.4037  0.4673
  132OSM    C5F14292   2.975  -0.042   6.994  0.4199 -1.0819 -0.0823
  132OSM    H5F14293   2.872  -0.083   6.985 -0.3890  0.1388  2.5940
  132OSM    H5G14294   2.957   0.065   7.020 -1.3967 -1.1399 -0.8982
  132OSM    C6F14295   3.034  -0.104   7.117 -0.3499  0.0899 -1.1864
  132OSM    H6F14296   3.128  -0.053   7.145 -1.0462  0.0769  1.3697
  132OSM    H6G14297   3.037  -0.210   7.084 -1.7687 -0.9222  1.5845
  132OSM    C7F14298   2.936  -0.095   7.239  0.2631  0.5681 -0.0251
  132OSM    H7F14299   2.856  -0.171   7.232 -0.4096  0.9574  2.4883
  132OSM    H7G14300   2.884   0.003   7.245 -2.6729 -0.9569  1.7325
  132OSM    C8F14301   3.009  -0.132   7.370 -0.6113 -0.0507 -0.0009
  132OSM    H8F14302   3.102  -0.072   7.368 -0.0048 -0.9488  0.5817
  132OSM    H8G14303   3.043  -0.238   7.366  0.9198  0.3455  1.4542
  132OSM    C9F14304   2.932  -0.105   7.495  0.0246  0.7530 -0.4620
  132OSM    H9F14305   2.898  -0.000   7.504 -0.5191  0.6558 -1.2729
  132OSM   C10F14306   2.891  -0.197   7.588 -0.0137 -0.6965 -0.1998
  132OSM   H10F14307   2.819  -0.169   7.667 -2.5793 -2.5197 -1.7110
  132OSM   C11F14308   2.914  -0.346   7.597  0.1251 -0.0121  0.9903
  132OSM   H11F14309   2.953  -0.380   7.695  4.5189 -3.7679 -1.6593
  132OSM   H11G14310   2.995  -0.377   7.528 -0.6210 -3.0709  1.3199
  132OSM   C12F14311   2.786  -0.431   7.552 -0.6885  0.2789 -0.5519
  132OSM   H12F14312   2.817  -0.538   7.548 -0.0392  0.1592  3.2212
  132OSM   H12G14313   2.754  -0.404   7.450  0.1066 -0.1474 -0.9278
  132OSM   C13F14314   2.660  -0.425   7.638 -0.2820  0.2842  0.1858
  132OSM   H13F14315   2.582  -0.476   7.578 -0.6185  0.0285  0.8384
  132OSM   H13G14316   2.626  -0.320   7.648  1.9848  1.1149 -0.2720
  132OSM   C14F14317   2.667  -0.477   7.782  0.6642  0.6902  0.2977
  132OSM   H14F14318   2.759  -0.431   7.824  1.6570 -1.3704  0.4791
  132OSM   H14G14319   2.670  -0.588   7.788  1.5934  0.5806 -1.5785
  132OSM   C15F14320   2.545  -0.439   7.866 -0.3444  0.6432 -0.1231
  132OSM   H15F14321   2.471  -0.521   7.855  1.9955 -1.5840 -0.1426
  132OSM   H15G14322   2.495  -0.340   7.855 -0.9338  0.6066  1.9101
  132OSM   C16F14323   2.583  -0.452   8.015  0.1711 -0.2624  0.7203
  132OSM   H16F14324   2.670  -0.383   8.020 -1.2365  1.6566 -0.0437
  132OSM   H16G14325   2.612  -0.558   8.032  0.7380 -0.1377  0.5567
  132OSM   C17F14326   2.470  -0.391   8.106 -0.9233  0.2115 -0.3250
  132OSM   H17F14327   2.393  -0.470   8.118 -0.1051 -0.4424  0.7377
  132OSM   H17G14328   2.421  -0.314   8.042 -1.3572  0.3241  0.1406
  132OSM   C18F14329   2.519  -0.334   8.238 -0.1007  0.4417  0.2449
  132OSM   H18F14330   2.546  -0.411   8.313 -1.5814 -2.4708 -2.0286
  132OSM   H18G14331   2.444  -0.265   8.282 -2.0785 -0.0561 -2.1605
  132OSM   H18H14332   2.619  -0.287   8.221 -1.0250  1.6721 -2.2899
  133OSM      N14333   4.215   1.395   6.041  0.3553 -0.2872 -0.1750
  133OSM    C1514334   4.133   1.347   5.926  0.6275  0.8600 -0.3110
  133OSM   H15A14335   4.034   1.323   5.962  0.4530  0.2884 -1.1463
  133OSM   H15B14336   4.173   1.254   5.888  0.1648  0.7482 -0.5385
  133OSM   H15C14337   4.115   1.411   5.842 -1.7214 -0.4898 -0.9470
  133OSM    C1414338   4.206   1.287   6.149 -0.1716 -0.4196  0.5906
  133OSM   H14A14339   4.102   1.267   6.171 -0.8329  0.0799 -1.7969
  133OSM   H14B14340   4.258   1.330   6.233 -0.2955  2.8755 -0.8352
  133OSM   H14C14341   4.264   1.202   6.116  0.5399  1.0274 -2.2311
  133OSM    C1314342   4.358   1.398   6.000  0.4650 -0.3576 -0.3404
  133OSM   H13A14343   4.375   1.492   5.950 -0.7098 -0.1818 -0.4283
  133OSM   H13B14344   4.391   1.329   5.924 -0.0556 -0.8103 -0.1636
  133OSM   H13C14345   4.427   1.393   6.083 -2.0013 -0.6748  1.8334
  133OSM    C1214346   4.163   1.531   6.091  0.3376  0.9015  0.3703
  133OSM   H12A14347   4.058   1.522   6.111  0.4761  1.0930  1.2209
  133OSM   H12B14348   4.177   1.612   6.021 -0.0110  0.5722 -0.0919
  133OSM    C1114349   4.237   1.588   6.206  0.1130  0.3101 -0.1827
  133OSM   H11A14350   4.232   1.523   6.296 -0.1711  0.3451 -0.1744
  133OSM   H11B14351   4.199   1.685   6.246 -0.6383 -0.4976  1.0990
  133OSM      P14352   4.506   1.586   6.259  0.2288  0.1470 -0.5499
  133OSM    O1314353   4.616   1.548   6.172  0.6304  0.7612  0.0915
  133OSM    O1414354   4.527   1.693   6.359 -0.3205  0.0535 -0.1466
  133OSM    O1114355   4.456   1.457   6.338  0.1783  0.1813  0.6643
  133OSM    O1214356   4.379   1.628   6.174  0.1103 -0.0272 -0.5304
  133OSM    C1S14357   4.518   1.409   6.466  0.4440  0.3028 -0.1925
  133OSM    H1S14358   4.611   1.467   6.485 -0.1066  1.6149 -1.3143
  133OSM    H1T14359   4.547   1.302   6.461  2.5571  0.8356 -0.1473
  133OSM     NF14360   4.502   1.411   6.713 -1.3141  0.2518  0.1929
  133OSM    HNF14361   4.491   1.322   6.756  0.6966 -0.1181  0.0262
  133OSM    C2S14362   4.424   1.442   6.591 -0.2981  0.5736 -0.6608
  133OSM    H2S14363   4.394   1.549   6.594  1.3315  1.0620 -1.1935
  133OSM    C3S14364   4.305   1.342   6.593  1.0796 -0.4382 -0.3275
  133OSM    H3S14365   4.345   1.239   6.599  3.3679  0.2773 -1.9062
  133OSM     O314366   4.222   1.351   6.476 -0.1804  0.1458  0.2678
  133OSM    HO314367   4.283   1.398   6.418 -0.0386 -0.5383 -0.1578
  133OSM    C4S14368   4.222   1.361   6.720 -0.1562 -1.1508  0.0578
  133OSM    H4S14369   4.190   1.464   6.739  1.5888 -0.2201 -1.7226
  133OSM    C5S14370   4.186   1.260   6.798 -0.1551 -0.0119 -0.0958
  133OSM    H5S14371   4.246   1.168   6.787 -0.1938 -0.2171  1.2209
  133OSM    C6S14372   4.100   1.273   6.925 -0.1135  0.7626  0.2094
  133OSM    H6S14373   4.016   1.200   6.918 -1.4280  2.4021 -3.3629
  133OSM    H6T14374   4.069   1.379   6.940  0.9742  0.9616  1.1866
  133OSM    C7S14375   4.191   1.255   7.048  0.1031  0.3316 -0.3534
  133OSM    H7S14376   4.271   1.332   7.056 -0.4651  1.0409 -1.2704
  133OSM    H7T14377   4.243   1.158   7.033 -0.1214  0.0963  0.3671
  133OSM    C8S14378   4.102   1.265   7.170  0.5580  0.9105 -0.5323
  133OSM    H8S14379   4.041   1.174   7.186  1.0997  0.7503  0.7123
  133OSM    H8T14380   4.028   1.348   7.167  1.0295  1.3224 -2.4737
  133OSM    C9S14381   4.185   1.283   7.299 -0.2714 -0.6692  0.0502
  133OSM    H9S14382   4.255   1.368   7.285 -1.7416  0.3488 -1.4503
  133OSM    H9T14383   4.240   1.187   7.309  2.0093  0.4538 -0.8842
  133OSM   C10S14384   4.102   1.306   7.425  0.2028  0.1164 -0.4010
  133OSM   H10S14385   4.035   1.218   7.428  0.3176  0.0373 -0.1350
  133OSM   H10T14386   4.045   1.400   7.411  2.2649  1.9381  2.2599
  133OSM   C11S14387   4.184   1.321   7.553  0.0605  0.2393 -0.6600
  133OSM   H11S14388   4.237   1.418   7.556  1.0136 -0.2884  1.0443
  133OSM   H11T14389   4.246   1.229   7.559 -1.5597 -0.7976  1.8388
  133OSM   C12S14390   4.095   1.307   7.679 -0.2170  0.1025  0.4902
  133OSM   H12S14391   4.058   1.202   7.684  1.7701 -0.6814 -0.5043
  133OSM   H12T14392   4.011   1.379   7.675 -0.3743 -0.1181 -0.2277
  133OSM   C13S14393   4.171   1.329   7.811  0.4561 -0.2783  0.2038
  133OSM   H13S14394   4.224   1.426   7.813  0.5314 -0.3316  1.6833
  133OSM   H13T14395   4.255   1.256   7.805  1.8841  1.2332  1.1422
  133OSM   C14S14396   4.081   1.332   7.931  0.3145  0.2432  0.3840
  133OSM   H14S14397   4.032   1.236   7.958 -0.6294  0.3900 -0.7119
  133OSM   H14T14398   3.997   1.404   7.913  1.9928  1.6834 -2.4433
  133OSM   C15S14399   4.149   1.378   8.054  0.1971  0.4375 -0.3557
  133OSM   H15S14400   4.176   1.484   8.036 -0.5783  1.0436  1.7785
  133OSM   H15T14401   4.230   1.306   8.077 -0.9094 -1.2853 -1.6071
  133OSM   C16S14402   4.050   1.365   8.173 -0.0943  0.8783 -0.2612
  133OSM   H16S14403   4.040   1.257   8.197  0.6909  0.3963 -1.9577
  133OSM   H16T14404   3.955   1.402   8.130  0.8151 -0.0928 -3.3197
  133OSM   C17S14405   4.079   1.445   8.295 -0.3399 -0.2543 -0.8315
  133OSM   H17S14406   4.187   1.467   8.284 -0.3023  0.4109  0.6572
  133OSM   H17T14407   4.064   1.380   8.384  0.6777  0.6679  0.0399
  133OSM   C18S14408   4.006   1.577   8.317 -0.1220  0.0008 -0.2105
  133OSM   H18S14409   4.047   1.651   8.388  0.1927 -1.8849  1.6594
  133OSM   H18T14410   3.904   1.557   8.357 -0.8184 -1.0899 -2.3665
  133OSM   H18U14411   3.991   1.623   8.217  0.3312  0.2493 -0.1618
  133OSM    C1F14412   4.605   1.488   6.748 -0.2254 -0.7773  0.3818
  133OSM     OF14413   4.643   1.583   6.681 -0.1510 -0.0066  0.8099
  133OSM    C2F14414   4.680   1.452   6.870  0.3098  0.0287  0.2018
  133OSM    H2F14415   4.725   1.547   6.904  1.9587 -0.7647  0.3208
  133OSM    H2G14416   4.761   1.379   6.850 -0.8888 -0.8107 -1.9908
  133OSM    C3F14417   4.590   1.408   6.988  0.5456 -0.1755 -0.7138
  133OSM    H3F14418   4.545   1.310   6.963  2.4699 -1.1867 -0.4490
  133OSM    H3G14419   4.506   1.478   7.006  0.7249 -0.0759 -0.2478
  133OSM    C4F14420   4.664   1.398   7.124  0.1168  0.2079  0.2546
  133OSM    H4F14421   4.724   1.491   7.128 -1.2005  1.2189 -1.7921
  133OSM    H4G14422   4.734   1.313   7.136 -0.0850  0.0233  0.1266
  133OSM    C5F14423   4.577   1.386   7.252  0.2678  0.7499  0.7430
  133OSM    H5F14424   4.504   1.302   7.250 -2.7714  3.1613  2.3820
  133OSM    H5G14425   4.514   1.477   7.256 -2.7234 -1.0885 -1.2397
  133OSM    C6F14426   4.650   1.382   7.387  0.2030  0.2556 -0.1595
  133OSM    H6F14427   4.705   1.478   7.401  4.2474 -1.7694 -0.5496
  133OSM    H6G14428   4.719   1.296   7.396 -1.0785 -0.7521  0.2444
  133OSM    C7F14429   4.536   1.367   7.492 -0.7409 -0.3472  0.2447
  133OSM    H7F14430   4.484   1.271   7.472 -0.9700 -0.5859  1.8935
  133OSM    H7G14431   4.462   1.449   7.480  0.3300  1.1878  3.1239
  133OSM    C8F14432   4.582   1.370   7.642  0.0471  0.0636 -0.1051
  133OSM    H8F14433   4.483   1.374   7.691  0.5742 -0.1689  1.0120
  133OSM    H8G14434   4.635   1.467   7.650  0.1798  0.0886 -1.1703
  133OSM    C9F14435   4.682   1.266   7.686 -0.2145 -0.6767  0.0980
  133OSM    H9F14436   4.775   1.258   7.629 -0.2020  0.4053 -0.0689
  133OSM   C10F14437   4.673   1.183   7.788 -0.4112 -0.5429 -0.2388
  133OSM   H10F14438   4.763   1.121   7.795 -1.1912 -1.7901 -0.8674
  133OSM   C11F14439   4.568   1.172   7.897  0.5737  0.7116 -0.1064
  133OSM   H11F14440   4.484   1.243   7.879 -0.0414 -0.1784 -0.8315
  133OSM   H11G14441   4.619   1.214   7.986  3.0224 -0.8139 -0.6950
  133OSM   C12F14442   4.507   1.032   7.919 -0.1778 -0.0664 -0.7062
  133OSM   H12F14443   4.584   0.962   7.958 -0.0536  1.4402  2.0052
  133OSM   H12G14444   4.448   0.993   7.833 -0.3565 -3.6987  0.8957
  133OSM   C13F14445   4.404   1.035   8.042  0.5977  0.7324  0.5043
  133OSM   H13F14446   4.358   0.934   8.042  2.2042 -0.0555  2.0101
  133OSM   H13G14447   4.320   1.103   8.017  0.9456  0.3180 -2.0141
  133OSM   C14F14448   4.478   1.052   8.181 -1.1114  0.2882 -0.3884
  133OSM   H14F14449   4.537   1.146   8.170  0.0527 -0.3539  0.1059
  133OSM   H14G14450   4.555   0.975   8.204 -1.6684 -0.4283 -0.8840
  133OSM   C15F14451   4.384   1.077   8.300  1.1265  0.3884  0.3302
  133OSM   H15F14452   4.313   0.993   8.311  0.6479  0.7929  0.3791
  133OSM   H15G14453   4.318   1.159   8.265 -0.4082 -1.3119 -0.9111
  133OSM   C16F14454   4.451   1.118   8.434  1.0897 -0.7382  0.3997
  133OSM   H16F14455   4.364   1.136   8.501  2.2035 -0.8049  1.9001
  133OSM   H16G14456   4.495   1.220   8.435  0.8023 -0.5181 -2.1321
  133OSM   C17F14457   4.526   1.008   8.504 -0.9247  0.1779 -0.1855
  133OSM   H17F14458   4.616   0.980   8.445  0.7260  0.3299  2.0914
  133OSM   H17G14459   4.457   0.923   8.522  1.2610 -1.9476 -1.3778
  133OSM   C18F14460   4.582   1.059   8.642  0.3363 -0.2849 -0.6252
  133OSM   H18F14461   4.661   1.134   8.621  0.9957 -0.0663  2.2837
  133OSM   H18G14462   4.633   0.981   8.703 -0.1914 -1.2442 -1.3850
  133OSM   H18H14463   4.502   1.105   8.703 -0.1771  0.3724 -1.7601
  134OSM      N14464   4.211   4.882   6.293  0.4220  0.0562  0.0598
  134OSM    C1514465   4.219   4.810   6.165  0.6262 -0.3641 -0.4844
  134OSM   H15A14466   4.204   4.705   6.187 -1.2656  0.1624  1.0706
  134OSM   H15B14467   4.320   4.815   6.127 -0.0109  0.7610 -2.1330
  134OSM   H15C14468   4.141   4.839   6.096  1.1525 -0.3696 -1.0873
  134OSM    C1414469   4.083   4.849   6.364  0.4320 -0.3505 -0.4354
  134OSM   H14A14470   4.002   4.889   6.305  1.9115 -1.5776 -3.5600
  134OSM   H14B14471   4.077   4.895   6.461 -1.2929  0.0380 -0.6854
  134OSM   H14C14472   4.076   4.742   6.378  1.6695 -0.2617  1.1315
  134OSM    C1314473   4.322   4.837   6.384  0.4770  0.1566 -0.4541
  134OSM   H13A14474   4.418   4.829   6.336  0.8968 -0.1691  0.4173
  134OSM   H13B14475   4.307   4.734   6.415  0.9944  0.4432  0.8147
  134OSM   H13C14476   4.342   4.898   6.470  1.3941 -1.8044  0.8040
  134OSM    C1214477   4.216   5.034   6.265  0.0386  0.5975  0.2722
  134OSM   H12A14478   4.135   5.070   6.204 -1.1514  0.4050  1.6780
  134OSM   H12B14479   4.307   5.063   6.215  0.6504 -0.5513  0.6905
  134OSM    C1114480   4.222   5.129   6.385 -0.0175  1.2730 -0.0661
  134OSM   H11A14481   4.140   5.092   6.450  1.2799 -2.9361 -0.5066
  134OSM   H11B14482   4.208   5.230   6.341 -1.4987 -0.2833 -3.4740
  134OSM      P14483   4.476   5.180   6.395 -0.2644  0.1080 -0.0863
  134OSM    O1314484   4.517   5.116   6.267  0.1830 -0.5347 -0.3736
  134OSM    O1414485   4.450   5.327   6.387  0.3822  0.6422 -0.8931
  134OSM    O1114486   4.584   5.148   6.510  0.4025  0.4463  0.2806
  134OSM    O1214487   4.346   5.109   6.455  0.1985 -0.9299 -0.2525
  134OSM    C1S14488   4.626   5.258   6.598 -0.3616 -0.2148  1.0361
  134OSM    H1S14489   4.552   5.272   6.679 -0.6516 -1.2491  0.9676
  134OSM    H1T14490   4.640   5.354   6.545 -0.4681 -0.9624 -0.3985
  134OSM     NF14491   4.779   5.324   6.776  0.1327  0.5309 -0.0475
  134OSM    HNF14492   4.858   5.384   6.777 -0.3954  1.2415  0.6008
  134OSM    C2S14493   4.761   5.230   6.663 -0.5402  0.2973 -0.4655
  134OSM    H2S14494   4.750   5.128   6.706  0.3825  1.3667  2.5589
  134OSM    C3S14495   4.880   5.219   6.564  0.1551  0.5132 -0.0335
  134OSM    H3S14496   4.905   5.322   6.529  1.8351 -0.4590 -1.8865
  134OSM     O314497   4.854   5.144   6.446 -0.4205 -0.2197 -0.0569
  134OSM    HO314498   4.765   5.114   6.465 -0.3810 -0.1009  0.3274
  134OSM    C4S14499   4.999   5.178   6.635 -0.4853 -0.1786  0.2036
  134OSM    H4S14500   5.078   5.252   6.652 -2.0110  1.9042 -1.3356
  134OSM    C5S14501   5.032   5.054   6.677  0.3524 -0.3690 -0.0586
  134OSM    H5S14502   4.974   4.966   6.645  2.4695 -1.3523 -1.4162
  134OSM    C6S14503   5.161   5.025   6.757 -0.0032 -0.6759  0.2907
  134OSM    H6S14504   5.242   5.084   6.706  0.2849 -1.3908 -0.0925
  134OSM    H6T14505   5.197   4.922   6.738 -0.4010 -0.3418 -3.0609
  134OSM    C7S14506   5.173   5.065   6.905  0.6621  0.1052 -0.2337
  134OSM    H7S14507   5.141   5.172   6.907 -0.3194 -0.1886  0.4649
  134OSM    H7T14508   5.282   5.070   6.929  0.5464 -1.2474  0.6545
  134OSM    C8S14509   5.071   5.009   7.006  0.2428  0.1755  0.0853
  134OSM    H8S14510   5.079   4.903   6.972 -0.5277  0.1739 -0.0877
  134OSM    H8T14511   4.972   5.052   6.983 -0.4354 -0.7440  1.1644
  134OSM    C9S14512   5.100   5.005   7.156  0.4957  0.5100 -0.4577
  134OSM    H9S14513   5.199   4.956   7.168 -0.8540 -2.2969  0.2395
  134OSM    H9T14514   5.031   4.926   7.194 -1.1030  0.9600 -2.2331
  134OSM   C10S14515   5.082   5.137   7.222 -0.0745 -0.1912  0.4597
  134OSM   H10S14516   4.976   5.171   7.230  0.3717  1.5087 -0.3726
  134OSM   H10T14517   5.126   5.203   7.145  0.3365 -1.0832 -0.0841
  134OSM   C11S14518   5.159   5.159   7.349 -0.7955  0.8522 -0.1169
  134OSM   H11S14519   5.152   5.266   7.377 -1.8108  0.5004  1.0574
  134OSM   H11T14520   5.268   5.148   7.332 -0.7764 -3.0533  1.5512
  134OSM   C12S14521   5.100   5.073   7.464  0.3521 -0.5415  0.8122
  134OSM   H12S14522   5.128   4.966   7.458  0.2872 -0.6151  1.6170
  134OSM   H12T14523   4.990   5.077   7.447  0.4381 -0.0071  0.3475
  134OSM   C13S14524   5.143   5.132   7.598 -0.4901  0.3019  0.0133
  134OSM   H13S14525   5.118   5.239   7.585 -0.0519  0.5185  0.9331
  134OSM   H13T14526   5.253   5.119   7.595 -0.6150 -1.9070  2.0278
  134OSM   C14S14527   5.082   5.061   7.723  0.1656 -0.3844  1.1094
  134OSM   H14S14528   5.129   4.962   7.741  0.1959 -0.0408  3.1514
  134OSM   H14T14529   4.978   5.029   7.699  1.4397 -5.5176  1.2541
  134OSM   C15S14530   5.102   5.136   7.853  0.3018  0.5133 -0.6641
  134OSM   H15S14531   5.036   5.225   7.862 -0.5231 -0.1577 -0.0032
  134OSM   H15T14532   5.208   5.171   7.853 -0.4026  2.8630 -1.6470
  134OSM   C16S14533   5.076   5.059   7.978 -0.1472  0.3189  0.6879
  134OSM   H16S14534   5.140   4.972   8.002 -0.9640 -0.4670  0.0707
  134OSM   H16T14535   4.974   5.018   7.963 -1.2930  2.5687  1.7992
  134OSM   C17S14536   5.074   5.154   8.101  0.5328 -0.0170 -0.9858
  134OSM   H17S14537   5.014   5.244   8.076 -1.6098 -0.9928  0.3578
  134OSM   H17T14538   5.178   5.172   8.135  0.6047 -2.2276  0.1537
  134OSM   C18S14539   5.000   5.087   8.222 -0.3988  0.2839 -0.0320
  134OSM   H18S14540   5.063   5.005   8.263 -0.6283  1.0948  2.0961
  134OSM   H18T14541   4.896   5.054   8.202 -1.0413  1.4004  1.3095
  134OSM   H18U14542   4.989   5.158   8.307 -1.9847 -1.5935  1.4225
  134OSM    C1F14543   4.715   5.306   6.889 -0.2275  0.0581  0.0603
  134OSM     OF14544   4.639   5.212   6.903  0.3494 -0.4026 -0.4152
  134OSM    C2F14545   4.743   5.398   6.997  0.6372 -0.1705 -1.2888
  134OSM    H2F14546   4.724   5.502   6.963 -1.5786 -0.9782 -2.7417
  134OSM    H2G14547   4.849   5.388   7.028  0.8376  0.7741 -1.6184
  134OSM    C3F14548   4.658   5.373   7.122  0.3298 -0.2760 -0.2794
  134OSM    H3F14549   4.660   5.264   7.146 -0.7541 -0.3207 -0.3401
  134OSM    H3G14550   4.552   5.406   7.109  0.4906  0.0417 -0.7819
  134OSM    C4F14551   4.720   5.450   7.252 -0.3740  0.3446  1.0938
  134OSM    H4F14552   4.707   5.553   7.212 -1.9301  0.2978  1.4403
  134OSM    H4G14553   4.824   5.414   7.266 -0.8526 -1.6450 -0.1370
  134OSM    C5F14554   4.634   5.432   7.379 -0.2127 -0.2134  0.2289
  134OSM    H5F14555   4.610   5.324   7.388 -1.3315 -0.1344 -1.3436
  134OSM    H5G14556   4.536   5.477   7.353  1.0949  1.7391 -1.7512
  134OSM    C6F14557   4.702   5.471   7.510 -0.6527 -0.5618  0.3260
  134OSM    H6F14558   4.737   5.576   7.516  0.1112 -0.4879 -3.1869
  134OSM    H6G14559   4.793   5.408   7.509 -0.0687  0.2659 -0.8592
  134OSM    C7F14560   4.624   5.436   7.639  0.3893  0.4069  0.4499
  134OSM    H7F14561   4.647   5.337   7.682  3.3831  1.4414  1.4583
  134OSM    H7G14562   4.517   5.445   7.609  0.6755  0.3441 -0.6643
  134OSM    C8F14563   4.638   5.528   7.758  1.0068 -0.2636 -0.2180
  134OSM    H8F14564   4.556   5.506   7.829  1.1396 -2.4806 -0.6885
  134OSM    H8G14565   4.625   5.633   7.724 -1.2269 -0.6836 -0.8234
  134OSM    C9F14566   4.771   5.509   7.824  0.3767 -0.1658 -0.1091
  134OSM    H9F14567   4.851   5.568   7.777  1.0814  0.6572  1.9844
  134OSM   C10F14568   4.802   5.426   7.923 -0.6310 -0.0580 -0.1231
  134OSM   H10F14569   4.904   5.426   7.965 -1.2032  2.5810  1.4723
  134OSM   C11F14570   4.701   5.345   7.994  1.2029 -0.5747 -0.9487
  134OSM   H11F14571   4.707   5.235   7.975  3.3789 -0.4840 -0.9830
  134OSM   H11G14572   4.592   5.361   7.984  0.8389 -0.0461  2.7499
  134OSM   C12F14573   4.721   5.368   8.145 -0.5331  0.0221 -0.5862
  134OSM   H12F14574   4.708   5.476   8.166  1.3377 -0.1391  1.8476
  134OSM   H12G14575   4.826   5.338   8.166  0.8045  2.9110 -2.5951
  134OSM   C13F14576   4.627   5.279   8.228  0.1909  0.1992 -0.1085
  134OSM   H13F14577   4.639   5.170   8.209  0.0154 -0.2727  2.1837
  134OSM   H13G14578   4.525   5.315   8.200  0.7396  1.0447 -1.0814
  134OSM   C14F14579   4.646   5.295   8.381  0.2645  0.1901  0.0187
  134OSM   H14F14580   4.607   5.395   8.408  0.6473  0.0266  1.2833
  134OSM   H14G14581   4.752   5.279   8.413 -0.2179 -0.6000  1.3113
  134OSM   C15F14582   4.558   5.193   8.457 -0.4901  0.2621 -0.3944
  134OSM   H15F14583   4.581   5.093   8.416 -2.1067 -0.8664  1.2311
  134OSM   H15G14584   4.450   5.199   8.433 -1.4239 -3.3355  1.9398
  134OSM   C16F14585   4.587   5.193   8.605 -0.2565 -0.4576  0.6720
  134OSM   H16F14586   4.695   5.198   8.631  0.0348 -2.8272  0.1434
  134OSM   H16G14587   4.561   5.090   8.636 -1.7562 -1.2508 -2.7671
  134OSM   C17F14588   4.507   5.299   8.677  0.8023 -0.4873  0.2245
  134OSM   H17F14589   4.403   5.297   8.638  0.1293 -0.9326  1.9287
  134OSM   H17G14590   4.539   5.403   8.655  0.9830 -0.6311 -0.1904
  134OSM   C18F14591   4.504   5.274   8.827  1.0539 -0.4158  0.0487
  134OSM   H18F14592   4.452   5.362   8.871  3.0585  0.4093  0.8472
  134OSM   H18G14593   4.607   5.267   8.867  1.2168 -1.1053 -0.4841
  134OSM   H18H14594   4.441   5.185   8.848 -1.2465  1.2211  0.4107
  135OSM      N14595   5.151   4.707   6.421  0.3727  0.1231  0.5140
  135OSM    C1514596   5.125   4.721   6.564  0.0286  0.1361  0.4184
  135OSM   H15A14597   5.054   4.649   6.601  0.1165  0.3742  1.0629
  135OSM   H15B14598   5.083   4.819   6.578 -2.2043 -0.3846 -1.8925
  135OSM   H15C14599   5.219   4.712   6.617  0.3495 -0.1619 -0.1934
  135OSM    C1414600   5.250   4.804   6.366 -0.0711  0.5278  0.1262
  135OSM   H14A14601   5.207   4.903   6.363 -1.4450 -0.0632 -0.2303
  135OSM   H14B14602   5.269   4.766   6.267  1.6419 -2.3306  1.4025
  135OSM   H14C14603   5.343   4.799   6.421  0.2842  1.1921 -0.4188
  135OSM    C1314604   5.209   4.568   6.402  0.2828  0.2211 -0.4356
  135OSM   H13A14605   5.226   4.540   6.299 -1.5793 -0.2701 -0.6428
  135OSM   H13B14606   5.140   4.495   6.443 -1.6287  2.5203  0.7145
  135OSM   H13C14607   5.306   4.560   6.448 -0.3735  0.9802  1.1673
  135OSM    C1214608   5.027   4.713   6.338 -0.3506  1.0747  0.5510
  135OSM   H12A14609   4.977   4.618   6.337  1.5071  0.0507  0.4854
  135OSM   H12B14610   5.056   4.724   6.235  2.9748  2.1087  1.4650
  135OSM    C1114611   4.912   4.815   6.367 -0.0230  0.2625 -0.1192
  135OSM   H11A14612   4.839   4.825   6.284 -0.6425 -0.6583  0.3039
  135OSM   H11B14613   4.959   4.916   6.369  0.9231 -0.0713 -2.3748
  135OSM      P14614   4.751   4.675   6.510  0.1599 -0.0958  0.0978
  135OSM    O1314615   4.641   4.695   6.410  0.2841 -0.3988  0.3640
  135OSM    O1414616   4.821   4.544   6.512  0.0361  0.3415  0.0372
  135OSM    O1114617   4.693   4.703   6.657  0.2279  0.0427 -0.1594
  135OSM    O1214618   4.857   4.789   6.486  0.5360 -0.4473 -0.6368
  135OSM    C1S14619   4.622   4.825   6.681  0.3832  0.1917 -0.0475
  135OSM    H1S14620   4.520   4.823   6.637  0.8486 -0.5183 -1.1290
  135OSM    H1T14621   4.678   4.912   6.639  2.6707 -0.1246  2.1354
  135OSM     NF14622   4.504   4.965   6.849  0.4744 -0.2963 -0.2528
  135OSM    HNF14623   4.545   5.048   6.885  0.9551 -0.4697 -0.3941
  135OSM    C2S14624   4.601   4.853   6.832 -0.5282 -0.5512 -0.1723
  135OSM    H2S14625   4.546   4.766   6.876 -2.7864  1.5236  1.3429
  135OSM    C3S14626   4.731   4.865   6.912  0.9965 -1.1990 -0.6115
  135OSM    H3S14627   4.778   4.960   6.878 -0.7512  0.5260  1.4479
  135OSM     O314628   4.820   4.758   6.893 -0.9868 -0.7194 -0.1527
  135OSM    HO314629   4.784   4.719   6.813  0.5213  1.6642 -2.1475
  135OSM    C4S14630   4.710   4.878   7.067  0.0410  0.1238 -0.0030
  135OSM    H4S14631   4.662   4.793   7.115  0.0899  0.2905  0.3418
  135OSM    C5S14632   4.745   4.983   7.145  0.7991  0.6674  0.2443
  135OSM    H5S14633   4.784   5.076   7.102  2.6642  0.8831  2.2449
  135OSM    C6S14634   4.727   4.998   7.290  0.0315  0.4475  0.0741
  135OSM    H6S14635   4.703   5.104   7.312  0.1235  0.7743 -1.3427
  135OSM    H6T14636   4.829   4.974   7.329  0.3464 -0.5762 -1.3006
  135OSM    C7S14637   4.614   4.913   7.350  1.3119 -0.3987 -0.5048
  135OSM    H7S14638   4.632   4.804   7.345 -0.9016 -0.9151  1.1086
  135OSM    H7T14639   4.521   4.947   7.300  0.9523 -2.5111 -1.3745
  135OSM    C8S14640   4.579   4.957   7.494  0.7689  0.2658  0.1418
  135OSM    H8S14641   4.489   4.904   7.531  1.4889  0.1922  1.8693
  135OSM    H8T14642   4.556   5.066   7.500 -0.0201  0.0623  1.0554
  135OSM    C9S14643   4.686   4.931   7.595 -0.1580 -0.1433  0.6687
  135OSM    H9S14644   4.780   4.986   7.572  0.8472 -1.0664  2.3539
  135OSM    H9T14645   4.721   4.826   7.585  1.5486  0.4010  0.6143
  135OSM   C10S14646   4.644   4.952   7.742  0.1204 -0.7458 -0.6087
  135OSM   H10S14647   4.537   4.922   7.752 -0.3227  1.3608  1.9388
  135OSM   H10T14648   4.646   5.058   7.775  1.8147 -1.2177  0.9630
  135OSM   C11S14649   4.715   4.859   7.843  0.1448  0.5711  0.5471
  135OSM   H11S14650   4.823   4.859   7.818 -0.2255  0.2773 -1.2325
  135OSM   H11T14651   4.688   4.753   7.828 -0.3808  0.8001 -0.2005
  135OSM   C12S14652   4.703   4.905   7.985  0.3023  0.0914 -0.0268
  135OSM   H12S14653   4.596   4.912   8.012  0.8043 -0.9226  2.4961
  135OSM   H12T14654   4.749   5.007   7.987  2.3663 -0.7595 -0.9253
  135OSM   C13S14655   4.754   4.812   8.090 -0.4459 -0.5587 -0.8368
  135OSM   H13S14656   4.865   4.803   8.086 -0.3591  0.6770 -2.3026
  135OSM   H13T14657   4.717   4.716   8.048 -2.4937  0.2009 -0.8552
  135OSM   C14S14658   4.684   4.831   8.224  0.3322 -0.5495 -0.5379
  135OSM   H14S14659   4.576   4.854   8.208  0.7720  0.7705 -1.8796
  135OSM   H14T14660   4.717   4.923   8.277 -0.1685 -1.1674  0.8985
  135OSM   C15S14661   4.704   4.717   8.324  0.4040 -0.3337 -0.0618
  135OSM   H15S14662   4.814   4.707   8.314  0.2501 -0.1796 -2.4020
  135OSM   H15T14663   4.655   4.625   8.286  3.0667 -1.1113 -1.8552
  135OSM   C16S14664   4.665   4.756   8.465 -0.0130  0.1443  0.3048
  135OSM   H16S14665   4.730   4.839   8.497 -0.0557  0.7296 -1.0691
  135OSM   H16T14666   4.682   4.667   8.529 -1.3843 -1.2555 -1.1558
  135OSM   C17S14667   4.514   4.788   8.481 -0.5471 -0.1501 -0.4728
  135OSM   H17S14668   4.454   4.715   8.422 -1.0819  0.7828 -1.1125
  135OSM   H17T14669   4.503   4.889   8.435  2.3665  1.1665  1.4551
  135OSM   C18S14670   4.469   4.801   8.623 -0.5377  0.1668 -1.0843
  135OSM   H18S14671   4.528   4.879   8.676  1.4335 -1.3529 -0.9526
  135OSM   H18T14672   4.490   4.704   8.672 -0.9456 -0.8563 -2.8693
  135OSM   H18U14673   4.359   4.819   8.620 -0.3146  1.6247 -1.0921
  135OSM    C1F14674   4.379   4.968   6.808 -0.2392 -0.3396  0.6982
  135OSM     OF14675   4.324   4.866   6.773  0.1212  0.3475  0.3941
  135OSM    C2F14676   4.311   5.103   6.807  0.1812  0.6197 -0.2749
  135OSM    H2F14677   4.260   5.110   6.708 -0.7569  2.3013  0.2812
  135OSM    H2G14678   4.382   5.188   6.822 -1.7762  2.1059  1.0154
  135OSM    C3F14679   4.215   5.124   6.925 -1.1575 -0.2666  0.0614
  135OSM    H3F14680   4.135   5.049   6.939 -0.4882 -0.6243  2.5346
  135OSM    H3G14681   4.169   5.224   6.907  1.9253  1.1438 -0.6696
  135OSM    C4F14682   4.294   5.125   7.056 -0.4590  0.2867  0.6082
  135OSM    H4F14683   4.378   5.198   7.048 -0.0521 -0.3452 -4.1263
  135OSM    H4G14684   4.325   5.023   7.085  0.3544  0.7095  1.2729
  135OSM    C5F14685   4.203   5.160   7.173  0.1635  0.0551  0.5890
  135OSM    H5F14686   4.120   5.086   7.167  0.2118 -0.1819  2.3764
  135OSM    H5G14687   4.173   5.266   7.169 -1.8678 -0.1649  4.6551
  135OSM    C6F14688   4.273   5.143   7.310  1.1197  0.1759  0.7857
  135OSM    H6F14689   4.363   5.209   7.316 -0.5094  2.7837 -1.2062
  135OSM    H6G14690   4.299   5.036   7.316  1.7150  0.1026 -1.7487
  135OSM    C7F14691   4.165   5.169   7.413 -0.8288 -0.2238 -0.3452
  135OSM    H7F14692   4.097   5.083   7.398 -0.6120 -0.4561 -0.0126
  135OSM    H7G14693   4.112   5.266   7.400 -1.3471 -0.4120  0.3305
  135OSM    C8F14694   4.226   5.135   7.555  0.3477  1.0749  0.4227
  135OSM    H8F14695   4.318   5.191   7.584  1.7997 -2.0529  2.3831
  135OSM    H8G14696   4.245   5.026   7.547 -0.2526  1.1047 -1.8526
  135OSM    C9F14697   4.132   5.161   7.669  0.4100 -0.2635 -0.8001
  135OSM    H9F14698   4.025   5.144   7.651  0.3298 -0.0428 -0.5488
  135OSM   C10F14699   4.163   5.218   7.787 -0.1288  0.3813  0.3771
  135OSM   H10F14700   4.078   5.241   7.852  0.8123 -1.1223  2.2478
  135OSM   C11F14701   4.308   5.248   7.833  0.6851  0.2873  0.8771
  135OSM   H11F14702   4.285   5.349   7.875 -1.8052  0.0306  0.3173
  135OSM   H11G14703   4.383   5.257   7.751 -0.2408  2.9218  0.1992
  135OSM   C12F14704   4.365   5.149   7.931 -0.6078 -0.2617  0.3805
  135OSM   H12F14705   4.463   5.190   7.965 -0.3887  0.9943 -1.5835
  135OSM   H12G14706   4.393   5.052   7.885  0.5724 -0.0630  0.6398
  135OSM   C13F14707   4.288   5.127   8.059  0.5745 -0.1562  0.4356
  135OSM   H13F14708   4.187   5.089   8.035 -0.4013  1.4151  1.8649
  135OSM   H13G14709   4.267   5.223   8.109 -4.3262 -0.2315 -0.9798
  135OSM   C14F14710   4.365   5.023   8.145  0.3001  0.4839 -0.3146
  135OSM   H14F14711   4.445   5.077   8.201 -2.1402  2.0918  1.8570
  135OSM   H14G14712   4.410   4.939   8.088  1.2154 -0.2769  1.4426
  135OSM   C15F14713   4.268   4.957   8.247  0.4903  0.3796  0.7010
  135OSM   H15F14714   4.238   5.042   8.312  1.1086 -1.0930  3.0185
  135OSM   H15G14715   4.317   4.888   8.319 -1.0757 -0.1770  1.2686
  135OSM   C16F14716   4.149   4.882   8.190  0.7208 -0.2569  0.0828
  135OSM   H16F14717   4.190   4.812   8.113 -2.0272 -1.1560 -0.6652
  135OSM   H16G14718   4.077   4.955   8.147 -0.1090  0.7133  2.8894
  135OSM   C17F14719   4.084   4.796   8.289  0.8815  0.0851  0.9744
  135OSM   H17F14720   4.152   4.732   8.348  1.9199 -0.0471 -0.3340
  135OSM   H17G14721   4.020   4.720   8.240 -0.7300  1.9868 -0.0263
  135OSM   C18F14722   4.011   4.873   8.403 -0.1685  0.0759  0.0018
  135OSM   H18F14723   4.077   4.961   8.417  1.8968 -1.3814  0.0370
  135OSM   H18G14724   4.022   4.825   8.503  2.0961 -0.0062 -0.2318
  135OSM   H18H14725   3.905   4.897   8.383 -1.4334 -2.2298  3.0637
  136OSM      N14726   3.681   4.525   5.957 -0.3976  0.1929 -0.2819
  136OSM    C1514727   3.798   4.453   5.887  0.0121  0.1198  0.4952
  136OSM   H15A14728   3.845   4.391   5.962 -0.9994 -2.6219 -0.9773
  136OSM   H15B14729   3.866   4.522   5.840  1.0578 -0.6312  0.8780
  136OSM   H15C14730   3.777   4.383   5.807  0.1352  0.9577 -0.2880
  136OSM    C1414731   3.647   4.657   5.884 -0.3709  0.2291 -0.2313
  136OSM   H14A14732   3.551   4.689   5.921  0.1260  2.3804 -0.7032
  136OSM   H14B14733   3.640   4.640   5.778 -0.9871 -1.3478  0.0239
  136OSM   H14C14734   3.721   4.729   5.915 -1.2514  1.4149 -0.7960
  136OSM    C1314735   3.563   4.430   5.963  0.2489 -1.2912  0.6522
  136OSM   H13A14736   3.474   4.481   5.999 -0.1024  1.7823 -3.7943
  136OSM   H13B14737   3.579   4.352   6.037  0.8617 -0.6228  1.2418
  136OSM   H13C14738   3.526   4.397   5.867 -0.5121  2.4608 -0.4867
  136OSM    C1214739   3.725   4.554   6.105 -0.1738 -0.3053 -0.3455
  136OSM   H12A14740   3.730   4.455   6.149 -0.9370 -0.3488 -0.3345
  136OSM   H12B14741   3.649   4.612   6.156  0.4699  0.6549 -0.4600
  136OSM    C1114742   3.851   4.635   6.130 -0.5566 -1.2065 -0.0887
  136OSM   H11A14743   3.930   4.580   6.074 -1.1649 -0.2091 -2.0113
  136OSM   H11B14744   3.866   4.630   6.240 -1.9080 -1.4119  0.0971
  136OSM      P14745   3.770   4.886   6.132  0.4138  0.1825  0.0920
  136OSM    O1314746   3.862   4.985   6.188 -0.0195 -0.3315  0.3342
  136OSM    O1414747   3.665   4.929   6.035  0.2733 -0.2081  0.0866
  136OSM    O1114748   3.699   4.817   6.256 -0.3173  0.2450 -0.3696
  136OSM    O1214749   3.849   4.764   6.077 -0.5700 -0.7690 -0.2431
  136OSM    C1S14750   3.649   4.897   6.359  0.8442  0.6112 -0.3829
  136OSM    H1S14751   3.559   4.955   6.327 -0.1741 -1.5594 -1.7529
  136OSM    H1T14752   3.725   4.967   6.398  0.6095  1.8850 -2.0532
  136OSM     NF14753   3.564   4.915   6.582  0.6273 -0.0159  0.1007
  136OSM    HNF14754   3.641   4.930   6.644 -0.1765  0.0238  1.1267
  136OSM    C2S14755   3.589   4.821   6.477  0.2074  0.2081  0.1040
  136OSM    H2S14756   3.494   4.779   6.438  0.1295 -0.4474  0.9724
  136OSM    C3S14757   3.683   4.709   6.517  1.0307  0.0021 -0.1736
  136OSM    H3S14758   3.780   4.762   6.531 -0.5481  3.2747 -0.7158
  136OSM     O314759   3.711   4.617   6.414  0.1828  0.1039 -0.3878
  136OSM    HO314760   3.687   4.659   6.331 -0.2417 -1.7317 -1.2508
  136OSM    C4S14761   3.655   4.649   6.649  0.0942  0.4347  0.1395
  136OSM    H4S14762   3.690   4.707   6.736  1.0614 -0.6800  0.5273
  136OSM    C5S14763   3.598   4.530   6.679  0.1959 -0.3979  0.3729
  136OSM    H5S14764   3.565   4.467   6.595 -0.2685  0.9840 -0.5047
  136OSM    C6S14765   3.575   4.481   6.818 -0.4904 -1.0385  0.7599
  136OSM    H6S14766   3.473   4.496   6.859  0.4354  0.3099  2.7712
  136OSM    H6T14767   3.638   4.549   6.880 -1.7094  1.2014 -0.3080
  136OSM    C7S14768   3.618   4.344   6.838  0.3841 -0.3622 -0.0428
  136OSM    H7S14769   3.727   4.329   6.821  0.5528 -1.2966  1.6148
  136OSM    H7T14770   3.570   4.274   6.766  1.1316 -1.6315  0.6464
  136OSM    C8S14771   3.580   4.282   6.978  0.2022  0.3758  1.1585
  136OSM    H8S14772   3.578   4.172   6.967  2.7373  0.1225  2.4852
  136OSM    H8T14773   3.486   4.322   7.021  1.2453  2.0995  1.9579
  136OSM    C9S14774   3.679   4.305   7.088  0.2202 -0.6366 -0.1007
  136OSM    H9S14775   3.705   4.409   7.114  1.0811 -1.3335  2.0721
  136OSM    H9T14776   3.776   4.262   7.054 -0.0233  0.5432 -2.5440
  136OSM   C10S14777   3.626   4.238   7.215 -0.4054 -0.3287  0.2237
  136OSM   H10S14778   3.601   4.132   7.196 -0.7532  0.0043 -1.3542
  136OSM   H10T14779   3.529   4.282   7.245 -0.7812  0.2865 -1.7519
  136OSM   C11S14780   3.725   4.262   7.331  0.2509 -0.2320  0.4187
  136OSM   H11S14781   3.757   4.368   7.343 -0.6315 -0.0777  1.6043
  136OSM   H11T14782   3.821   4.212   7.305 -0.1693 -0.3780 -0.9371
  136OSM   C12S14783   3.664   4.210   7.464  0.4592  0.1058 -0.2422
  136OSM   H12S14784   3.636   4.103   7.452 -0.0292  0.4886 -3.3251
  136OSM   H12T14785   3.575   4.267   7.500  1.5451  1.3857  0.4916
  136OSM   C13S14786   3.770   4.227   7.576  1.2362  0.7035  0.4260
  136OSM   H13S14787   3.796   4.334   7.592 -2.6819  1.7336  1.1252
  136OSM   H13T14788   3.856   4.160   7.558  1.2644  0.7218  0.4930
  136OSM   C14S14789   3.701   4.184   7.709 -0.2902 -0.2380 -0.0742
  136OSM   H14S14790   3.669   4.078   7.694 -3.0487  0.8712 -3.2619
  136OSM   H14T14791   3.609   4.241   7.732 -0.0341  0.5757 -1.0293
  136OSM   C15S14792   3.787   4.198   7.840 -0.3710 -0.3434  0.8923
  136OSM   H15S14793   3.822   4.303   7.825 -2.4044  0.2208 -0.3911
  136OSM   H15T14794   3.866   4.122   7.824 -0.7387 -0.3514 -1.2734
  136OSM   C16S14795   3.702   4.166   7.962  0.1771  0.1045 -0.2695
  136OSM   H16S14796   3.771   4.174   8.049 -0.4262 -1.4043  0.3719
  136OSM   H16T14797   3.663   4.062   7.957 -1.7423  0.8322 -1.8403
  136OSM   C17S14798   3.586   4.268   7.991 -0.1915  0.1951 -0.0525
  136OSM   H17S14799   3.524   4.253   7.900  1.3066 -1.2260 -0.8735
  136OSM   H17T14800   3.629   4.371   7.992 -0.0455  0.1331  0.4259
  136OSM   C18S14801   3.505   4.240   8.115  0.0891 -0.6085 -0.0956
  136OSM   H18S14802   3.464   4.137   8.112 -1.5665  0.0234 -0.8026
  136OSM   H18T14803   3.414   4.302   8.126  0.3939 -0.2817  0.6223
  136OSM   H18U14804   3.566   4.265   8.204  0.1748  3.0266 -1.0008
  136OSM    C1F14805   3.466   5.004   6.588  0.0565 -0.2753  0.5704
  136OSM     OF14806   3.388   5.011   6.492 -0.0644  0.4207  0.0483
  136OSM    C2F14807   3.468   5.104   6.706 -0.2777  0.5547  0.3116
  136OSM    H2F14808   3.552   5.176   6.693  0.4157 -0.4203 -0.8706
  136OSM    H2G14809   3.497   5.052   6.799  1.8713  0.6791 -0.2452
  136OSM    C3F14810   3.337   5.178   6.731 -0.2692  0.1056 -0.2913
  136OSM    H3F14811   3.267   5.093   6.747  1.1315 -1.2900 -1.2851
  136OSM    H3G14812   3.290   5.231   6.645 -1.0329  1.1390  0.7483
  136OSM    C4F14813   3.342   5.271   6.850  0.1788  0.0745 -0.1923
  136OSM    H4F14814   3.393   5.363   6.814  1.3514 -0.8252 -0.9066
  136OSM    H4G14815   3.396   5.219   6.933  2.1879 -0.3751 -1.7022
  136OSM    C5F14816   3.206   5.308   6.905 -0.0835 -0.0454 -0.0674
  136OSM    H5F14817   3.135   5.223   6.912 -0.9132  0.6416 -0.0178
  136OSM    H5G14818   3.156   5.384   6.842  0.7764  0.2195 -0.4534
  136OSM    C6F14819   3.220   5.355   7.055 -0.0766 -0.6890  0.3272
  136OSM    H6F14820   3.189   5.462   7.049 -1.5876 -1.2004 -2.4045
  136OSM    H6G14821   3.327   5.372   7.080  0.0802  0.8593 -1.1954
  136OSM    C7F14822   3.139   5.270   7.150  0.1806  0.4718  0.2780
  136OSM    H7F14823   3.183   5.169   7.157 -0.8001 -0.0109 -0.3535
  136OSM    H7G14824   3.033   5.266   7.117  0.1832 -3.2253  0.3240
  136OSM    C8F14825   3.135   5.322   7.297 -0.3426  0.4250  0.2033
  136OSM    H8F14826   3.065   5.408   7.305 -0.9948  0.1225 -1.7770
  136OSM    H8G14827   3.237   5.359   7.318 -0.1476  0.8636 -1.4171
  136OSM    C9F14828   3.105   5.202   7.393 -0.0918 -1.2505 -0.0811
  136OSM    H9F14829   2.999   5.171   7.397 -0.6992  0.4282 -1.7594
  136OSM   C10F14830   3.197   5.149   7.471  0.3393 -0.3227 -0.0141
  136OSM   H10F14831   3.161   5.063   7.530 -1.6852  0.6504  0.2523
  136OSM   C11F14832   3.336   5.190   7.490 -0.4269 -0.3293 -0.2105
  136OSM   H11F14833   3.387   5.243   7.407 -1.4338 -1.1289 -1.3838
  136OSM   H11G14834   3.397   5.097   7.497  1.4101  0.8996  0.7139
  136OSM   C12F14835   3.366   5.262   7.620  0.1635  0.2606 -0.4675
  136OSM   H12F14836   3.319   5.362   7.625  1.9419  1.0949  0.1701
  136OSM   H12G14837   3.476   5.274   7.614  0.1409  0.4039 -0.5933
  136OSM   C13F14838   3.323   5.188   7.743  0.0721  0.1886 -0.2658
  136OSM   H13F14839   3.386   5.096   7.745 -3.4236 -2.4382 -1.3666
  136OSM   H13G14840   3.222   5.145   7.728 -0.4071  0.9595  0.6450
  136OSM   C14F14841   3.345   5.266   7.871 -0.2799  0.2208 -0.2121
  136OSM   H14F14842   3.332   5.376   7.863  0.3375  0.4412  1.3432
  136OSM   H14G14843   3.454   5.255   7.893 -0.2177  0.9389 -0.1482
  136OSM   C15F14844   3.268   5.220   7.993  0.2053  0.1969 -0.8480
  136OSM   H15F14845   3.280   5.112   8.018  0.5488  0.1019 -1.4159
  136OSM   H15G14846   3.166   5.238   7.955  0.1984 -1.0643 -1.4739
  136OSM   C16F14847   3.287   5.303   8.118 -0.0167 -0.1088 -0.2959
  136OSM   H16F14848   3.251   5.407   8.102  1.4580  0.1140 -2.7422
  136OSM   H16G14849   3.393   5.314   8.150  0.6023 -1.9045 -1.5472
  136OSM   C17F14850   3.225   5.248   8.243 -0.3407  0.3365 -0.4820
  136OSM   H17F14851   3.266   5.146   8.262  0.7298  1.0835  1.4686
  136OSM   H17G14852   3.119   5.249   8.210 -0.0825  2.0105 -1.3848
  136OSM   C18F14853   3.238   5.348   8.362  0.1639  0.1293  0.3196
  136OSM   H18F14854   3.145   5.326   8.419  0.1297 -4.1965 -0.9797
  136OSM   H18G14855   3.229   5.451   8.323  0.8330  0.7721  1.7984
  136OSM   H18H14856   3.327   5.328   8.425  0.1768  1.3220  0.6913
  137OSM      N14857   5.162   3.852   6.006 -0.1711  0.6207  1.0855
  137OSM    C1514858   5.306   3.798   5.996 -0.3795  0.3531  0.5859
  137OSM   H15A14859   5.377   3.870   6.034 -1.4054  1.4422  0.4888
  137OSM   H15B14860   5.336   3.773   5.895  0.1216 -0.3581  0.9017
  137OSM   H15C14861   5.317   3.706   6.051 -1.2686  0.0330  0.2354
  137OSM    C1414862   5.124   3.950   5.886  0.0315  0.3060 -0.0335
  137OSM   H14A14863   5.167   4.049   5.889 -2.3708  1.4315 -0.0860
  137OSM   H14B14864   5.016   3.962   5.886  0.0331  0.4974  1.6651
  137OSM   H14C14865   5.149   3.902   5.793 -2.8896  1.6421 -1.6511
  137OSM    C1314866   5.073   3.737   5.988 -0.1794 -0.4682 -0.7690
  137OSM   H13A14867   4.974   3.778   6.003  0.7224  1.4609  0.2891
  137OSM   H13B14868   5.095   3.650   6.047  1.3418 -0.9618 -1.9736
  137OSM   H13C14869   5.076   3.698   5.887 -1.7093  0.5454 -1.2456
  137OSM    C1214870   5.135   3.917   6.140  0.2951  0.7315 -0.0212
  137OSM   H12A14871   5.032   3.951   6.143  0.1803  0.3498  0.3553
  137OSM   H12B14872   5.203   4.000   6.150 -1.7297  2.3838  0.7730
  137OSM    C1114873   5.161   3.842   6.279 -0.2645  0.1110  0.5443
  137OSM   H11A14874   5.097   3.752   6.284  0.3901 -0.3227  1.2696
  137OSM   H11B14875   5.121   3.907   6.361 -0.1698  0.6547  0.1677
  137OSM      P14876   5.407   3.886   6.358 -0.3653 -0.1290 -0.1881
  137OSM    O1314877   5.522   3.794   6.381  0.3549  0.5139  0.4644
  137OSM    O1414878   5.436   4.003   6.275 -0.2560 -0.4983  0.7317
  137OSM    O1114879   5.357   3.936   6.504 -0.0467 -0.0149  0.1106
  137OSM    O1214880   5.296   3.798   6.296 -0.4738 -0.1212  0.1031
  137OSM    C1S14881   5.312   3.838   6.597 -0.2517  0.2058 -0.2684
  137OSM    H1S14882   5.389   3.765   6.629  0.7498  1.0775 -0.6668
  137OSM    H1T14883   5.232   3.773   6.555 -1.6762  0.8831  1.2563
  137OSM     NF14884   5.242   3.803   6.832  0.2412  0.5836 -0.0346
  137OSM    HNF14885   5.155   3.789   6.878  0.6111  2.4949  1.3605
  137OSM    C2S14886   5.259   3.906   6.728  0.0070 -0.5408 -0.4440
  137OSM    H2S14887   5.342   3.973   6.760 -1.4620  2.1661 -1.8814
  137OSM    C3S14888   5.140   3.998   6.690  0.6411  0.0602 -0.4572
  137OSM    H3S14889   5.074   3.925   6.639  2.1360 -0.5857 -1.5411
  137OSM     O314890   5.158   4.096   6.592  0.1570 -0.1030  0.1557
  137OSM    HO314891   5.248   4.081   6.562  0.3961  0.8972  0.3381
  137OSM    C4S14892   5.089   4.070   6.812 -0.5220 -0.5614  1.0506
  137OSM    H4S14893   5.129   4.171   6.828 -0.9284 -0.1098 -0.6242
  137OSM    C5S14894   4.982   4.040   6.888 -0.0063 -0.0744 -0.7231
  137OSM    H5S14895   4.934   3.943   6.874  0.5557 -0.5177  0.2931
  137OSM    C6S14896   4.931   4.113   7.011 -0.1734  0.4207  0.0688
  137OSM    H6S14897   4.823   4.092   7.015  0.0869 -0.9290  0.3150
  137OSM    H6T14898   4.954   4.222   7.011  1.9135  0.0316  0.3562
  137OSM    C7S14899   5.017   4.064   7.132 -0.2655  0.0103  0.2998
  137OSM    H7S14900   5.124   4.087   7.113  0.5444 -3.7747 -0.4414
  137OSM    H7T14901   5.020   3.953   7.137 -1.6178 -0.0200  1.3898
  137OSM    C8S14902   4.978   4.130   7.255  0.3969  0.1478 -0.0020
  137OSM    H8S14903   4.869   4.123   7.276  0.4396 -2.9714 -0.3577
  137OSM    H8T14904   5.018   4.234   7.255 -0.4976  0.5287  1.7468
  137OSM    C9S14905   5.041   4.039   7.367 -0.2101 -0.7235  0.5136
  137OSM    H9S14906   5.152   4.040   7.364 -0.1478  2.4202 -0.4432
  137OSM    H9T14907   5.004   3.937   7.344  1.7110 -1.4980  0.6646
  137OSM   C10S14908   5.004   4.078   7.511  0.3384  0.3014  0.7337
  137OSM   H10S14909   4.896   4.073   7.537 -0.0920 -0.5492 -1.0987
  137OSM   H10T14910   5.016   4.189   7.505 -0.4153  0.5186  2.5351
  137OSM   C11S14911   5.092   4.017   7.615 -0.5760 -0.5110 -0.4322
  137OSM   H11S14912   5.160   3.942   7.569  0.1672  0.5907 -1.1705
  137OSM   H11T14913   5.023   3.963   7.683  0.2389 -0.7154  0.2556
  137OSM   C12S14914   5.177   4.121   7.693 -0.3148  0.6306 -0.0084
  137OSM   H12S14915   5.107   4.191   7.744 -3.3161 -1.0721 -1.5055
  137OSM   H12T14916   5.238   4.182   7.624  1.6631 -1.0786  0.1188
  137OSM   C13S14917   5.255   4.068   7.806  0.3442 -0.5379 -0.4145
  137OSM   H13S14918   5.291   4.149   7.872 -0.9279  0.1723 -0.5478
  137OSM   H13T14919   5.337   3.996   7.788  0.9694 -0.5742  2.2782
  137OSM   C14S14920   5.170   3.979   7.903 -0.6611 -0.3046 -0.1930
  137OSM   H14S14921   5.149   3.886   7.847  0.0155  0.0609 -1.1004
  137OSM   H14T14922   5.074   4.027   7.930 -0.9898  1.8019 -4.2652
  137OSM   C15S14923   5.250   3.935   8.030  0.2895  0.0978  0.3058
  137OSM   H15S14924   5.352   3.906   7.999 -0.3060  0.3553 -2.0308
  137OSM   H15T14925   5.213   3.838   8.071 -0.6497 -0.1742 -1.1211
  137OSM   C16S14926   5.261   4.045   8.146  0.2974 -0.6917  0.6128
  137OSM   H16S14927   5.157   4.077   8.172  0.0271 -0.9553 -0.1090
  137OSM   H16T14928   5.320   4.127   8.099 -1.4679 -0.7127 -1.8636
  137OSM   C17S14929   5.323   3.992   8.273  0.3998  0.5415 -0.4841
  137OSM   H17S14930   5.352   4.075   8.341  0.5057  0.5360 -0.5208
  137OSM   H17T14931   5.426   3.955   8.251  0.6821  0.0419  1.5138
  137OSM   C18S14932   5.235   3.889   8.341 -0.1545 -0.0073 -0.3642
  137OSM   H18S14933   5.276   3.860   8.440 -2.5323  1.4008  1.1385
  137OSM   H18T14934   5.244   3.799   8.277  3.3247  1.0810 -1.6696
  137OSM   H18U14935   5.131   3.919   8.365 -0.0749 -0.6369  0.8006
  137OSM    C1F14936   5.354   3.753   6.888  0.5978 -0.2519 -0.5678
  137OSM     OF14937   5.466   3.770   6.840 -0.0295 -0.0793 -0.2343
  137OSM    C2F14938   5.342   3.671   7.011 -0.5163  0.1416 -0.0269
  137OSM    H2F14939   5.329   3.564   6.984  2.4111 -0.0688 -0.9239
  137OSM    H2G14940   5.257   3.710   7.071 -0.6047 -0.0725 -0.0101
  137OSM    C3F14941   5.471   3.663   7.102 -0.1374 -0.1583  0.3238
  137OSM    H3F14942   5.502   3.769   7.115 -0.7589  0.0981 -0.2173
  137OSM    H3G14943   5.549   3.614   7.041 -1.2950 -1.2025 -0.3661
  137OSM    C4F14944   5.454   3.591   7.235  0.1975  0.5733 -0.5003
  137OSM    H4F14945   5.355   3.608   7.284 -0.3960 -1.0402 -1.0826
  137OSM    H4G14946   5.524   3.638   7.307 -2.4519 -0.0127  2.6997
  137OSM    C5F14947   5.479   3.437   7.226  0.3127  0.0256 -0.2442
  137OSM    H5F14948   5.579   3.417   7.184 -0.2893 -2.5672 -0.5690
  137OSM    H5G14949   5.411   3.398   7.147 -1.1960 -2.3868  2.0879
  137OSM    C6F14950   5.461   3.371   7.359  0.2631  0.2216 -0.1436
  137OSM    H6F14951   5.360   3.389   7.400 -0.2857 -1.7838 -0.4980
  137OSM    H6G14952   5.530   3.416   7.434 -0.6062 -0.0477  0.8361
  137OSM    C7F14953   5.481   3.220   7.344 -0.2248 -0.1049  0.6018
  137OSM    H7F14954   5.577   3.179   7.304  0.0431 -0.5150  1.6450
  137OSM    H7G14955   5.406   3.192   7.267  2.9302 -1.2623 -2.3400
  137OSM    C8F14956   5.471   3.144   7.477  0.3290  0.4089 -0.2506
  137OSM    H8F14957   5.538   3.197   7.549  0.4759  0.3391 -0.3367
  137OSM    H8G14958   5.516   3.048   7.446 -1.6508  0.2484 -2.9636
  137OSM    C9F14959   5.331   3.140   7.531  0.3048 -0.0465  0.7978
  137OSM    H9F14960   5.276   3.231   7.559 -1.7634 -0.6585 -1.0449
  137OSM   C10F14961   5.255   3.026   7.535 -0.2694 -0.5249 -0.6501
  137OSM   H10F14962   5.162   3.030   7.594 -0.7785  0.4219 -1.4822
  137OSM   C11F14963   5.301   2.888   7.500 -0.2843  0.5483 -0.0187
  137OSM   H11F14964   5.375   2.881   7.418  1.2714 -0.0393  1.3679
  137OSM   H11G14965   5.209   2.838   7.463 -0.1982 -0.2776  0.8416
  137OSM   C12F14966   5.351   2.817   7.629 -0.8377 -0.4352  0.2357
  137OSM   H12F14967   5.376   2.711   7.608  0.5306  0.1733 -1.4932
  137OSM   H12G14968   5.274   2.830   7.708 -1.0666 -0.4506  0.0167
  137OSM   C13F14969   5.491   2.873   7.683 -0.0173 -0.0445 -0.3518
  137OSM   H13F14970   5.477   2.978   7.714 -1.5143 -0.7021  1.4244
  137OSM   H13G14971   5.574   2.872   7.609  0.2226  0.3133 -0.0880
  137OSM   C14F14972   5.523   2.800   7.814  0.4508 -0.1466 -0.1930
  137OSM   H14F14973   5.601   2.725   7.790  0.3099 -0.4882  0.4029
  137OSM   H14G14974   5.429   2.748   7.841 -0.4535  0.6803 -1.6236
  137OSM   C15F14975   5.566   2.904   7.914 -0.8241 -0.1160 -0.2822
  137OSM   H15F14976   5.494   2.989   7.920  0.5462  1.2187 -1.6458
  137OSM   H15G14977   5.643   2.960   7.855 -2.5277  1.4330 -1.1295
  137OSM   C16F14978   5.620   2.853   8.050 -0.8497 -0.2024 -0.6539
  137OSM   H16F14979   5.681   2.760   8.049 -0.1241  0.2499  0.1812
  137OSM   H16G14980   5.527   2.838   8.108 -0.1989  0.6403  0.6621
  137OSM   C17F14981   5.710   2.963   8.115 -0.0313  0.0011 -0.5429
  137OSM   H17F14982   5.703   2.925   8.220 -1.3013 -2.4222 -1.4142
  137OSM   H17G14983   5.661   3.062   8.101  0.4419  0.1135 -1.4670
  137OSM   C18F14984   5.851   2.954   8.062  0.0089  0.2748 -0.0134
  137OSM   H18F14985   5.856   2.978   7.954  2.2270  1.1291  0.2302
  137OSM   H18G14986   5.888   2.853   8.089  1.8311  1.1615  1.0579
  137OSM   H18H14987   5.927   3.018   8.112  1.6597 -2.9054  1.8358
  138OSM      N14988   6.167   0.585   6.061  0.0368 -0.3651  0.4132
  138OSM    C1514989   6.213   0.553   6.198 -0.4778  0.2967 -0.3792
  138OSM   H15A14990   6.199   0.639   6.262  2.1367 -1.0226  2.1936
  138OSM   H15B14991   6.314   0.517   6.192 -0.5851  0.2482 -3.3913
  138OSM   H15C14992   6.163   0.476   6.256  2.2218 -1.7611 -0.5750
  138OSM    C1414993   6.263   0.693   5.997 -0.6972  1.0817 -0.6725
  138OSM   H14A14994   6.238   0.719   5.895 -2.9138 -0.0998 -0.5006
  138OSM   H14B14995   6.369   0.680   6.013 -0.4793 -0.5442 -2.9675
  138OSM   H14C14996   6.247   0.776   6.064  2.3100  0.3085  1.1828
  138OSM    C1314997   6.177   0.462   5.974  0.1355  0.9277  0.0478
  138OSM   H13A14998   6.276   0.420   5.984  0.0769  0.3497 -1.4366
  138OSM   H13B14999   6.146   0.472   5.871 -1.1760 -0.2357  0.3050
  138OSM   H13C15000   6.113   0.384   6.012  1.8976 -0.6949 -0.1115
  138OSM    C1215001   6.020   0.631   6.066 -0.3058  0.5727 -0.0291
  138OSM   H12A15002   5.990   0.633   5.962  2.2160 -0.1116 -0.8672
  138OSM   H12B15003   6.021   0.734   6.097  0.4933  0.2117  1.2254
  138OSM    C1115004   5.913   0.551   6.150 -0.2439 -0.3356  0.5788
  138OSM   H11A15005   5.814   0.591   6.120  0.2479  1.2489  1.0005
  138OSM   H11B15006   5.931   0.560   6.259 -1.5519 -1.6455  0.9319
  138OSM      P15007   5.817   0.310   6.183 -0.3678  0.0771 -0.0482
  138OSM    O1315008   5.676   0.319   6.125 -0.4921 -0.3340 -0.1956
  138OSM    O1415009   5.887   0.183   6.161  0.0204  0.9125 -0.2941
  138OSM    O1115010   5.809   0.364   6.330  0.3593  0.3728  0.3598
  138OSM    O1215011   5.910   0.416   6.108  0.0130 -0.6199  0.0738
  138OSM    C1S15012   5.908   0.358   6.428  0.4570  0.0276  0.1506
  138OSM    H1S15013   5.965   0.453   6.431  0.9532 -0.2567 -0.0627
  138OSM    H1T15014   5.988   0.286   6.399  1.0584  0.2809  1.1570
  138OSM     NF15015   5.958   0.310   6.669  0.0988 -0.3821  0.6742
  138OSM    HNF15016   5.977   0.215   6.692 -3.1185 -2.0143 -2.4804
  138OSM    C2S15017   5.852   0.329   6.573  0.7913  0.1489 -0.1120
  138OSM    H2S15018   5.786   0.411   6.608  1.8546  0.5281  1.1073
  138OSM    C3S15019   5.750   0.208   6.551 -0.1323 -0.2531 -0.2687
  138OSM    H3S15020   5.808   0.136   6.489 -0.7783  0.5059 -1.8177
  138OSM     O315021   5.630   0.232   6.479 -1.4263 -0.6665 -0.4030
  138OSM    HO315022   5.662   0.303   6.423 -1.4730  0.1375  0.5722
  138OSM    C4S15023   5.717   0.145   6.683 -0.4215 -0.5229 -0.2373
  138OSM    H4S15024   5.745   0.039   6.683  0.7832 -0.2393 -1.7302
  138OSM    C5S15025   5.632   0.194   6.771  0.9571 -0.4542 -0.0544
  138OSM    H5S15026   5.565   0.280   6.755  0.6079 -1.2071 -3.1233
  138OSM    C6S15027   5.589   0.118   6.890  0.4488  0.2627 -0.6546
  138OSM    H6S15028   5.605   0.009   6.872  0.5499 -0.2692  2.1823
  138OSM    H6T15029   5.480   0.130   6.906  0.4147 -0.4140 -0.3494
  138OSM    C7S15030   5.659   0.148   7.017 -0.7180 -0.2320 -0.7407
  138OSM    H7S15031   5.620   0.096   7.107  0.1306  0.1207 -0.1544
  138OSM    H7T15032   5.640   0.256   7.034  4.4425  0.6014  1.7010
  138OSM    C8S15033   5.815   0.135   7.028  0.5297 -0.5012 -0.6024
  138OSM    H8S15034   5.872   0.206   6.964  2.8553 -1.2502  0.4994
  138OSM    H8T15035   5.828   0.027   7.006  3.1110 -0.0398 -1.6894
  138OSM    C9S15036   5.855   0.155   7.172 -0.3303 -0.8368  0.7768
  138OSM    H9S15037   5.831   0.070   7.238 -1.0919  0.9852  2.9830
  138OSM    H9T15038   5.800   0.240   7.218  1.4670  0.8410 -0.0400
  138OSM   C10S15039   6.008   0.183   7.180  0.0979  0.5718 -0.6983
  138OSM   H10S15040   6.037   0.260   7.104 -1.2019  1.1588 -0.6239
  138OSM   H10T15041   6.059   0.086   7.164  2.4369  1.2773  1.7163
  138OSM   C11S15042   6.059   0.236   7.313 -0.0906  0.1952 -0.7476
  138OSM   H11S15043   6.022   0.339   7.329  0.1200 -0.0737  1.9022
  138OSM   H11T15044   6.170   0.228   7.312  0.1480  2.5118  0.7627
  138OSM   C12S15045   6.009   0.147   7.429 -0.3614 -0.4237 -0.3979
  138OSM   H12S15046   6.016   0.043   7.388 -1.9227  0.2058 -2.4467
  138OSM   H12T15047   5.904   0.171   7.455 -0.4608 -0.0593 -1.1221
  138OSM   C13S15048   6.095   0.155   7.556  0.1157 -0.6014  0.3030
  138OSM   H13S15049   6.110   0.261   7.585  0.4745 -1.0212  1.7395
  138OSM   H13T15050   6.197   0.113   7.543 -0.4792 -1.5769 -1.6632
  138OSM   C14S15051   6.036   0.077   7.672  0.0567 -0.3772  0.6991
  138OSM   H14S15052   6.044  -0.034   7.662  1.3072 -0.2986  0.6684
  138OSM   H14T15053   5.927   0.097   7.679  0.2562  0.3609  2.3081
  138OSM   C15S15054   6.087   0.113   7.811 -0.4088  0.2996  0.3124
  138OSM   H15S15055   6.066   0.222   7.819  2.0829  0.7399  1.9790
  138OSM   H15T15056   6.195   0.094   7.829 -1.1332 -3.0204  1.8349
  138OSM   C16S15057   6.012   0.031   7.923  0.4197 -0.2852 -0.0403
  138OSM   H16S15058   6.032  -0.077   7.903  1.0485 -0.3746  1.0136
  138OSM   H16T15059   5.904   0.050   7.901  1.1564  1.3076 -2.7838
  138OSM   C17S15060   6.053   0.055   8.065  0.4352 -0.0236  0.4778
  138OSM   H17S15061   6.024   0.159   8.090  2.6176  0.0298  3.3388
  138OSM   H17T15062   6.164   0.055   8.077  0.4111  0.6473  0.7309
  138OSM   C18S15063   5.998  -0.045   8.174  0.6262  0.2147  0.4674
  138OSM   H18S15064   6.073  -0.049   8.255  0.9088 -1.4926  0.1433
  138OSM   H18T15065   5.980  -0.145   8.130  1.9237 -0.1904  0.8280
  138OSM   H18U15066   5.902  -0.000   8.206  0.1294  0.3321 -1.1069
  138OSM    C1F15067   6.041   0.403   6.695  0.2459  0.1672  0.6619
  138OSM     OF15068   6.030   0.518   6.668 -0.0997  0.7512  0.0537
  138OSM    C2F15069   6.173   0.352   6.746  0.0572 -0.1586  0.0335
  138OSM    H2F15070   6.217   0.309   6.653  0.3282  0.4222 -0.1102
  138OSM    H2G15071   6.155   0.259   6.805  0.8015  0.9938  2.1808
  138OSM    C3F15072   6.253   0.459   6.813 -0.5436  0.3311 -0.4326
  138OSM    H3F15073   6.283   0.541   6.744 -0.4112  1.2389  0.6768
  138OSM    H3G15074   6.341   0.408   6.858 -0.1474  2.1965  1.0531
  138OSM    C4F15075   6.180   0.512   6.939  0.0718  0.8955 -0.1400
  138OSM    H4F15076   6.142   0.423   6.993 -2.2299 -0.0056 -2.9586
  138OSM    H4G15077   6.091   0.573   6.912  1.5428  3.0860 -0.3184
  138OSM    C5F15078   6.262   0.588   7.040 -0.1850  0.6265 -0.4817
  138OSM    H5F15079   6.204   0.667   7.092  0.5403  1.8438 -1.4445
  138OSM    H5G15080   6.338   0.638   6.976  1.9350 -0.1416  1.2972
  138OSM    C6F15081   6.323   0.489   7.141  0.1497 -0.4752 -0.0758
  138OSM    H6F15082   6.375   0.402   7.095  0.1959 -0.5916  0.1915
  138OSM    H6G15083   6.251   0.431   7.203 -1.4149  1.2822 -0.1822
  138OSM    C7F15084   6.419   0.563   7.242  0.4217 -0.2149  0.7916
  138OSM    H7F15085   6.396   0.671   7.235  0.4137 -0.2688 -0.0927
  138OSM    H7G15086   6.520   0.544   7.197 -0.0505 -1.3241  0.1581
  138OSM    C8F15087   6.406   0.511   7.387 -0.0163  0.2580  0.3855
  138OSM    H8F15088   6.479   0.580   7.435  0.1549  0.6522 -0.4319
  138OSM    H8G15089   6.432   0.404   7.373  1.1514  0.3359  1.7109
  138OSM    C9F15090   6.267   0.518   7.456 -0.1255  0.3767  0.5849
  138OSM    H9F15091   6.211   0.424   7.474  0.9410 -1.0837 -2.9531
  138OSM   C10F15092   6.217   0.629   7.507 -0.1955  0.0634  0.8240
  138OSM   H10F15093   6.117   0.638   7.551 -1.1001  0.1596 -1.1307
  138OSM   C11F15094   6.278   0.772   7.510  0.3732  0.0522 -0.2279
  138OSM   H11F15095   6.203   0.854   7.506  0.5692  0.3527  1.4966
  138OSM   H11G15096   6.334   0.788   7.415 -0.0077 -1.3605 -0.7237
  138OSM   C12F15097   6.386   0.797   7.618  0.2736  1.0370  0.0791
  138OSM   H12F15098   6.451   0.706   7.618 -2.2351 -0.8804 -0.2033
  138OSM   H12G15099   6.330   0.788   7.713  1.6536 -0.3248  0.8012
  138OSM   C13F15100   6.462   0.936   7.620 -0.2622  1.1458  0.0200
  138OSM   H13F15101   6.531   0.939   7.707  0.2698 -3.8616  0.0374
  138OSM   H13G15102   6.383   1.013   7.637  0.7340  2.2098 -0.0238
  138OSM   C14F15103   6.538   0.969   7.491 -0.4513 -0.2954 -0.0286
  138OSM   H14F15104   6.467   0.955   7.406 -0.2819 -0.2764 -0.1752
  138OSM   H14G15105   6.620   0.894   7.482  0.8055  1.0508 -0.1241
  138OSM   C15F15106   6.613   1.102   7.507 -1.2136 -0.0762  0.0706
  138OSM   H15F15107   6.697   1.099   7.580 -1.6085  1.7441  0.6518
  138OSM   H15G15108   6.531   1.164   7.550 -4.1440 -3.9511  0.6944
  138OSM   C16F15109   6.668   1.164   7.370 -0.2442  0.4483 -0.4066
  138OSM   H16F15110   6.739   1.085   7.339 -2.3234 -1.7235  0.0957
  138OSM   H16G15111   6.726   1.256   7.392  0.1635  0.0776  0.1005
  138OSM   C17F15112   6.559   1.197   7.263  0.2412 -0.3066  0.2902
  138OSM   H17F15113   6.470   1.238   7.315  0.8743 -0.2729  1.3615
  138OSM   H17G15114   6.522   1.101   7.220  1.8289  0.4463 -3.1280
  138OSM   C18F15115   6.613   1.283   7.146 -0.0054 -0.1635  0.2673
  138OSM   H18F15116   6.534   1.276   7.068  0.4848  1.5822 -0.4237
  138OSM   H18G15117   6.710   1.243   7.109  0.7141  0.9574  0.8524
  138OSM   H18H15118   6.645   1.386   7.172  0.8010  0.1809 -1.8952
  139OSM      N15119   6.620   2.315   6.175  0.2128  0.6176 -0.7030
  139OSM    C1515120   6.656   2.462   6.158 -0.0440  0.5252  0.1905
  139OSM   H15A15121   6.585   2.521   6.213 -0.8410  1.5234 -1.8106
  139OSM   H15B15122   6.648   2.493   6.054 -0.8977  0.0271  0.1044
  139OSM   H15C15123   6.754   2.473   6.203  0.8063 -3.7518 -0.1694
  139OSM    C1415124   6.722   2.228   6.118 -0.3926 -0.4142 -0.1126
  139OSM   H14A15125   6.733   2.249   6.013 -0.6939  0.0062 -0.0636
  139OSM   H14B15126   6.721   2.123   6.142 -1.8061 -1.0738 -2.7579
  139OSM   H14C15127   6.812   2.264   6.166  0.1526 -1.9701  0.0958
  139OSM    C1315128   6.610   2.284   6.323  0.0952 -0.3972  0.6182
  139OSM   H13A15129   6.572   2.187   6.350  1.4560 -0.7125  1.5344
  139OSM   H13B15130   6.542   2.357   6.362  0.0680  0.7293 -1.4026
  139OSM   H13C15131   6.709   2.289   6.367  1.3979 -3.1312 -1.6269
  139OSM    C1215132   6.489   2.294   6.121  0.1110  1.0147 -0.4862
  139OSM   H12A15133   6.453   2.194   6.142 -0.2661  0.9604 -1.3621
  139OSM   H12B15134   6.477   2.306   6.014 -0.8309 -1.8959 -0.7883
  139OSM    C1115135   6.369   2.389   6.174 -0.6626  0.1629 -0.1673
  139OSM   H11A15136   6.370   2.403   6.284 -2.6991  0.6721 -0.1690
  139OSM   H11B15137   6.276   2.334   6.149  0.0986 -1.0109 -0.4729
  139OSM      P15138   6.354   2.646   6.188  0.0659 -0.3572 -0.1805
  139OSM    O1315139   6.444   2.743   6.121 -0.0032 -0.0575 -0.0416
  139OSM    O1415140   6.212   2.683   6.184  1.0778  0.7635 -0.2888
  139OSM    O1115141   6.404   2.628   6.338  0.0149  1.2329 -0.5907
  139OSM    O1215142   6.371   2.508   6.106  0.3184 -0.3537  0.1579
  139OSM    C1S15143   6.336   2.692   6.449  0.0766  0.1773  0.7617
  139OSM    H1S15144   6.226   2.681   6.458  0.0231  1.0960  1.3959
  139OSM    H1T15145   6.357   2.801   6.441  1.4180 -0.2041 -2.2672
  139OSM     NF15146   6.324   2.708   6.701 -0.0617 -0.0043 -0.6921
  139OSM    HNF15147   6.368   2.774   6.761 -0.1702 -1.2420  0.8148
  139OSM    C2S15148   6.398   2.650   6.590 -0.1816  0.2470  0.3525
  139OSM    H2S15149   6.390   2.539   6.590 -0.8564  0.2390 -2.2095
  139OSM    C3S15150   6.552   2.684   6.593 -0.0414 -0.0794  0.5108
  139OSM    H3S15151   6.564   2.794   6.584 -2.2958  0.1123 -0.8335
  139OSM     O315152   6.624   2.626   6.477 -0.5498  0.1993 -0.3553
  139OSM    HO315153   6.553   2.583   6.428 -0.2648 -1.2448  0.4529
  139OSM    C4S15154   6.630   2.637   6.715 -0.8774  0.8740 -0.1305
  139OSM    H4S15155   6.632   2.722   6.785 -2.4625  1.9254 -1.2852
  139OSM    C5S15156   6.680   2.518   6.749  0.0229  0.6501  0.0491
  139OSM    H5S15157   6.674   2.441   6.671 -0.7420  1.1067 -0.3594
  139OSM    C6S15158   6.760   2.488   6.876  0.4236  0.7100 -0.9553
  139OSM    H6S15159   6.864   2.519   6.849  1.8431 -2.7403  0.0522
  139OSM    H6T15160   6.767   2.378   6.889 -0.4516  0.8056  0.4907
  139OSM    C7S15161   6.719   2.555   7.004 -0.5764  0.4776 -0.1555
  139OSM    H7S15162   6.617   2.520   7.031  0.1707 -0.5036  1.5306
  139OSM    H7T15163   6.717   2.666   6.996  2.1692  0.6932  0.8829
  139OSM    C8S15164   6.811   2.504   7.121 -0.2600 -0.7145  0.0960
  139OSM    H8S15165   6.914   2.543   7.132 -0.4822 -0.5941  2.0271
  139OSM    H8T15166   6.816   2.394   7.107 -1.9289 -0.7941 -0.1529
  139OSM    C9S15167   6.732   2.512   7.257  0.7239 -0.2687 -0.7503
  139OSM    H9S15168   6.742   2.416   7.311  0.5728 -1.0774 -2.1032
  139OSM    H9T15169   6.627   2.547   7.246  1.6055  2.1509 -2.1435
  139OSM   C10S15170   6.798   2.627   7.337 -0.0349 -0.0252 -0.3390
  139OSM   H10S15171   6.776   2.725   7.290  0.3230  0.8245  1.2032
  139OSM   H10T15172   6.908   2.612   7.337  0.0421  0.5097 -0.6397
  139OSM   C11S15173   6.743   2.642   7.482 -0.2549 -0.2431  0.3228
  139OSM   H11S15174   6.659   2.569   7.493  1.2758 -1.9430  1.1368
  139OSM   H11T15175   6.703   2.744   7.495 -0.0442  0.2272 -2.2111
  139OSM   C12S15176   6.847   2.606   7.594  0.7237 -0.0054 -0.7273
  139OSM   H12S15177   6.944   2.660   7.590  0.9429 -0.2115  0.8933
  139OSM   H12T15178   6.867   2.497   7.589  3.8611  0.4288 -0.1079
  139OSM   C13S15179   6.790   2.633   7.738  0.6671 -0.3393  0.0029
  139OSM   H13S15180   6.759   2.740   7.746  0.6844 -0.3795  0.7147
  139OSM   H13T15181   6.876   2.610   7.804  2.2742 -0.9399 -2.2011
  139OSM   C14S15182   6.684   2.536   7.787 -0.8733  0.2234 -0.8192
  139OSM   H14S15183   6.706   2.430   7.762 -0.3523  0.0166  0.4410
  139OSM   H14T15184   6.590   2.568   7.737 -1.0949  1.5213  0.3291
  139OSM   C15S15185   6.667   2.543   7.940  0.6281 -0.3308 -0.7326
  139OSM   H15S15186   6.758   2.511   7.994  1.0122  3.1018  0.9320
  139OSM   H15T15187   6.579   2.478   7.960 -0.7455  1.9035  0.9706
  139OSM   C16S15188   6.622   2.678   7.994 -0.1636 -0.1267 -0.5158
  139OSM   H16S15189   6.553   2.724   7.920 -1.4212  0.2139  0.8199
  139OSM   H16T15190   6.700   2.756   8.005  0.1634 -0.5701  0.3776
  139OSM   C17S15191   6.563   2.663   8.136  0.4135 -0.6018  0.2170
  139OSM   H17S15192   6.652   2.647   8.201 -0.4755  1.4402  2.0727
  139OSM   H17T15193   6.493   2.577   8.133  1.1441 -1.2382  0.9234
  139OSM   C18S15194   6.496   2.796   8.185  0.2606  0.3562  0.3502
  139OSM   H18S15195   6.406   2.824   8.125  0.9260 -0.1793 -0.9465
  139OSM   H18T15196   6.572   2.876   8.174  0.9954 -0.5666 -1.8718
  139OSM   H18U15197   6.446   2.779   8.283  0.2863 -4.0456 -0.2198
  139OSM    C1F15198   6.202   2.677   6.734 -1.0320  0.7996  0.4755
  139OSM     OF15199   6.143   2.582   6.676  0.1231  0.5253 -0.1966
  139OSM    C2F15200   6.143   2.755   6.845  0.5601 -0.0307  0.2268
  139OSM    H2F15201   6.037   2.775   6.816  0.9814  1.4875 -0.3644
  139OSM    H2G15202   6.187   2.856   6.860  0.0928  0.6117 -2.2791
  139OSM    C3F15203   6.138   2.668   6.972 -0.3699 -0.7534  0.5662
  139OSM    H3F15204   6.234   2.615   6.989 -0.4644 -2.1965 -2.5846
  139OSM    H3G15205   6.053   2.597   6.961 -1.6347  0.8058 -0.1280
  139OSM    C4F15206   6.115   2.752   7.100 -0.1401  0.5462 -0.8947
  139OSM    H4F15207   6.032   2.826   7.092 -1.4909 -0.7239  0.6628
  139OSM    H4G15208   6.210   2.804   7.120 -1.1885  2.0007  0.5881
  139OSM    C5F15209   6.077   2.661   7.219 -0.5025  0.0556  0.0702
  139OSM    H5F15210   6.001   2.587   7.186  0.8732 -1.0202 -0.7726
  139OSM    H5G15211   6.043   2.725   7.304  0.2560  2.3533 -1.2562
  139OSM    C6F15212   6.188   2.569   7.261 -0.2796 -0.3520 -0.0734
  139OSM    H6F15213   6.217   2.514   7.169 -1.1078  0.6434 -0.9692
  139OSM    H6G15214   6.147   2.493   7.331  1.5271 -0.0756  1.3607
  139OSM    C7F15215   6.307   2.640   7.343 -0.5546  0.7150  0.4197
  139OSM    H7F15216   6.284   2.749   7.338  2.3322  1.4940  1.8846
  139OSM    H7G15217   6.413   2.624   7.313 -0.1308  0.5476  1.9417
  139OSM    C8F15218   6.297   2.603   7.493 -0.3514  0.8827  0.2845
  139OSM    H8F15219   6.334   2.498   7.494 -1.1103  0.5964 -0.4460
  139OSM    H8G15220   6.190   2.619   7.516 -0.3634  1.3131 -0.0590
  139OSM    C9F15221   6.383   2.695   7.576  0.4833  0.2455 -0.2205
  139OSM    H9F15222   6.480   2.730   7.537  1.4131  0.0138  1.7781
  139OSM   C10F15223   6.341   2.732   7.700  0.1192 -0.1852  0.8569
  139OSM   H10F15224   6.400   2.799   7.763 -0.0112 -0.9160  1.7861
  139OSM   C11F15225   6.214   2.685   7.771  0.3293 -0.6119 -0.0479
  139OSM   H11F15226   6.239   2.649   7.873 -0.0892 -0.8890 -0.0401
  139OSM   H11G15227   6.163   2.605   7.713  0.5541 -1.0432  0.3379
  139OSM   C12F15228   6.106   2.794   7.792  0.1345  0.0907 -0.2770
  139OSM   H12F15229   6.152   2.886   7.834 -0.2321  0.4778 -0.7106
  139OSM   H12G15230   6.030   2.744   7.855  0.3816 -2.0351 -1.5742
  139OSM   C13F15231   6.034   2.822   7.653 -0.0581  0.6293  0.4586
  139OSM   H13F15232   6.001   2.722   7.619  1.5791 -0.6342  2.3605
  139OSM   H13G15233   6.119   2.848   7.587  1.9866 -2.9633  1.3966
  139OSM   C14F15234   5.914   2.913   7.666 -0.5496  0.2004 -0.1395
  139OSM   H14F15235   5.952   3.014   7.693  3.9178 -1.8581  2.3395
  139OSM   H14G15236   5.856   2.860   7.745 -1.5123  0.0611 -0.9159
  139OSM   C15F15237   5.829   2.925   7.539  0.4131  0.0100 -0.3155
  139OSM   H15F15238   5.744   2.996   7.550 -0.6743 -1.3321  0.2731
  139OSM   H15G15239   5.782   2.826   7.519  0.2337 -0.2601  1.3212
  139OSM   C16F15240   5.915   2.966   7.421 -0.3526  0.0765 -0.1002
  139OSM   H16F15241   5.968   2.876   7.382  0.0628 -0.3692  1.4099
  139OSM   H16G15242   5.987   3.041   7.460 -1.0759  1.0400 -0.5766
  139OSM   C17F15243   5.839   3.029   7.299 -0.1247  0.0200  0.6283
  139OSM   H17F15244   5.918   3.068   7.231 -0.7347  0.3664  0.1158
  139OSM   H17G15245   5.786   3.122   7.327  1.3823  0.4997  2.0373
  139OSM   C18F15246   5.744   2.928   7.233  0.1207 -0.5144  0.5200
  139OSM   H18F15247   5.801   2.842   7.192  0.3618 -0.6729  1.1792
  139OSM   H18G15248   5.688   2.981   7.153  1.3911  1.0697  0.6423
  139OSM   H18H15249   5.671   2.876   7.299 -1.4090  0.3444 -0.4250
  140OSM      N15250   6.531   4.177   6.118 -0.0526 -0.1524  0.3001
  140OSM    C1515251   6.444   4.287   6.059 -0.1049  0.3912  0.0207
  140OSM   H15A15252   6.458   4.293   5.952  1.0473  1.6544  0.2179
  140OSM   H15B15253   6.472   4.381   6.105 -2.7558  0.3474  1.9793
  140OSM   H15C15254   6.342   4.257   6.076  0.0440  0.3017  0.8064
  140OSM    C1415255   6.486   4.044   6.059  0.5917  0.6230  0.2394
  140OSM   H14A15256   6.525   3.961   6.115 -1.1243  1.8187  3.4591
  140OSM   H14B15257   6.513   4.041   5.954 -0.4669  0.3295 -0.0315
  140OSM   H14C15258   6.379   4.045   6.074  0.6041 -1.1875  0.6162
  140OSM    C1315259   6.669   4.209   6.081 -1.0775  0.8975 -0.1308
  140OSM   H13A15260   6.701   4.300   6.130 -0.1971 -0.1858  1.3437
  140OSM   H13B15261   6.682   4.209   5.974 -0.0229 -2.3679 -0.0981
  140OSM   H13C15262   6.737   4.131   6.110 -1.3359  0.3059 -1.0569
  140OSM    C1215263   6.502   4.170   6.268  0.1298 -0.0877 -0.1149
  140OSM   H12A15264   6.522   4.270   6.302  1.0955 -0.6384  0.9783
  140OSM   H12B15265   6.567   4.094   6.308  0.5179  0.3900  0.1696
  140OSM    C1115266   6.365   4.119   6.321  0.0943  0.4312 -0.5138
  140OSM   H11A15267   6.283   4.172   6.268 -0.2476 -1.3786 -1.8631
  140OSM   H11B15268   6.356   4.134   6.431 -0.9591 -1.0833 -0.3688
  140OSM      P15269   6.409   3.865   6.394 -0.3077 -0.0700  0.5820
  140OSM    O1315270   6.310   3.752   6.395 -0.2432 -0.8940 -0.5015
  140OSM    O1415271   6.544   3.838   6.337 -0.7945 -0.2414 -0.5669
  140OSM    O1115272   6.413   3.915   6.536  0.2622 -0.0491 -0.6487
  140OSM    O1215273   6.344   3.977   6.307  0.0581  0.0820  0.1517
  140OSM    C1S15274   6.295   3.943   6.612  0.4375 -1.0590  0.4195
  140OSM    H1S15275   6.202   3.899   6.571 -0.1692  1.4477 -1.1236
  140OSM    H1T15276   6.275   4.052   6.605 -2.7008 -1.6381 -1.6020
  140OSM     NF15277   6.190   3.909   6.831  0.2645 -0.2580 -0.5779
  140OSM    HNF15278   6.163   3.995   6.875  2.0746 -0.8990  1.9908
  140OSM    C2S15279   6.322   3.904   6.760 -0.2405 -0.9255 -0.0373
  140OSM    H2S15280   6.360   3.799   6.755 -0.9411 -1.4665  3.5769
  140OSM    C3S15281   6.438   3.993   6.810  0.5641 -0.3179 -0.0573
  140OSM    H3S15282   6.406   4.097   6.787  0.7600 -0.1108  0.6040
  140OSM     O315283   6.565   3.976   6.749  0.4358  0.4202 -0.4141
  140OSM    HO315284   6.545   3.918   6.675  1.5068 -2.1237  1.1631
  140OSM    C4S15285   6.454   3.968   6.956  0.7007  1.1872  0.2447
  140OSM    H4S15286   6.521   3.882   6.972  1.9131  1.4444 -2.8156
  140OSM    C5S15287   6.424   4.041   7.056 -0.2906 -0.0259 -0.1739
  140OSM    H5S15288   6.400   4.147   7.038  1.0503  0.0853 -1.5251
  140OSM    C6S15289   6.451   3.993   7.199 -0.5597  0.8205 -0.0015
  140OSM    H6S15290   6.371   3.921   7.228  0.0163 -0.3385 -1.1742
  140OSM    H6T15291   6.429   4.089   7.250  2.3880  2.7295 -1.9827
  140OSM    C7S15292   6.594   3.953   7.230 -0.2423  0.5567 -0.1686
  140OSM    H7S15293   6.662   4.036   7.201 -0.0923  1.1507  1.7344
  140OSM    H7T15294   6.628   3.873   7.161  1.1284  0.7065  0.3036
  140OSM    C8S15295   6.613   3.925   7.378  0.7175  0.7867 -0.6107
  140OSM    H8S15296   6.634   3.819   7.405 -1.3469  1.1129  2.9235
  140OSM    H8T15297   6.518   3.940   7.434  1.2472 -1.1752  0.9204
  140OSM    C9S15298   6.725   4.009   7.437  0.6160 -0.4593  0.1849
  140OSM    H9S15299   6.699   4.116   7.424  0.7351 -0.5885 -1.3114
  140OSM    H9T15300   6.820   3.989   7.382 -0.8994 -1.3545 -2.2478
  140OSM   C10S15301   6.757   3.983   7.588 -0.6854  0.3356  0.4445
  140OSM   H10S15302   6.842   4.052   7.608  0.2961 -0.3965 -1.0026
  140OSM   H10T15303   6.798   3.880   7.597  2.7212  1.6513  1.9888
  140OSM   C11S15304   6.661   4.026   7.692  0.6041 -0.3482 -1.1145
  140OSM   H11S15305   6.572   3.959   7.699 -1.2395  1.8991 -1.6301
  140OSM   H11T15306   6.622   4.130   7.684 -1.8011 -0.9414  1.2200
  140OSM   C12S15307   6.744   4.019   7.829 -0.2788  0.3059 -0.0502
  140OSM   H12S15308   6.815   4.104   7.827 -0.3116  0.3293 -0.2614
  140OSM   H12T15309   6.798   3.922   7.839 -1.6831 -0.3326  2.2394
  140OSM   C13S15310   6.661   4.017   7.958  0.0198 -0.2947  0.5828
  140OSM   H13S15311   6.596   3.929   7.938  1.0268 -0.7116 -1.0867
  140OSM   H13T15312   6.596   4.107   7.959 -2.1241 -1.7802  0.9254
  140OSM   C14S15313   6.732   4.009   8.089 -0.1503  0.1023  0.2396
  140OSM   H14S15314   6.810   4.087   8.084 -0.5736  0.5675  0.7515
  140OSM   H14T15315   6.791   3.915   8.093 -0.6223 -0.3052 -1.5714
  140OSM   C15S15316   6.633   4.013   8.210 -0.1038 -0.3405  0.2938
  140OSM   H15S15317   6.571   3.920   8.216  1.8706 -1.6449  1.8186
  140OSM   H15T15318   6.575   4.104   8.185  3.0970  1.3821 -1.4307
  140OSM   C16S15319   6.703   4.026   8.343 -1.0901 -0.5631  0.7968
  140OSM   H16S15320   6.790   4.094   8.330 -0.6692 -1.1091  0.7605
  140OSM   H16T15321   6.748   3.932   8.379  0.1801 -0.2382  0.1024
  140OSM   C17S15322   6.612   4.074   8.454  0.2256 -0.8611  0.8039
  140OSM   H17S15323   6.552   3.985   8.485  0.2150 -0.5975  1.5597
  140OSM   H17T15324   6.544   4.156   8.423  1.5120 -0.5015 -1.2271
  140OSM   C18S15325   6.692   4.125   8.574  0.6902 -0.7214 -0.0918
  140OSM   H18S15326   6.769   4.201   8.547 -0.2861  0.3856  0.1461
  140OSM   H18T15327   6.746   4.048   8.634 -0.5527  0.6513  2.9888
  140OSM   H18U15328   6.627   4.173   8.650  0.2194 -0.5644 -0.5874
  140OSM    C1F15329   6.093   3.823   6.831  0.9369 -0.2156 -0.4131
  140OSM     OF15330   6.097   3.723   6.758 -0.2638 -0.2387  0.3674
  140OSM    C2F15331   5.983   3.844   6.932  0.4215  0.7677  0.0591
  140OSM    H2F15332   5.894   3.781   6.916  0.6395  0.7506 -1.2009
  140OSM    H2G15333   5.949   3.950   6.930 -2.5009 -0.1107 -0.2332
  140OSM    C3F15334   6.034   3.808   7.075  0.0097  0.2625  0.3547
  140OSM    H3F15335   6.122   3.866   7.111 -0.3175  0.1178  1.4286
  140OSM    H3G15336   6.062   3.700   7.076 -1.6604 -0.2077  0.0865
  140OSM    C4F15337   5.909   3.826   7.164 -0.5716  0.4420 -0.0327
  140OSM    H4F15338   5.812   3.783   7.131 -1.1927  0.6513  1.4735
  140OSM    H4G15339   5.905   3.937   7.167  2.6994  0.6715 -0.0467
  140OSM    C5F15340   5.939   3.779   7.311 -0.5147  0.6754  0.7169
  140OSM    H5F15341   6.014   3.853   7.346 -0.5843  0.6884  0.8386
  140OSM    H5G15342   5.993   3.682   7.305 -2.2360 -0.2131 -2.4924
  140OSM    C6F15343   5.822   3.792   7.411 -0.4613  0.3404 -1.0298
  140OSM    H6F15344   5.739   3.720   7.396  0.0612 -0.5828  0.2543
  140OSM    H6G15345   5.778   3.894   7.407 -2.1578 -0.2638  0.8078
  140OSM    C7F15346   5.877   3.771   7.559  1.2455 -0.1416  0.2274
  140OSM    H7F15347   5.966   3.829   7.593  0.9105  0.2282  0.4787
  140OSM    H7G15348   5.903   3.664   7.574 -2.7927 -1.6481 -2.0472
  140OSM    C8F15349   5.767   3.789   7.670 -0.3625  0.1783  0.0783
  140OSM    H8F15350   5.688   3.716   7.642 -0.0352 -0.0250 -0.3246
  140OSM    H8G15351   5.714   3.887   7.664 -1.2606 -0.3573 -1.2494
  140OSM    C9F15352   5.817   3.774   7.812  0.5147 -0.0842  1.5635
  140OSM    H9F15353   5.904   3.708   7.825  1.1585  0.2792 -0.5020
  140OSM   C10F15354   5.798   3.855   7.914  0.0345  0.1371  0.1134
  140OSM   H10F15355   5.832   3.817   8.012  1.3096 -2.3645 -1.1999
  140OSM   C11F15356   5.710   3.978   7.918 -0.1172 -0.1693  0.1081
  140OSM   H11F15357   5.610   3.962   7.872 -0.0166 -1.5178  0.3076
  140OSM   H11G15358   5.765   4.046   7.850 -1.5492  0.8441 -0.0842
  140OSM   C12F15359   5.685   4.042   8.055 -0.2448 -0.0143 -0.3212
  140OSM   H12F15360   5.774   4.027   8.119  0.7604 -2.2129 -2.1310
  140OSM   H12G15361   5.595   3.998   8.103  0.8166 -0.2485  1.5414
  140OSM   C13F15362   5.647   4.191   8.047  0.1581  0.6576 -0.5307
  140OSM   H13F15363   5.550   4.207   7.996  0.2593  1.7485 -0.4128
  140OSM   H13G15364   5.724   4.240   7.983 -0.4410  0.4519 -1.4381
  140OSM   C14F15365   5.648   4.263   8.180 -0.8746  0.3158  0.1813
  140OSM   H14F15366   5.754   4.272   8.211 -0.7475  2.0923 -0.6131
  140OSM   H14G15367   5.581   4.202   8.245 -0.8037 -0.3051 -0.3143
  140OSM   C15F15368   5.596   4.412   8.177 -0.5411  0.0217 -0.2789
  140OSM   H15F15369   5.492   4.386   8.149 -0.5983 -2.1937  1.6945
  140OSM   H15G15370   5.638   4.461   8.086 -1.3050 -1.9376 -1.7676
  140OSM   C16F15371   5.607   4.479   8.310 -0.2689  0.8600  0.1088
  140OSM   H16F15372   5.546   4.422   8.384 -0.2616  1.7277  0.8126
  140OSM   H16G15373   5.564   4.582   8.303 -1.3099  0.4006 -0.5719
  140OSM   C17F15374   5.745   4.503   8.359  0.4032 -0.4920 -0.0002
  140OSM   H17F15375   5.810   4.553   8.285  1.3890 -0.4003  0.8984
  140OSM   H17G15376   5.795   4.406   8.384  0.7124  0.0914  1.7723
  140OSM   C18F15377   5.750   4.578   8.496  0.3068  0.3179  0.3806
  140OSM   H18F15378   5.701   4.677   8.492  1.0753  0.7685  1.4474
  140OSM   H18G15379   5.852   4.594   8.539  0.2981  1.1478  0.1190
  140OSM   H18H15380   5.693   4.518   8.570 -1.3370  0.6836 -0.5596
  141OSM      N15381   6.474   5.695   6.039 -0.1881  0.1971  0.1650
  141OSM    C1515382   6.521   5.564   5.979  0.0987 -1.0423 -0.4233
  141OSM   H15A15383   6.482   5.557   5.878 -1.4544  1.0379 -0.0259
  141OSM   H15B15384   6.468   5.483   6.027 -1.0073 -0.6798 -1.0037
  141OSM   H15C15385   6.628   5.551   5.977  0.4341  1.0633  0.8428
  141OSM    C1415386   6.510   5.811   5.961 -0.2756  0.7997  0.5448
  141OSM   H14A15387   6.615   5.835   5.963 -0.5220  2.2679 -1.6269
  141OSM   H14B15388   6.466   5.903   5.997  2.6383  2.4673  0.0931
  141OSM   H14C15389   6.484   5.793   5.858 -2.6259 -0.9177  1.3375
  141OSM    C1315390   6.324   5.688   6.049 -0.2976 -0.0826 -0.3929
  141OSM   H13A15391   6.287   5.786   6.075  2.0006  0.3624  1.5585
  141OSM   H13B15392   6.291   5.628   6.133 -0.0057 -1.4645 -1.2389
  141OSM   H13C15393   6.286   5.650   5.956  0.1725 -2.3681  0.3000
  141OSM    C1215394   6.530   5.706   6.182  0.1932 -0.2660 -0.2404
  141OSM   H12A15395   6.495   5.620   6.237  0.2265  0.5618  1.1144
  141OSM   H12B15396   6.494   5.797   6.227  1.1976 -0.7763  1.7229
  141OSM    C1115397   6.689   5.711   6.187  0.1304  0.4489 -0.7024
  141OSM   H11A15398   6.739   5.639   6.120  1.3288  0.5088  0.1079
  141OSM   H11B15399   6.720   5.681   6.290 -1.1194 -0.2926 -0.5175
  141OSM      P15400   6.703   5.957   6.264  0.4225  0.3242 -0.2245
  141OSM    O1315401   6.774   6.071   6.210 -0.1827 -0.5640 -0.3068
  141OSM    O1415402   6.556   5.975   6.279  0.4306 -0.6328 -0.3492
  141OSM    O1115403   6.767   5.904   6.400 -0.9257  0.0603 -0.0270
  141OSM    O1215404   6.731   5.851   6.154  0.1672  0.0425  0.3908
  141OSM    C1S15405   6.903   5.890   6.429 -0.7703  0.6686 -0.4184
  141OSM    H1S15406   6.954   5.988   6.423 -0.3907  0.4486 -0.8482
  141OSM    H1T15407   6.947   5.816   6.359 -1.7122 -1.1070  0.7940
  141OSM     NF15408   7.069   5.815   6.597 -0.2283  0.2820  0.3581
  141OSM    HNF15409   7.113   5.731   6.567  1.6316  1.3290  0.0240
  141OSM    C2S15410   6.919   5.831   6.576 -1.1260 -0.1135 -0.0538
  141OSM    H2S15411   6.878   5.911   6.640 -2.0974  0.3651 -1.2244
  141OSM    C3S15412   6.844   5.699   6.595  0.1823  0.5651  0.3742
  141OSM    H3S15413   6.879   5.630   6.515  0.0469  0.5705  0.3096
  141OSM     O315414   6.699   5.712   6.572 -0.3138  0.4724  0.1043
  141OSM    HO315415   6.701   5.785   6.509  0.8637  0.1171 -0.3123
  141OSM    C4S15416   6.872   5.637   6.727  0.2252 -0.9116 -0.0156
  141OSM    H4S15417   6.972   5.591   6.720  0.3214 -0.5218 -1.8487
  141OSM    C5S15418   6.800   5.636   6.841  0.0598 -0.4081  0.5228
  141OSM    H5S15419   6.709   5.697   6.846  0.2270 -0.1530  0.5102
  141OSM    C6S15420   6.848   5.578   6.974 -0.0751 -0.2669 -0.4232
  141OSM    H6S15421   6.940   5.516   6.964  1.0774  1.3074 -0.0451
  141OSM    H6T15422   6.768   5.510   7.009  0.5332 -1.5455 -1.4604
  141OSM    C7S15423   6.868   5.696   7.071  0.3739 -0.3818  0.5342
  141OSM    H7S15424   6.764   5.734   7.083  0.2272 -0.1837 -1.1784
  141OSM    H7T15425   6.927   5.780   7.029 -0.0177  0.0584  0.8377
  141OSM    C8S15426   6.929   5.660   7.205 -0.2798  0.2131  0.0697
  141OSM    H8S15427   6.931   5.748   7.273  3.4472  0.9605 -0.7614
  141OSM    H8T15428   7.035   5.627   7.199 -0.2483  0.0815  1.1000
  141OSM    C9S15429   6.848   5.547   7.277 -0.1589 -0.5279  0.3683
  141OSM    H9S15430   6.853   5.448   7.226  0.3905 -0.1405 -0.3393
  141OSM    H9T15431   6.744   5.577   7.300 -0.4365 -0.9934 -0.2426
  141OSM   C10S15432   6.920   5.515   7.412  0.4721 -0.3671  0.2294
  141OSM   H10S15433   6.950   5.616   7.448 -0.5149  0.6101 -1.5080
  141OSM   H10T15434   7.018   5.464   7.393 -0.4114 -1.0351 -3.3340
  141OSM   C11S15435   6.821   5.437   7.501 -0.1165 -0.0660 -0.5375
  141OSM   H11S15436   6.797   5.348   7.438  4.0544 -3.0200  1.5210
  141OSM   H11T15437   6.736   5.508   7.508  0.5913  0.6470  2.4536
  141OSM   C12S15438   6.866   5.410   7.643  0.0775  0.1254 -0.0968
  141OSM   H12S15439   6.896   5.507   7.688 -0.1567  0.1543  0.0000
  141OSM   H12T15440   6.950   5.338   7.647  0.0892  0.0611 -1.0965
  141OSM   C13S15441   6.755   5.349   7.726  0.6840 -0.4107 -0.4370
  141OSM   H13S15442   6.740   5.245   7.690 -0.8169 -0.1542 -0.6135
  141OSM   H13T15443   6.649   5.382   7.723  0.2790 -1.6817 -0.6356
  141OSM   C14S15444   6.782   5.346   7.880  0.5590 -0.5200  0.3371
  141OSM   H14S15445   6.845   5.431   7.914  1.3098 -1.1944  0.6366
  141OSM   H14T15446   6.825   5.249   7.913  1.8359  0.1822  0.7840
  141OSM   C15S15447   6.652   5.366   7.959  0.0159 -0.2869 -0.5918
  141OSM   H15S15448   6.574   5.302   7.913 -1.0586  0.9004 -0.4556
  141OSM   H15T15449   6.622   5.470   7.935  1.3226  0.3414  0.3704
  141OSM   C16S15450   6.652   5.356   8.112  0.1026  0.2938  0.9148
  141OSM   H16S15451   6.652   5.249   8.142 -0.1693 -0.1182 -0.5180
  141OSM   H16T15452   6.554   5.402   8.138 -0.5762  0.8046 -2.2061
  141OSM   C17S15453   6.772   5.426   8.182  0.2251  0.2631 -0.3789
  141OSM   H17S15454   6.770   5.530   8.144 -0.3250  0.6287  0.5970
  141OSM   H17T15455   6.865   5.371   8.155  1.1777  1.5779  0.1553
  141OSM   C18S15456   6.761   5.423   8.332 -0.1947  0.1080 -0.1411
  141OSM   H18S15457   6.658   5.452   8.362 -0.2815  0.8610 -1.1161
  141OSM   H18T15458   6.836   5.487   8.383  0.4278 -1.0243  0.3988
  141OSM   H18U15459   6.774   5.318   8.365  2.4258  0.4029 -0.0174
  141OSM    C1F15460   7.148   5.922   6.617 -0.4485  0.4613 -0.4907
  141OSM     OF15461   7.098   6.035   6.617 -0.2103  0.1954  0.5010
  141OSM    C2F15462   7.293   5.899   6.626 -0.5566 -0.2475  0.1940
  141OSM    H2F15463   7.337   5.949   6.537 -1.1152  1.2293  0.7074
  141OSM    H2G15464   7.310   5.790   6.617 -0.6187 -0.1807 -0.7710
  141OSM    C3F15465   7.356   5.950   6.763  0.0116  0.4943  0.0776
  141OSM    H3F15466   7.328   6.056   6.781 -0.4687  0.3079  0.4431
  141OSM    H3G15467   7.466   5.938   6.753 -0.2437 -1.6883 -0.7049
  141OSM    C4F15468   7.309   5.862   6.887  0.0205 -0.3028  0.1922
  141OSM    H4F15469   7.340   5.757   6.872  0.6232 -0.1338  0.2175
  141OSM    H4G15470   7.199   5.872   6.903 -0.3767 -2.1977 -1.0223
  141OSM    C5F15471   7.373   5.893   7.031  0.1173 -0.2406  0.6497
  141OSM    H5F15472   7.350   5.993   7.074  4.7854  0.5574  1.8818
  141OSM    H5G15473   7.484   5.885   7.021  0.2497  0.2302  1.6397
  141OSM    C6F15474   7.334   5.784   7.141  0.0393  0.5989  0.0034
  141OSM    H6F15475   7.340   5.683   7.094 -0.9608  0.9108 -0.8334
  141OSM    H6G15476   7.227   5.799   7.164  0.1290  2.5670 -0.6826
  141OSM    C7F15477   7.412   5.793   7.273  0.2068  0.4882  0.2214
  141OSM    H7F15478   7.377   5.886   7.323 -0.5425 -1.3639  3.4141
  141OSM    H7G15479   7.521   5.805   7.251  0.6357 -0.9230  1.3596
  141OSM    C8F15480   7.395   5.683   7.385 -0.0540 -0.6374  0.6209
  141OSM    H8F15481   7.479   5.699   7.455  0.1087 -2.1688  0.8145
  141OSM    H8G15482   7.420   5.586   7.338 -1.1711 -2.3580  3.2915
  141OSM    C9F15483   7.260   5.685   7.443 -0.2416 -0.2450 -0.0499
  141OSM    H9F15484   7.190   5.761   7.404 -2.2002 -1.1160  1.5624
  141OSM   C10F15485   7.217   5.621   7.548 -0.2273 -0.3292  0.3913
  141OSM   H10F15486   7.114   5.644   7.579 -0.1403 -0.5220  0.8392
  141OSM   C11F15487   7.284   5.530   7.634 -0.0593 -0.5303 -0.9219
  141OSM   H11F15488   7.343   5.601   7.697  0.2324 -1.2684 -0.3452
  141OSM   H11G15489   7.351   5.471   7.567 -1.6057 -2.5779 -0.7654
  141OSM   C12F15490   7.204   5.435   7.723 -0.7343 -0.8525  0.7604
  141OSM   H12F15491   7.137   5.373   7.660  0.6518 -0.4675 -1.2147
  141OSM   H12G15492   7.137   5.485   7.796 -0.1598 -1.2417  1.5752
  141OSM   C13F15493   7.299   5.341   7.806  0.3173  0.5784  0.0122
  141OSM   H13F15494   7.356   5.408   7.874 -0.1031  1.8823 -0.8662
  141OSM   H13G15495   7.363   5.289   7.732  1.8975  1.8838  0.4188
  141OSM   C14F15496   7.213   5.258   7.903 -0.0793 -0.7358  0.9556
  141OSM   H14F15497   7.140   5.196   7.848  0.3382 -0.3466 -0.0566
  141OSM   H14G15498   7.150   5.322   7.968 -0.5336  0.5176 -0.6490
  141OSM   C15F15499   7.311   5.171   7.987  0.2415 -0.4037  0.0496
  141OSM   H15F15500   7.250   5.132   8.072  0.2199  1.7577  1.1018
  141OSM   H15G15501   7.387   5.238   8.034 -0.2234 -0.6390  1.1682
  141OSM   C16F15502   7.384   5.069   7.902 -0.7054 -0.0341  0.1121
  141OSM   H16F15503   7.447   5.000   7.963  1.9160 -0.4452 -2.8177
  141OSM   H16G15504   7.458   5.110   7.831  0.6064 -0.5769  1.1391
  141OSM   C17F15505   7.279   4.986   7.822 -0.2246 -0.0842  0.6814
  141OSM   H17F15506   7.243   5.047   7.737 -0.1925  1.0262  1.4561
  141OSM   H17G15507   7.188   4.958   7.878 -1.5771  0.0900 -1.3206
  141OSM   C18F15508   7.342   4.854   7.773  0.0157  0.5348  0.4291
  141OSM   H18F15509   7.285   4.798   7.696  1.5813 -1.7310  0.7831
  141OSM   H18G15510   7.367   4.769   7.841  0.6841  0.0133 -0.4416
  141OSM   H18H15511   7.440   4.876   7.727 -0.9782  0.6837 -1.7298
  142OSM      N15512   5.497   5.826   6.458  0.6162 -0.6365 -0.1110
  142OSM    C1515513   5.474   5.971   6.473 -0.7304 -0.3848 -0.4849
  142OSM   H15A15514   5.528   6.030   6.400  0.3269 -1.8484 -0.9401
  142OSM   H15B15515   5.507   6.003   6.571 -0.3930 -2.0329 -0.0146
  142OSM   H15C15516   5.371   5.989   6.448 -0.5068  0.4318 -0.8277
  142OSM    C1415517   5.501   5.795   6.309 -0.5567 -0.3765  0.1765
  142OSM   H14A15518   5.564   5.869   6.261 -1.1622  0.4229  0.5926
  142OSM   H14B15519   5.402   5.809   6.267  0.3908  1.4160 -1.6744
  142OSM   H14C15520   5.530   5.694   6.287 -1.4051  0.0717 -3.7547
  142OSM    C1315521   5.635   5.809   6.520  0.2346 -0.1622 -0.0956
  142OSM   H13A15522   5.697   5.872   6.458 -1.1587 -1.3113 -2.7985
  142OSM   H13B15523   5.661   5.704   6.510  1.0804  0.1781 -1.8076
  142OSM   H13C15524   5.640   5.836   6.625  0.4702  0.3917 -0.2473
  142OSM    C1215525   5.395   5.742   6.532  0.3180 -0.1257  0.1118
  142OSM   H12A15526   5.396   5.782   6.633 -3.0263  2.1128 -0.5619
  142OSM   H12B15527   5.425   5.639   6.522  2.6560  0.5676 -0.6411
  142OSM    C1115528   5.245   5.741   6.485 -0.4196 -0.0528  0.4944
  142OSM   H11A15529   5.180   5.702   6.566 -0.9016  1.4783  0.8771
  142OSM   H11B15530   5.236   5.671   6.399  1.3974 -0.3524  0.5181
  142OSM      P15531   5.046   5.902   6.429  0.0125  0.0509 -0.0716
  142OSM    O1315532   5.033   6.030   6.357 -0.2926  0.6042  0.2466
  142OSM    O1415533   4.983   5.780   6.367  0.4610 -0.3047  0.3362
  142OSM    O1115534   5.004   5.909   6.577 -0.3489  0.0176 -0.3660
  142OSM    O1215535   5.198   5.867   6.444 -0.1937 -0.2104  0.4746
  142OSM    C1S15536   5.093   5.981   6.663  0.3949 -0.1781 -0.3380
  142OSM    H1S15537   5.136   6.075   6.623  1.5209 -1.2225 -1.6752
  142OSM    H1T15538   5.183   5.922   6.690  0.1357 -0.2562  0.3829
  142OSM     NF15539   5.091   6.118   6.876 -0.3105 -0.1373  0.1719
  142OSM    HNF15540   5.153   6.078   6.942  1.0996 -0.7395 -1.4328
  142OSM    C2S15541   5.023   6.009   6.803 -0.2892 -0.4353  0.0737
  142OSM    H2S15542   4.923   6.053   6.783  0.3533  1.4951  0.9267
  142OSM    C3S15543   5.003   5.876   6.882 -0.0225 -0.5104  0.3492
  142OSM    H3S15544   5.110   5.851   6.898  0.6120  0.9186 -1.3079
  142OSM     O315545   4.942   5.775   6.800 -0.6382 -0.1612  0.3536
  142OSM    HO315546   4.967   5.807   6.714  2.0448 -0.3020  0.9770
  142OSM    C4S15547   4.920   5.908   7.001 -0.1813 -0.3638 -0.1261
  142OSM    H4S15548   4.984   5.919   7.090 -2.3923 -0.7077  1.5947
  142OSM    C5S15549   4.788   5.921   7.015 -0.4350 -0.1543  0.1338
  142OSM    H5S15550   4.726   5.896   6.927 -0.3654  2.4801 -0.7486
  142OSM    C6S15551   4.721   5.955   7.141 -0.3900  0.1913  0.3436
  142OSM    H6S15552   4.614   5.925   7.136  0.1407 -2.0496  1.0613
  142OSM    H6T15553   4.721   6.063   7.165  0.3174  0.6283 -1.4686
  142OSM    C7S15554   4.767   5.884   7.272 -1.1613  0.2163 -0.0749
  142OSM    H7S15555   4.873   5.913   7.291 -1.5091  0.8981  0.9345
  142OSM    H7T15556   4.752   5.775   7.265  1.0473 -0.0572 -1.9336
  142OSM    C8S15557   4.681   5.942   7.390  0.3939  0.1735 -0.2380
  142OSM    H8S15558   4.574   5.925   7.368  0.0493  0.1495  1.3873
  142OSM    H8T15559   4.693   6.052   7.392 -0.0418  0.2068  1.0240
  142OSM    C9S15560   4.722   5.903   7.532  0.3378 -0.7807  0.1905
  142OSM    H9S15561   4.831   5.917   7.546  0.2694 -1.0227  0.9694
  142OSM    H9T15562   4.700   5.798   7.561  2.0198 -1.2029  0.0607
  142OSM   C10S15563   4.659   5.992   7.643 -0.0302  0.1964 -0.4359
  142OSM   H10S15564   4.550   5.981   7.625 -0.0985 -0.8008  0.4473
  142OSM   H10T15565   4.685   6.099   7.654 -0.4369  0.0658  2.4849
  142OSM   C11S15566   4.705   5.933   7.772  0.4841  0.8137  0.1393
  142OSM   H11S15567   4.814   5.952   7.781  0.6443  1.0493 -1.7709
  142OSM   H11T15568   4.689   5.823   7.770 -1.2959  1.0113  1.1288
  142OSM   C12S15569   4.629   5.986   7.897 -0.0661  0.5156 -0.4676
  142OSM   H12S15570   4.535   5.926   7.902  0.0369  0.4550  1.2842
  142OSM   H12T15571   4.602   6.092   7.877  2.0480  1.2173  0.1309
  142OSM   C13S15572   4.715   5.979   8.028  0.2238 -0.2777  0.1486
  142OSM   H13S15573   4.654   6.001   8.118  1.5277  0.9999  0.7704
  142OSM   H13T15574   4.795   6.057   8.023 -0.3546  0.3621  0.6808
  142OSM   C14S15575   4.763   5.841   8.058  0.4733 -0.8681 -0.4401
  142OSM   H14S15576   4.842   5.817   7.984  1.4629 -0.7828  0.5588
  142OSM   H14T15577   4.686   5.762   8.050 -0.8900  0.2657  0.7411
  142OSM   C15S15578   4.830   5.844   8.199 -0.1710 -0.1818 -0.6831
  142OSM   H15S15579   4.889   5.938   8.208 -1.4339  0.5599  0.1504
  142OSM   H15T15580   4.910   5.767   8.196 -0.4191 -0.4283 -2.2450
  142OSM   C16S15581   4.729   5.833   8.312  0.1371 -0.2125 -0.3136
  142OSM   H16S15582   4.639   5.786   8.267  0.0762 -1.1692  0.7581
  142OSM   H16T15583   4.710   5.931   8.361 -0.7083  0.3982 -1.8135
  142OSM   C17S15584   4.768   5.721   8.408  0.0633 -0.2546 -0.2728
  142OSM   H17S15585   4.871   5.754   8.431 -0.2968  0.6931  0.0398
  142OSM   H17T15586   4.775   5.627   8.350 -1.5860 -0.2228 -0.5745
  142OSM   C18S15587   4.691   5.705   8.541 -0.1314 -0.0857 -0.2526
  142OSM   H18S15588   4.749   5.633   8.602 -3.7535 -1.0605  2.3632
  142OSM   H18T15589   4.585   5.673   8.533 -0.0218 -0.1857 -1.5329
  142OSM   H18U15590   4.691   5.800   8.598 -0.5295  0.5830 -1.3297
  142OSM    C1F15591   5.086   6.247   6.840 -0.1095 -0.0712 -0.3479
  142OSM     OF15592   5.017   6.282   6.742 -0.4388  0.3809 -0.5650
  142OSM    C2F15593   5.159   6.343   6.934  0.2369  0.1028  0.7705
  142OSM    H2F15594   5.220   6.404   6.863  1.2335 -1.6365  0.0661
  142OSM    H2G15595   5.213   6.275   7.004  0.7412 -0.5622 -0.2398
  142OSM    C3F15596   5.067   6.427   7.017 -0.2831 -0.0338  0.2618
  142OSM    H3F15597   5.024   6.350   7.085  2.3691 -0.1757  1.9059
  142OSM    H3G15598   4.992   6.468   6.947 -0.7373  1.3597  1.5189
  142OSM    C4F15599   5.142   6.544   7.089  0.3843  0.5144 -0.4990
  142OSM    H4F15600   5.068   6.596   7.154 -0.4753 -2.5148  1.1502
  142OSM    H4G15601   5.190   6.616   7.019  1.4414  0.0513 -0.2728
  142OSM    C5F15602   5.256   6.500   7.193  0.6207 -0.0306  0.6493
  142OSM    H5F15603   5.319   6.426   7.139  1.1461  1.9278 -1.5563
  142OSM    H5G15604   5.209   6.453   7.282 -0.5203 -0.9979 -0.4024
  142OSM    C6F15605   5.344   6.621   7.239 -0.2879  0.7345  0.1092
  142OSM    H6F15606   5.273   6.691   7.287 -0.7765 -0.8054  1.7501
  142OSM    H6G15607   5.398   6.664   7.151  1.2139 -0.8023  0.2157
  142OSM    C7F15608   5.441   6.586   7.360  0.1124 -0.3618  0.3423
  142OSM    H7F15609   5.511   6.516   7.310  1.7118  0.6812  1.0169
  142OSM    H7G15610   5.399   6.542   7.453 -0.0852  1.4955  1.1704
  142OSM    C8F15611   5.519   6.708   7.404 -0.1930  0.7160 -0.3985
  142OSM    H8F15612   5.465   6.772   7.477  0.6907 -0.4253  1.3201
  142OSM    H8G15613   5.532   6.769   7.312  0.1791 -0.0090 -0.8379
  142OSM    C9F15614   5.660   6.684   7.452 -1.1493 -0.6554  0.4025
  142OSM    H9F15615   5.734   6.696   7.371 -1.8695 -0.6522 -0.2642
  142OSM   C10F15616   5.695   6.664   7.580  0.2137 -0.2333 -0.3392
  142OSM   H10F15617   5.801   6.645   7.603 -0.1207  1.1052  2.7717
  142OSM   C11F15618   5.602   6.655   7.698 -0.0060 -0.2118  0.0740
  142OSM   H11F15619   5.583   6.546   7.713  0.7890 -1.1821 -4.4685
  142OSM   H11G15620   5.508   6.711   7.678 -1.0164 -1.3478  1.4541
  142OSM   C12F15621   5.659   6.701   7.833 -0.7091  0.8633  0.8267
  142OSM   H12F15622   5.684   6.809   7.825 -0.8309  0.8714  0.5380
  142OSM   H12G15623   5.751   6.641   7.847 -1.1801 -0.2601 -0.5379
  142OSM   C13F15624   5.563   6.695   7.948  0.2519  0.3512 -0.2947
  142OSM   H13F15625   5.517   6.594   7.948  1.2117 -0.0973 -0.7048
  142OSM   H13G15626   5.476   6.761   7.930  0.4048  0.1494 -1.8770
  142OSM   C14F15627   5.627   6.726   8.078 -0.3056 -0.6233 -0.0996
  142OSM   H14F15628   5.605   6.830   8.112  1.0275 -0.5170  0.5096
  142OSM   H14G15629   5.737   6.722   8.070 -0.1069  1.7265  0.6812
  142OSM   C15F15630   5.588   6.628   8.190  0.5970  0.3135  0.0624
  142OSM   H15F15631   5.479   6.607   8.190  0.8794 -1.2987  0.4813
  142OSM   H15G15632   5.624   6.676   8.284  1.5187 -2.5031  1.2597
  142OSM   C16F15633   5.655   6.493   8.170 -0.1979  0.6629 -0.7777
  142OSM   H16F15634   5.764   6.514   8.168 -0.2793  1.2203  0.2967
  142OSM   H16G15635   5.628   6.442   8.075  0.0969 -1.0017 -0.0062
  142OSM   C17F15636   5.639   6.388   8.283 -0.3769  0.1206  0.1962
  142OSM   H17F15637   5.534   6.355   8.295 -0.3272  0.1443  0.7392
  142OSM   H17G15638   5.671   6.445   8.374  1.1447 -1.4076  0.6878
  142OSM   C18F15639   5.741   6.272   8.278 -0.2485 -0.1151 -0.0283
  142OSM   H18F15640   5.733   6.191   8.354 -0.1461 -0.8234 -0.7534
  142OSM   H18G15641   5.846   6.308   8.284  0.4102 -2.0557  0.9842
  142OSM   H18H15642   5.723   6.217   8.183 -1.5220 -3.3685  1.9086
  143OSM      N15643   0.326   1.386   5.756 -0.3809  0.2570  1.0221
  143OSM    C1515644   0.404   1.385   5.873 -0.1944  0.1805 -0.1312
  143OSM   H15A15645   0.495   1.329   5.872 -0.6088 -0.5089  0.2035
  143OSM   H15B15646   0.347   1.347   5.957 -1.0096 -1.4500 -1.3593
  143OSM   H15C15647   0.432   1.488   5.890  2.9058  0.0433 -3.1723
  143OSM    C1415648   0.215   1.481   5.770  0.4372  0.3320  0.0397
  143OSM   H14A15649   0.237   1.576   5.815 -0.5405  0.6960 -0.2151
  143OSM   H14B15650   0.142   1.433   5.834  0.9319 -1.1234 -0.4355
  143OSM   H14C15651   0.176   1.503   5.672  0.0718  0.4822  0.2174
  143OSM    C1315652   0.409   1.424   5.640 -0.5739 -0.3041 -0.1371
  143OSM   H13A15653   0.493   1.357   5.629 -0.6323 -0.1402 -2.0612
  143OSM   H13B15654   0.448   1.521   5.667  1.2433 -1.1514  0.3860
  143OSM   H13C15655   0.345   1.433   5.553 -1.3830 -1.7216  0.2774
  143OSM    C1215656   0.275   1.245   5.743  0.2457 -0.0585  0.7784
  143OSM   H12A15657   0.339   1.181   5.685  0.1389  0.5556 -0.0265
  143OSM   H12B15658   0.193   1.249   5.673 -1.8515 -1.1388  3.0285
  143OSM    C1115659   0.216   1.174   5.861 -0.3470  0.6626  0.6603
  143OSM   H11A15660   0.300   1.168   5.934  1.7774  0.2649 -1.6786
  143OSM   H11B15661   0.192   1.075   5.815 -0.9987 -0.0867  2.5182
  143OSM      P15662  -0.015   1.165   5.978 -0.1110 -0.1610 -0.2106
  143OSM    O1315663  -0.106   1.259   6.042 -0.3215 -0.4413  0.0590
  143OSM    O1415664  -0.071   1.055   5.892 -0.3030  0.5453  0.3545
  143OSM    O1115665   0.059   1.094   6.094  0.3026 -0.4406 -0.0784
  143OSM    O1215666   0.101   1.239   5.906  0.1952  0.0539  0.4268
  143OSM    C1S15667   0.143   1.155   6.184  0.3365 -0.4260 -0.3222
  143OSM    H1S15668   0.120   1.263   6.192  3.0495  0.3920 -2.0589
  143OSM    H1T15669   0.247   1.149   6.146 -0.0632  1.3651 -1.8376
  143OSM     NF15670   0.178   1.206   6.420 -0.4757  0.0095  0.7973
  143OSM    HNF15671   0.277   1.200   6.432 -0.6842 -1.7747  2.2020
  143OSM    C2S15672   0.110   1.112   6.325  0.2684  0.3453 -0.2222
  143OSM    H2S15673  -0.000   1.107   6.333  0.3306  0.4440  0.8819
  143OSM    C3S15674   0.156   0.959   6.339  0.3462  0.2365  0.1836
  143OSM    H3S15675   0.267   0.956   6.328  0.0481 -1.1180 -3.6235
  143OSM     O315676   0.105   0.872   6.240  0.5797  0.2164  0.3374
  143OSM    HO315677   0.076   0.935   6.173 -1.3556 -1.2274 -0.2800
  143OSM    C4S15678   0.120   0.908   6.480  0.2107 -0.0236  0.9238
  143OSM    H4S15679   0.191   0.947   6.555  1.6060 -2.1357  0.7932
  143OSM    C5S15680   0.012   0.843   6.526 -0.4787 -0.8038  0.1319
  143OSM    H5S15681  -0.071   0.824   6.456  1.2057  1.0416 -2.5476
  143OSM    C6S15682  -0.012   0.800   6.669 -0.0507  0.4081  0.0268
  143OSM    H6S15683  -0.013   0.689   6.674  0.2413  0.4071  0.0551
  143OSM    H6T15684  -0.112   0.843   6.693 -1.0434 -1.3057 -0.7846
  143OSM    C7S15685   0.097   0.842   6.774 -0.3564 -0.3809 -0.4450
  143OSM    H7S15686   0.108   0.952   6.760  2.4468 -0.8752 -3.4281
  143OSM    H7T15687   0.195   0.800   6.742  0.4262  0.2935  0.9782
  143OSM    C8S15688   0.075   0.785   6.916 -0.0346  0.4841 -0.2641
  143OSM    H8S15689   0.162   0.770   6.983 -1.4991  1.9510  2.1212
  143OSM    H8T15690   0.041   0.679   6.909  0.6495 -0.1379  3.6402
  143OSM    C9S15691  -0.035   0.851   6.997  0.2671  1.0704 -1.2410
  143OSM    H9S15692  -0.133   0.870   6.948 -1.2993  0.0232  1.3103
  143OSM    H9T15693   0.001   0.954   7.021 -1.7749  1.8575 -1.3599
  143OSM   C10S15694  -0.076   0.781   7.129  0.7822 -0.0038  0.6800
  143OSM   H10S15695  -0.106   0.678   7.100 -0.4052  1.0550 -2.3593
  143OSM   H10T15696  -0.166   0.827   7.174 -1.2312 -1.1170 -1.9253
  143OSM   C11S15697   0.036   0.766   7.233  0.6012  0.4941 -0.2934
  143OSM   H11S15698   0.068   0.859   7.284 -2.3043 -0.4817  3.8388
  143OSM   H11T15699   0.129   0.735   7.181  1.0635  0.7737  0.3474
  143OSM   C12S15700  -0.017   0.674   7.352 -0.8386  0.1414  0.7115
  143OSM   H12S15701  -0.038   0.575   7.307 -1.5232  1.6191 -2.5736
  143OSM   H12T15702  -0.115   0.709   7.390 -1.1533  1.1004 -0.8510
  143OSM   C13S15703   0.087   0.652   7.457  0.0291  0.0813  0.4964
  143OSM   H13S15704   0.122   0.749   7.499  0.5980 -0.7617  2.0599
  143OSM   H13T15705   0.177   0.602   7.415  0.5678  2.7613 -1.8239
  143OSM   C14S15706   0.032   0.575   7.581  0.3542 -0.4811  1.1216
  143OSM   H14S15707   0.113   0.516   7.629 -0.1613 -2.2631 -0.1077
  143OSM   H14T15708  -0.032   0.498   7.534 -1.0248  1.7195 -0.8265
  143OSM   C15S15709  -0.045   0.649   7.686  0.1512  0.5069  0.0355
  143OSM   H15S15710  -0.081   0.569   7.754  0.7058  0.6306  0.4891
  143OSM   H15T15711  -0.130   0.697   7.633 -1.4617 -0.3507  1.7314
  143OSM   C16S15712   0.043   0.743   7.771  0.8085 -0.9131 -0.1534
  143OSM   H16S15713   0.025   0.837   7.715  0.6056 -1.9413 -1.9190
  143OSM   H16T15714   0.146   0.703   7.770  0.3621 -2.3453  2.6525
  143OSM   C17S15715  -0.005   0.751   7.918 -0.6642  0.8142 -0.3991
  143OSM   H17S15716  -0.034   0.648   7.948 -0.3061  0.4087 -1.3921
  143OSM   H17T15717  -0.104   0.802   7.923 -1.4895 -0.8457  1.6401
  143OSM   C18S15718   0.103   0.807   8.012 -0.0444 -0.2043  0.5781
  143OSM   H18S15719   0.060   0.820   8.114  2.6764  2.0930  1.5857
  143OSM   H18T15720   0.135   0.907   7.976  0.3799 -0.6280 -0.2386
  143OSM   H18U15721   0.182   0.729   8.010 -0.3729 -0.5416  0.7801
  143OSM    C1F15722   0.129   1.324   6.457  1.0900  0.5790  0.3764
  143OSM     OF15723   0.015   1.363   6.425  0.1179 -0.3717 -0.3703
  143OSM    C2F15724   0.228   1.407   6.535 -0.0965 -0.0585 -0.1623
  143OSM    H2F15725   0.239   1.502   6.477  2.2840 -0.8044 -1.0841
  143OSM    H2G15726   0.332   1.367   6.529  0.4814  0.9764  1.9041
  143OSM    C3F15727   0.198   1.443   6.683 -0.3261 -0.2812 -0.4859
  143OSM    H3F15728   0.104   1.503   6.674  2.1379  3.6968 -3.7462
  143OSM    H3G15729   0.277   1.511   6.721 -2.2230  1.0286  1.3664
  143OSM    C4F15730   0.193   1.321   6.778 -0.0665  0.1188  0.1005
  143OSM    H4F15731   0.287   1.264   6.761  0.1803  0.9969 -1.7766
  143OSM    H4G15732   0.110   1.254   6.747 -0.2320 -0.0136  0.8154
  143OSM    C5F15733   0.191   1.355   6.927 -0.6059 -0.0093 -0.6962
  143OSM    H5F15734   0.081   1.362   6.938 -0.5420  2.9239 -1.1403
  143OSM    H5G15735   0.230   1.458   6.945  1.1651 -0.5214 -1.4459
  143OSM    C6F15736   0.248   1.253   7.019 -0.8267  0.3032  0.2373
  143OSM    H6F15737   0.353   1.225   6.995 -0.3460  0.2139  2.2999
  143OSM    H6G15738   0.202   1.153   7.005  1.4007 -1.0028  1.6863
  143OSM    C7F15739   0.251   1.309   7.164  0.4568 -0.5055 -0.2677
  143OSM    H7F15740   0.146   1.312   7.199  0.0995  2.4639 -1.3537
  143OSM    H7G15741   0.290   1.412   7.154 -1.4597  0.3242  0.5150
  143OSM    C8F15742   0.332   1.218   7.263 -0.1630 -0.1022 -0.2829
  143OSM    H8F15743   0.352   1.279   7.354  0.8401  1.6603 -1.6160
  143OSM    H8G15744   0.428   1.209   7.207 -0.5577  0.9848 -1.1720
  143OSM    C9F15745   0.267   1.084   7.281 -0.1471  0.4867  0.2582
  143OSM    H9F15746   0.193   1.045   7.210 -1.1850 -0.2711  1.6977
  143OSM   C10F15747   0.317   0.989   7.369  0.4837 -0.1125 -0.8068
  143OSM   H10F15748   0.272   0.889   7.375  2.3059 -0.9122  0.6434
  143OSM   C11F15749   0.435   1.008   7.466  0.3378  0.0794 -0.1675
  143OSM   H11F15750   0.502   1.093   7.441  0.0227  0.5554  0.5706
  143OSM   H11G15751   0.508   0.925   7.458 -0.7193 -1.0252  1.2164
  143OSM   C12F15752   0.370   1.016   7.606 -0.3160 -0.1695 -0.7226
  143OSM   H12F15753   0.454   1.008   7.679  1.3217  1.9865 -2.2380
  143OSM   H12G15754   0.303   0.933   7.638  0.2975 -0.0114  1.0785
  143OSM   C13F15755   0.301   1.151   7.650  0.0229  0.2138 -0.1862
  143OSM   H13F15756   0.228   1.183   7.573  1.9279  1.1595 -1.6918
  143OSM   H13G15757   0.381   1.228   7.643 -0.2722  0.5126 -0.3026
  143OSM   C14F15758   0.248   1.140   7.792  0.0029  0.1498 -0.5805
  143OSM   H14F15759   0.332   1.147   7.865 -1.8456 -0.2098  1.7052
  143OSM   H14G15760   0.222   1.033   7.792  2.3734 -0.4992  0.4050
  143OSM   C15F15761   0.136   1.235   7.837  0.1341 -0.9123  0.4272
  143OSM   H15F15762   0.052   1.225   7.765  0.5425 -0.4538 -0.1222
  143OSM   H15G15763   0.169   1.341   7.832 -1.8773 -0.3078 -2.9323
  143OSM   C16F15764   0.080   1.209   7.976  0.5778  0.3730  0.6254
  143OSM   H16F15765   0.027   1.112   7.986 -0.7788  0.9892 -0.2520
  143OSM   H16G15766   0.008   1.292   7.994 -0.7021 -0.1579 -1.5775
  143OSM   C17F15767   0.193   1.215   8.079  0.0489 -0.6256 -0.5036
  143OSM   H17F15768   0.248   1.308   8.055 -2.2400  0.6107 -1.3349
  143OSM   H17G15769   0.267   1.133   8.069  2.0005  0.7692  1.5101
  143OSM   C18F15770   0.141   1.220   8.217  0.0666  0.3523  0.6072
  143OSM   H18F15771   0.228   1.228   8.286 -0.4771  1.2404  1.2151
  143OSM   H18G15772   0.073   1.136   8.241 -1.6871  1.3766 -0.5289
  143OSM   H18H15773   0.088   1.317   8.232  0.2530  0.2212  2.1843
  144OSM      N15774   5.878   1.661   6.413  0.6373 -0.5352 -0.0967
  144OSM    C1515775   5.891   1.516   6.383 -0.0307 -0.3260  0.1488
  144OSM   H15A15776   5.963   1.461   6.442  0.2466  0.2847  0.3822
  144OSM   H15B15777   5.936   1.519   6.285 -0.2302  0.4963  0.0742
  144OSM   H15C15778   5.796   1.466   6.372 -2.4228  3.6752  0.8761
  144OSM    C1415779   5.753   1.719   6.355 -0.6632 -0.4414 -0.1563
  144OSM   H14A15780   5.752   1.825   6.376 -1.6988 -0.6260  0.8501
  144OSM   H14B15781   5.672   1.673   6.409  0.3882  1.1862  3.1263
  144OSM   H14C15782   5.735   1.705   6.250  1.0069 -1.7793 -0.3141
  144OSM    C1315783   5.874   1.680   6.563 -0.5226 -0.4041 -0.1548
  144OSM   H13A15784   5.848   1.780   6.594 -3.0949 -0.5256 -1.6297
  144OSM   H13B15785   5.975   1.673   6.601 -0.8184  1.9126  1.2824
  144OSM   H13C15786   5.809   1.615   6.620  0.6603 -1.0131  0.5391
  144OSM    C1215787   5.995   1.733   6.362 -0.6487 -0.2361  0.2798
  144OSM   H12A15788   5.986   1.735   6.254 -0.5973  0.9327  0.2912
  144OSM   H12B15789   6.087   1.681   6.384  0.3186  1.4215  0.3271
  144OSM    C1115790   6.030   1.880   6.411  0.5127 -0.2101 -0.2882
  144OSM   H11A15791   6.134   1.904   6.378  0.1586  1.5861 -0.2000
  144OSM   H11B15792   6.033   1.885   6.522 -1.9091 -1.3493 -0.1153
  144OSM      P15793   5.956   2.054   6.230 -0.3485  0.2697 -0.0002
  144OSM    O1315794   6.048   1.972   6.150  0.2220 -0.7071 -0.1359
  144OSM    O1415795   5.830   2.105   6.177  0.7130 -0.3097 -0.1200
  144OSM    O1115796   6.033   2.183   6.278  0.1615  0.2258 -0.6533
  144OSM    O1215797   5.932   1.982   6.370 -0.0284  0.3079 -0.2882
  144OSM    C1S15798   5.975   2.272   6.375  0.1674  1.1637 -0.1936
  144OSM    H1S15799   5.865   2.254   6.381  0.4667 -0.4029  1.4239
  144OSM    H1T15800   5.998   2.374   6.337  1.6405  1.6322  1.8091
  144OSM     NF15801   5.985   2.367   6.607 -0.2315  0.1554 -0.2718
  144OSM    HNF15802   6.043   2.446   6.626  0.4415  0.1177 -2.0211
  144OSM    C2S15803   6.040   2.265   6.520 -0.4149  0.4495 -0.1052
  144OSM    H2S15804   6.019   2.167   6.568  1.1550  0.9739  1.8002
  144OSM    C3S15805   6.194   2.270   6.507 -0.2076 -0.2718  0.1583
  144OSM    H3S15806   6.213   2.371   6.465 -2.7478  0.2271  0.0091
  144OSM     O315807   6.250   2.172   6.429  0.1476  0.0741 -0.0661
  144OSM    HO315808   6.182   2.158   6.362 -1.6576 -3.1541  2.1519
  144OSM    C4S15809   6.268   2.275   6.641  0.0968 -0.4539 -0.4690
  144OSM    H4S15810   6.291   2.378   6.671 -0.7309 -0.7475  1.2742
  144OSM    C5S15811   6.319   2.185   6.728 -0.0551 -0.5488  0.4622
  144OSM    H5S15812   6.325   2.078   6.703 -1.6337 -0.5860  0.1215
  144OSM    C6S15813   6.393   2.226   6.850 -0.5728  0.6504 -0.7036
  144OSM    H6S15814   6.411   2.335   6.843 -2.2954  0.9543 -0.7648
  144OSM    H6T15815   6.492   2.176   6.860 -0.4024  0.8075 -1.5515
  144OSM    C7S15816   6.324   2.199   6.990 -0.2558 -0.2602  0.1674
  144OSM    H7S15817   6.317   2.090   7.012  0.3538  0.3017  3.5905
  144OSM    H7T15818   6.221   2.239   6.981  0.2807  1.0942 -0.0589
  144OSM    C8S15819   6.406   2.270   7.097  0.6306  0.4409  0.3026
  144OSM    H8S15820   6.416   2.378   7.070 -1.2645  0.4683 -0.4681
  144OSM    H8T15821   6.512   2.238   7.095  0.5321  0.0565 -1.8419
  144OSM    C9S15822   6.356   2.233   7.230  0.9739  0.0001 -0.3211
  144OSM    H9S15823   6.353   2.122   7.227  2.0852 -0.0445 -0.3364
  144OSM    H9T15824   6.259   2.281   7.256  1.8950  0.1339  3.4956
  144OSM   C10S15825   6.459   2.270   7.342 -0.1928  0.1145  0.1606
  144OSM   H10S15826   6.474   2.380   7.350  1.4865  0.0132 -1.1030
  144OSM   H10T15827   6.557   2.225   7.316 -0.4965 -0.9944  0.8647
  144OSM   C11S15828   6.422   2.208   7.481 -0.4196  0.5248 -0.1516
  144OSM   H11S15829   6.368   2.112   7.469 -1.8843  1.2121  0.6732
  144OSM   H11T15830   6.355   2.288   7.521 -1.0148  1.1368 -2.2276
  144OSM   C12S15831   6.547   2.188   7.568 -0.3360 -0.1526  0.6554
  144OSM   H12S15832   6.609   2.279   7.556  1.9637 -1.8317 -1.3749
  144OSM   H12T15833   6.609   2.107   7.523  0.9559  2.2825 -2.2546
  144OSM   C13S15834   6.516   2.165   7.715  0.2873 -0.3203  0.2333
  144OSM   H13S15835   6.435   2.231   7.754  1.3337 -0.5250  2.9392
  144OSM   H13T15836   6.601   2.184   7.784 -0.4201 -1.9787  1.6469
  144OSM   C14S15837   6.469   2.016   7.743  0.1077  0.2601  1.0602
  144OSM   H14S15838   6.532   1.932   7.708 -0.2412  0.7421 -0.8651
  144OSM   H14T15839   6.386   2.010   7.669  0.8034  0.5468  0.2420
  144OSM   C15S15840   6.408   2.004   7.878 -0.0477  0.5814  0.1748
  144OSM   H15S15841   6.321   2.072   7.891 -0.7389 -0.5020  1.4488
  144OSM   H15T15842   6.484   2.034   7.953 -0.1628  0.6649  0.2575
  144OSM   C16S15843   6.365   1.862   7.901  0.3029 -0.7007 -0.3628
  144OSM   H16S15844   6.311   1.822   7.813  1.1029 -0.1365 -1.1333
  144OSM   H16T15845   6.299   1.868   7.991  1.5865  1.2008  0.5457
  144OSM   C17S15846   6.485   1.778   7.938  0.6114 -0.6867  0.0737
  144OSM   H17S15847   6.551   1.826   8.013  0.3805  2.1386 -1.3922
  144OSM   H17T15848   6.554   1.768   7.853  0.6747 -0.3022  0.0790
  144OSM   C18S15849   6.430   1.639   7.997 -0.3025  0.0896 -0.0535
  144OSM   H18S15850   6.381   1.655   8.096  0.0569 -1.4217  0.3972
  144OSM   H18T15851   6.512   1.566   8.013 -0.5035  0.1406  1.3493
  144OSM   H18U15852   6.346   1.605   7.933 -0.8682  0.0338  0.7058
  144OSM    C1F15853   5.860   2.371   6.642 -0.4876  0.0401  0.2890
  144OSM     OF15854   5.787   2.279   6.614 -0.2319 -0.2940  0.1154
  144OSM    C2F15855   5.811   2.491   6.720  0.2382 -0.2709 -0.0624
  144OSM    H2F15856   5.888   2.572   6.719 -0.2857  0.2273 -1.1130
  144OSM    H2G15857   5.795   2.474   6.829  0.5602  1.1530  0.2304
  144OSM    C3F15858   5.675   2.561   6.664 -0.6331 -0.1421 -0.0493
  144OSM    H3F15859   5.581   2.509   6.691 -0.2456 -0.1117  1.3957
  144OSM    H3G15860   5.699   2.575   6.556 -2.5910 -0.9399 -0.6373
  144OSM    C4F15861   5.658   2.701   6.727  0.2386 -0.2464 -0.0683
  144OSM    H4F15862   5.577   2.757   6.677  2.6183  1.5970 -2.1669
  144OSM    H4G15863   5.748   2.760   6.698  0.4033 -0.1157  0.6690
  144OSM    C5F15864   5.660   2.696   6.880  0.2377 -0.1083 -0.0817
  144OSM    H5F15865   5.634   2.801   6.905  0.3009  0.2229 -1.3376
  144OSM    H5G15866   5.759   2.671   6.922 -0.1597 -1.7852 -0.0450
  144OSM    C6F15867   5.551   2.596   6.934  0.6069 -0.1993 -0.8683
  144OSM    H6F15868   5.570   2.487   6.918  1.2131 -0.2798  0.3142
  144OSM    H6G15869   5.451   2.618   6.890  1.0492  1.7691 -0.9647
  144OSM    C7F15870   5.545   2.627   7.088  0.3315  0.2471 -0.1701
  144OSM    H7F15871   5.534   2.736   7.104  1.1911  0.3550 -0.2833
  144OSM    H7G15872   5.637   2.600   7.144 -0.2511  0.6710  1.0363
  144OSM    C8F15873   5.418   2.559   7.152 -0.1817 -0.0249  1.1222
  144OSM    H8F15874   5.334   2.589   7.086  0.2562 -0.0671  0.5378
  144OSM    H8G15875   5.400   2.605   7.251 -0.6370 -0.4544  1.2438
  144OSM    C9F15876   5.444   2.413   7.159  0.2258 -0.0238  0.1925
  144OSM    H9F15877   5.465   2.368   7.061  0.5256 -3.7591  1.7971
  144OSM   C10F15878   5.448   2.336   7.272 -0.0739 -0.3865 -0.1521
  144OSM   H10F15879   5.478   2.231   7.262  0.9386  0.0050 -1.5057
  144OSM   C11F15880   5.439   2.391   7.413  0.0284 -0.3545 -0.2592
  144OSM   H11F15881   5.353   2.461   7.422 -1.3886 -2.0588  0.0721
  144OSM   H11G15882   5.526   2.457   7.433 -1.1562  1.0315  0.5769
  144OSM   C12F15883   5.424   2.298   7.535  1.0275  0.1317 -0.6936
  144OSM   H12F15884   5.521   2.244   7.531  0.4698 -0.8508 -3.3356
  144OSM   H12G15885   5.342   2.224   7.529  0.8424 -0.3861  4.3995
  144OSM   C13F15886   5.412   2.378   7.663  0.6443 -0.7338 -0.4558
  144OSM   H13F15887   5.323   2.445   7.654  1.9492  1.4992  1.7903
  144OSM   H13G15888   5.502   2.443   7.675 -1.3488  1.8723  2.0827
  144OSM   C14F15889   5.400   2.291   7.788 -0.0333 -0.3571 -0.2290
  144OSM   H14F15890   5.501   2.252   7.810  0.2748  1.4724  2.0891
  144OSM   H14G15891   5.330   2.206   7.768 -0.5786 -0.2010  0.9040
  144OSM   C15F15892   5.348   2.373   7.909  0.1892 -0.4538 -0.2672
  144OSM   H15F15893   5.249   2.411   7.877  1.3814  4.0510  0.6262
  144OSM   H15G15894   5.410   2.465   7.916 -0.8578  0.3068 -0.6563
  144OSM   C16F15895   5.348   2.292   8.036  0.5911  0.0399 -0.0526
  144OSM   H16F15896   5.446   2.242   8.050  0.6918  0.1325 -0.4128
  144OSM   H16G15897   5.263   2.220   8.024  0.5058  0.3129 -1.1777
  144OSM   C17F15898   5.302   2.373   8.160 -0.2691  0.6579  0.6750
  144OSM   H17F15899   5.301   2.294   8.239  2.8196 -1.5592 -1.2592
  144OSM   H17G15900   5.197   2.396   8.135  0.2961  1.4245 -1.1003
  144OSM   C18F15901   5.397   2.484   8.197 -0.5759  0.0090  0.3247
  144OSM   H18F15902   5.375   2.523   8.298 -1.5506  2.0764 -0.6384
  144OSM   H18G15903   5.388   2.568   8.125 -3.3798 -0.2819  0.2582
  144OSM   H18H15904   5.504   2.453   8.205  0.8122  3.6750 -1.3987
  145SAPE     N15905   3.985   3.305  10.709 -0.8426  0.7702 -0.2904
  145SAPE   HN115906   4.073   3.305  10.765 -2.1253 -1.4597  1.8891
  145SAPE   HN215907   3.909   3.347  10.767 -0.9657  0.5033 -0.2586
  145SAPE   HN315908   3.962   3.204  10.701 -2.0980  0.9747  0.5327
  145SAPE   C1215909   3.993   3.360  10.561 -0.2780 -0.2879 -0.4338
  145SAPE  H12A15910   3.892   3.355  10.515  0.1563 -0.8925 -1.3641
  145SAPE  H12B15911   4.066   3.294  10.510 -0.5146 -0.2858 -0.7818
  145SAPE   C1115912   4.042   3.505  10.557  0.2926  0.1386 -0.2871
  145SAPE  H11A15913   3.949   3.565  10.567 -1.1285 -2.2153  1.8348
  145SAPE  H11B15914   4.082   3.519  10.454 -1.1673  0.3922 -0.8464
  145SAPE     P15915   4.162   3.663  10.723  0.1372 -0.0067 -0.2324
  145SAPE   O1315916   4.031   3.710  10.769 -0.2247  0.3775 -0.9675
  145SAPE   O1415917   4.273   3.647  10.818  0.1238  0.5981 -0.7087
  145SAPE   O1215918   4.140   3.521  10.654  0.2462 -0.1059  0.0007
  145SAPE   O1115919   4.206   3.749  10.593  0.4478 -0.0898 -0.0555
  145SAPE    C115920   4.341   3.744  10.549  0.7580  0.0826  0.2063
  145SAPE    HA15921   4.409   3.774  10.631 -2.1025  0.6768  2.5140
  145SAPE    HB15922   4.374   3.642  10.519 -0.2630 -0.0240 -0.6366
  145SAPE    C215923   4.366   3.828  10.424  0.1340 -0.5592  0.9000
  145SAPE    HS15924   4.446   3.788  10.358 -0.0871  0.3581  0.0615
  145SAPE   O2115925   4.386   3.969  10.446 -0.0909  0.1060  0.0436
  145SAPE   C2115926   4.504   4.000  10.504 -0.0801  0.5637 -0.3277
  145SAPE   O2215927   4.589   3.922  10.534  0.1986  0.1960  0.3905
  145SAPE   C2215928   4.519   4.151  10.524  0.1612  0.3314 -0.2868
  145SAPE   H2R15929   4.438   4.179  10.595  0.7123 -0.2842  0.6166
  145SAPE   H2S15930   4.606   4.169  10.590 -0.7574  2.2979  0.4773
  145SAPE    C315931   4.234   3.822  10.341 -0.2189  0.2496  0.3968
  145SAPE    HX15932   4.151   3.879  10.386  0.4110 -0.6525  2.8913
  145SAPE    HY15933   4.204   3.715  10.336 -0.2275  0.1949  1.3612
  145SAPE   O3115934   4.259   3.872  10.210  0.2114  0.1367 -0.5994
  145SAPE   C3115935   4.173   3.840  10.119  0.2832 -0.7278  0.0487
  145SAPE   O3215936   4.070   3.782  10.148  0.4802 -0.5828 -0.0413
  145SAPE   C3215937   4.230   3.871   9.982 -0.6630 -0.0347 -0.5157
  145SAPE   H2X15938   4.325   3.815   9.969  0.8133  1.5818  2.3669
  145SAPE   H2Y15939   4.256   3.979   9.979 -2.4346  0.4822  0.7850
  145SAPE   C2315940   4.531   4.241  10.398 -0.5551  0.0157  0.9175
  145SAPE   H3R15941   4.494   4.345  10.409  0.2658  0.4775 -0.4380
  145SAPE   H3S15942   4.477   4.187  10.317 -0.1369  0.0578  0.6125
  145SAPE   C2415943   4.676   4.274  10.362 -0.3882  0.3829 -0.9318
  145SAPE   H4R15944   4.737   4.291  10.454 -1.0898 -1.1147 -0.1579
  145SAPE   H4S15945   4.667   4.377  10.321 -0.0642  0.7836 -0.0344
  145SAPE   C2515946   4.757   4.184  10.272  0.1382 -0.8496  0.3338
  145SAPE   H5R15947   4.805   4.092  10.310  0.8926 -1.1605 -1.2803
  145SAPE   C2615948   4.758   4.206  10.140  0.1106 -0.1023  0.4647
  145SAPE   H6R15949   4.815   4.134  10.080 -0.0515 -1.1930  1.5870
  145SAPE   C2715950   4.677   4.301  10.053 -0.6596 -0.3588  0.4657
  145SAPE   H7R15951   4.742   4.343   9.974  0.3740  1.1948  2.0672
  145SAPE   H7S15952   4.645   4.391  10.110 -0.4198  1.3071 -1.9046
  145SAPE   C2815953   4.560   4.229   9.990  0.1639 -0.7439 -0.4516
  145SAPE   H8R15954   4.530   4.138  10.043 -0.4785 -0.9527 -1.1512
  145SAPE   C2915955   4.491   4.266   9.880 -0.6305  0.3762  0.0188
  145SAPE   H9R15956   4.426   4.189   9.836 -0.2374 -0.1988  0.4317
  145SAPE  C21015957   4.516   4.382   9.792 -0.0375 -0.5202  0.7517
  145SAPE  H10R15958   4.627   4.396   9.791 -0.2682  1.7023  0.1440
  145SAPE  H10S15959   4.464   4.476   9.820 -2.2707 -0.4777 -2.8479
  145SAPE  C21115960   4.489   4.357   9.649  0.8793  0.3406  1.5448
  145SAPE  H11R15961   4.514   4.256   9.614  6.2564  1.8921  0.1017
  145SAPE  C21215962   4.459   4.447   9.553  0.1629 -0.1243  0.3320
  145SAPE  H12R15963   4.436   4.410   9.452 -2.4618 -1.1241  1.2057
  145SAPE  C21315964   4.443   4.601   9.552 -0.4147  0.0981 -0.0642
  145SAPE  H13R15965   4.436   4.627   9.444  1.4616  0.9199 -0.0369
  145SAPE  H13S15966   4.541   4.645   9.583 -0.8241  0.5373  0.6325
  145SAPE  C21415967   4.332   4.655   9.639 -0.5299 -0.3211  0.9872
  145SAPE  H14R15968   4.342   4.609   9.739  0.0901  2.9147  2.5355
  145SAPE  C21515969   4.234   4.755   9.624 -0.8332  0.2536 -0.4364
  145SAPE  H15R15970   4.174   4.783   9.712  0.8122  0.6615  0.6095
  145SAPE  C21615971   4.215   4.851   9.510 -0.7093 -0.7063 -0.9651
  145SAPE  H16R15972   4.284   4.831   9.425 -0.5452  1.4706 -1.4136
  145SAPE  H16S15973   4.245   4.952   9.546  0.6398 -0.2165 -3.2366
  145SAPE  C21715974   4.074   4.851   9.446  0.6805 -0.5567  0.2988
  145SAPE  H17R15975   4.055   4.942   9.384 -2.8656 -0.9237  0.6391
  145SAPE  H17S15976   3.995   4.860   9.524  1.6662 -1.4042  1.4239
  145SAPE  C21815977   4.055   4.732   9.352  0.2063 -0.3498 -0.5740
  145SAPE  H18R15978   4.062   4.641   9.416  1.4054 -0.0036 -0.1958
  145SAPE  H18S15979   4.136   4.711   9.280  0.1971 -1.8185 -0.1941
  145SAPE  C21915980   3.923   4.748   9.275 -0.3168 -0.3366 -0.8115
  145SAPE  H19R15981   3.846   4.758   9.354 -0.1292 -2.2597 -0.3355
  145SAPE  H19S15982   3.898   4.653   9.223  0.1000 -0.4725 -0.7683
  145SAPE  C22015983   3.904   4.866   9.175  0.0252  0.2221 -0.3857
  145SAPE  H20R15984   3.935   4.965   9.215 -1.3054  0.6447 -0.3648
  145SAPE  H20S15985   3.798   4.876   9.145  0.3911  1.5256 -1.3258
  145SAPE  H20T15986   3.960   4.839   9.083 -3.5212 -0.5621 -2.4657
  145SAPE   C3315987   4.136   3.835   9.868  0.8666 -0.1694 -0.6207
  145SAPE   H3X15988   4.048   3.901   9.853 -1.5418 -2.8865  0.6565
  145SAPE   H3Y15989   4.103   3.729   9.869  1.9569 -0.5441 -1.3671
  145SAPE   C3415990   4.207   3.853   9.733 -0.2587  0.0247 -0.4111
  145SAPE   H4X15991   4.300   3.792   9.740 -0.8352 -0.8353 -0.0937
  145SAPE   H4Y15992   4.231   3.961   9.724  0.2365  0.1919  2.2899
  145SAPE   C3515993   4.149   3.793   9.607 -0.4551  0.0408  1.4296
  145SAPE   H5X15994   4.040   3.815   9.601 -0.2942  0.4028 -1.8816
  145SAPE   H5Y15995   4.153   3.684   9.627 -2.3908 -0.5782 -1.0326
  145SAPE   C3615996   4.225   3.831   9.480 -0.6517  0.0053 -0.4918
  145SAPE   H6X15997   4.327   3.789   9.497  0.0581  2.6522  2.7060
  145SAPE   H6Y15998   4.238   3.941   9.479  3.7725 -0.3160 -1.7294
  145SAPE   C3715999   4.161   3.791   9.350 -0.3900  0.6934 -0.1598
  145SAPE   H7X16000   4.058   3.831   9.367  0.0712  0.5782  3.6153
  145SAPE   H7Y16001   4.156   3.681   9.340  2.7416  0.2817  1.6554
  145SAPE   C3816002   4.219   3.870   9.231 -0.0082 -0.1016  0.6344
  145SAPE   H8X16003   4.321   3.833   9.209  0.4926  2.1892 -1.3455
  145SAPE   H8Y16004   4.225   3.979   9.254 -0.5687  0.6623 -2.3277
  145SAPE   C3916005   4.138   3.859   9.099 -0.1006  0.1298  0.4534
  145SAPE   H9X16006   4.179   3.939   9.034  0.3616 -0.7483 -0.3605
  145SAPE   H9Y16007   4.031   3.883   9.118  0.1996  0.8331  1.2816
  145SAPE  C31016008   4.155   3.726   9.031 -0.0783  0.4638  0.3294
  145SAPE  H10X16009   4.104   3.644   9.086  0.1491  1.8532  2.7339
  145SAPE  H10Y16010   4.266   3.715   9.024 -0.1224 -0.9892  1.4249
  145SAPE  C31116011   4.097   3.726   8.885  0.0843  0.8949 -0.0318
  145SAPE  H11X16012   4.152   3.801   8.825  0.5560  0.4889 -0.1208
  145SAPE  H11Y16013   3.988   3.747   8.890 -0.4675 -1.8048  1.8315
  145SAPE  C31216014   4.105   3.592   8.807  0.0867 -0.6515  0.2448
  145SAPE  H12X16015   4.074   3.506   8.870  1.0076 -0.5326  0.8705
  145SAPE  H12Y16016   4.213   3.567   8.793 -0.0844 -0.9386 -0.6721
  145SAPE  C31316017   4.016   3.595   8.682 -0.5963 -0.0369  0.1210
  145SAPE  H13X16018   4.027   3.695   8.634 -1.3388  1.0789  2.1477
  145SAPE  H13Y16019   3.910   3.579   8.710  0.0119 -1.7683  1.6184
  145SAPE  C31416020   4.053   3.487   8.579 -0.3449 -0.2064  0.6837
  145SAPE  H14X16021   4.159   3.505   8.548 -0.6289  0.3877  0.0262
  145SAPE  H14Y16022   3.989   3.496   8.489  0.6946 -0.6852 -0.1261
  145SAPE  C31516023   4.035   3.339   8.631 -0.0315  0.7273  0.1581
  145SAPE  H15X16024   3.940   3.336   8.689  1.0918 -0.4860  2.0140
  145SAPE  H15Y16025   4.116   3.324   8.705 -0.6737 -0.0304  0.7394
  145SAPE  C31616026   4.036   3.241   8.517 -0.7732  0.4341  0.5381
  145SAPE  H16X16027   3.975   3.277   8.431  1.8668  2.1380 -0.7676
  145SAPE  H16Y16028   3.996   3.143   8.550  0.9128 -0.3231  0.4573
  145SAPE  C31716029   4.178   3.228   8.459 -0.3358  0.7647  0.0805
  145SAPE  H17X16030   4.248   3.189   8.536  0.6162  1.7079 -0.2912
  145SAPE  H17Y16031   4.217   3.327   8.426  1.0284  0.5325  0.9265
  145SAPE  C31816032   4.168   3.135   8.334  0.2621  0.1472 -0.7997
  145SAPE  H18X16033   4.261   3.146   8.276 -0.1359  2.0690 -1.1359
  145SAPE  H18Y16034   4.092   3.172   8.262 -0.5640 -0.5859 -0.3380
  145SAPE  H18Z16035   4.150   3.028   8.356  0.5394  0.2183 -0.2231
  146SAPE     N16036   2.690   3.995  10.919  0.1588  0.3273  0.4071
  146SAPE   HN116037   2.630   4.080  10.921  1.3530  1.1825  0.7178
  146SAPE   HN216038   2.628   3.914  10.940 -1.5723  0.9405 -1.9023
  146SAPE   HN316039   2.768   4.002  10.987 -0.1802  0.0762  0.8268
  146SAPE   C1216040   2.756   3.983  10.781 -0.3020 -0.4904  0.6964
  146SAPE  H12A16041   2.828   4.068  10.775 -0.7101  0.0388  2.7164
  146SAPE  H12B16042   2.675   3.987  10.705 -1.8966 -0.9867  2.3268
  146SAPE   C1116043   2.843   3.854  10.785  0.8279 -0.3532 -0.0302
  146SAPE  H11A16044   2.904   3.834  10.694  2.7522  0.3648  1.0705
  146SAPE  H11B16045   2.774   3.768  10.801  1.5556 -1.1514 -1.0275
  146SAPE     P16046   3.086   3.841  10.884  0.0997  0.2176  0.3574
  146SAPE   O1316047   3.135   3.974  10.837  0.5154 -0.0653  0.0257
  146SAPE   O1416048   3.154   3.778  10.994 -0.3290  0.1297  0.1811
  146SAPE   O1216049   2.928   3.851  10.900 -0.4341  0.1970 -0.0658
  146SAPE   O1116050   3.088   3.735  10.769 -0.5687  0.3670  0.5579
  146SAPE    C116051   3.212   3.684  10.717 -0.5722  0.5538  0.7069
  146SAPE    HA16052   3.299   3.730  10.768  0.5012 -1.9607  1.2815
  146SAPE    HB16053   3.221   3.576  10.740 -0.0466  0.0810 -1.5242
  146SAPE    C216054   3.211   3.701  10.561 -0.2278 -0.6661  0.9024
  146SAPE    HS16055   3.228   3.809  10.540  1.1190 -1.2420 -1.3622
  146SAPE   O2116056   3.095   3.637  10.499 -0.2222 -0.3385 -0.1171
  146SAPE   C2116057   3.009   3.718  10.433 -0.1711 -0.1498  0.0755
  146SAPE   O2216058   3.025   3.832  10.412  0.0023 -0.0672  0.1901
  146SAPE   C2216059   2.870   3.641  10.429  0.4863  0.4315  0.2004
  146SAPE   H2R16060   2.897   3.546  10.377  1.2820 -0.3336  1.9109
  146SAPE   H2S16061   2.846   3.613  10.534 -1.5668  1.7020  0.1149
  146SAPE    C316062   3.339   3.636  10.504 -0.2419 -0.0439 -0.3852
  146SAPE    HX16063   3.310   3.530  10.486  0.2111 -0.4927  1.3421
  146SAPE    HY16064   3.429   3.631  10.568 -1.0511 -1.8667  0.6989
  146SAPE   O3116065   3.370   3.707  10.385 -0.1045 -0.3561  0.9047
  146SAPE   C3116066   3.422   3.643  10.285  0.7412  0.1355  0.7984
  146SAPE   O3216067   3.446   3.523  10.281  0.4228 -0.3809 -0.5137
  146SAPE   C3216068   3.437   3.729  10.154  0.1058 -0.0263  0.3343
  146SAPE   H2X16069   3.544   3.753  10.132 -0.3529  2.7576  0.7557
  146SAPE   H2Y16070   3.372   3.818  10.166  0.7869  0.7897 -1.5318
  146SAPE   C2316071   2.760   3.724  10.363 -0.4401 -0.0132  0.2170
  146SAPE   H3R16072   2.743   3.821  10.414 -0.3092  0.7469 -1.1188
  146SAPE   H3S16073   2.663   3.670  10.373  0.1597 -1.3976 -0.9996
  146SAPE   C2416074   2.782   3.741  10.212 -0.5101  0.3950 -0.1016
  146SAPE   H4R16075   2.852   3.827  10.204  1.6758 -1.2177  0.7045
  146SAPE   H4S16076   2.684   3.770  10.168  0.4654 -0.3220 -2.9788
  146SAPE   C2516077   2.835   3.622  10.134  0.6477 -0.5463 -1.0550
  146SAPE   H5R16078   2.777   3.532  10.157  0.3902 -0.1542 -0.1386
  146SAPE   C2616079   2.925   3.627  10.035  0.4640  1.0867  0.5247
  146SAPE   H6R16080   2.973   3.533  10.004  1.1142  0.7428  2.4342
  146SAPE   C2716081   3.008   3.747   9.998 -0.2569 -1.2891  0.0760
  146SAPE   H7R16082   3.104   3.716   9.951  0.6085  1.0015  0.2020
  146SAPE   H7S16083   3.051   3.806  10.082 -1.0947  3.0724 -2.2948
  146SAPE   C2816084   2.936   3.855   9.912 -0.3352  0.4168 -0.5413
  146SAPE   H8R16085   2.884   3.932   9.970 -1.6207 -0.9453  0.1923
  146SAPE   C2916086   2.925   3.855   9.777  0.8201  1.1742 -0.3235
  146SAPE   H9R16087   2.873   3.934   9.721 -0.1681 -0.4907 -1.8711
  146SAPE  C21016088   2.987   3.756   9.686  0.2674  0.2347 -0.2249
  146SAPE  H10R16089   3.022   3.662   9.734  0.3503 -0.6001 -1.8403
  146SAPE  H10S16090   3.069   3.811   9.636  0.0990  0.9147  0.2281
  146SAPE  C21116091   2.895   3.710   9.575 -0.0610  0.4391 -0.6025
  146SAPE  H11R16092   2.798   3.670   9.606 -0.0473 -0.4192 -1.6203
  146SAPE  C21216093   2.917   3.688   9.448 -0.0069  0.1684 -0.6467
  146SAPE  H12R16094   2.837   3.644   9.388 -0.5037 -0.5623  0.5129
  146SAPE  C21316095   3.044   3.707   9.378 -0.7527  0.1581  0.8713
  146SAPE  H13R16096   3.089   3.605   9.386  0.1128  0.5366  1.0060
  146SAPE  H13S16097   3.112   3.772   9.438 -1.1687  1.0999  0.3472
  146SAPE  C21416098   3.039   3.744   9.229  0.5910 -0.1378  0.3824
  146SAPE  H14R16099   2.963   3.700   9.163  0.6146 -1.0006  0.9182
  146SAPE  C21516100   3.121   3.838   9.178 -0.3918  0.0668  0.2657
  146SAPE  H15R16101   3.122   3.857   9.070  4.6325 -0.0528  0.0601
  146SAPE  C21616102   3.227   3.915   9.254  0.0278 -0.8586  0.2456
  146SAPE  H16R16103   3.295   3.957   9.177 -2.3213  0.3095 -1.2754
  146SAPE  H16S16104   3.290   3.853   9.322  0.2144 -0.1843  0.7010
  146SAPE  C21716105   3.187   4.031   9.346  0.1998  0.1988  0.4473
  146SAPE  H17R16106   3.111   3.992   9.418  0.8110  0.7625  1.4200
  146SAPE  H17S16107   3.147   4.107   9.275  0.0165 -1.7100 -1.5758
  146SAPE  C21816108   3.310   4.092   9.432  0.5825 -0.1760  0.1843
  146SAPE  H18R16109   3.388   4.135   9.365  2.0592  0.1857  2.0764
  146SAPE  H18S16110   3.344   4.003   9.490 -2.4084 -0.9575  0.9041
  146SAPE  C21916111   3.261   4.199   9.535  0.4472  0.6228  0.2009
  146SAPE  H19R16112   3.178   4.251   9.483 -1.7696 -1.2991  1.6066
  146SAPE  H19S16113   3.349   4.264   9.551 -0.4604  1.7564  0.6596
  146SAPE  C22016114   3.226   4.121   9.662  0.9381 -0.8131 -0.4339
  146SAPE  H20R16115   3.158   4.036   9.640  1.4629 -2.5190  3.6176
  146SAPE  H20S16116   3.180   4.179   9.744 -1.0012 -2.0162 -0.6008
  146SAPE  H20T16117   3.314   4.069   9.706  0.2873 -0.4259  1.3811
  146SAPE   C3316118   3.387   3.645  10.032  0.4829 -0.3480 -0.2473
  146SAPE   H3X16119   3.281   3.617  10.045  1.0087 -3.0181 -1.1972
  146SAPE   H3Y16120   3.437   3.546  10.039  0.7200 -0.2308 -0.2499
  146SAPE   C3416121   3.407   3.706   9.891 -0.4361 -0.2180  0.0146
  146SAPE   H4X16122   3.514   3.736   9.893 -0.6549  0.6886 -0.8080
  146SAPE   H4Y16123   3.352   3.802   9.887 -0.1265 -0.0499 -0.4148
  146SAPE   C3516124   3.351   3.606   9.795 -0.1921 -0.3447  0.2873
  146SAPE   H5X16125   3.241   3.593   9.803 -0.2153 -0.7385 -0.5263
  146SAPE   H5Y16126   3.397   3.506   9.812 -1.0729 -0.9625 -0.7772
  146SAPE   C3616127   3.379   3.645   9.649  0.3888  0.5804 -0.1196
  146SAPE   H6X16128   3.485   3.675   9.640  1.2177 -1.9565  0.5509
  146SAPE   H6Y16129   3.308   3.728   9.629 -0.8457  0.4122  2.9650
  146SAPE   C3716130   3.354   3.532   9.542 -0.9226 -0.1069 -0.4383
  146SAPE   H7X16131   3.246   3.507   9.532 -1.4831  1.8733  0.2056
  146SAPE   H7Y16132   3.407   3.438   9.570 -1.4269 -0.4657 -0.6551
  146SAPE   C3816133   3.421   3.568   9.406 -0.4804 -0.0467 -0.5768
  146SAPE   H8X16134   3.530   3.558   9.423 -0.6246 -0.8678 -0.0796
  146SAPE   H8Y16135   3.406   3.676   9.383  0.1470  0.0584 -0.5137
  146SAPE   C3916136   3.372   3.490   9.286 -0.6361 -0.3096  0.3590
  146SAPE   H9X16137   3.262   3.503   9.274 -0.5069  0.1308 -0.4367
  146SAPE   H9Y16138   3.384   3.383   9.310  1.5175 -0.1171  0.3642
  146SAPE  C31016139   3.453   3.515   9.156 -0.7611  0.3385  0.5533
  146SAPE  H10X16140   3.563   3.510   9.175 -0.5415  3.7201  0.6676
  146SAPE  H10Y16141   3.424   3.620   9.137  0.5779  0.7645  0.7547
  146SAPE  C31116142   3.413   3.433   9.029 -0.0047 -0.3715  0.9404
  146SAPE  H11X16143   3.414   3.323   9.047  3.4106 -1.0984 -2.4194
  146SAPE  H11Y16144   3.498   3.455   8.962 -1.1533  2.0598  0.1641
  146SAPE  C31216145   3.284   3.488   8.969 -0.0988  0.3410  0.6368
  146SAPE  H12X16146   3.301   3.592   8.934 -0.7998 -0.1896 -1.4732
  146SAPE  H12Y16147   3.198   3.476   9.038 -1.6416 -0.1146 -1.2486
  146SAPE  C31316148   3.243   3.405   8.837  0.6481  0.6318 -0.3613
  146SAPE  H13X16149   3.200   3.308   8.872 -0.5841  1.2313 -0.1487
  146SAPE  H13Y16150   3.334   3.380   8.780  0.5924 -1.9816  0.5601
  146SAPE  C31416151   3.138   3.473   8.753  0.5704  0.1140 -0.3307
  146SAPE  H14X16152   3.120   3.400   8.671  1.1511 -1.1965  0.6900
  146SAPE  H14Y16153   3.171   3.562   8.695 -3.6949  1.5948 -0.8462
  146SAPE  C31516154   3.000   3.492   8.824 -0.8864  0.1236  0.5959
  146SAPE  H15X16155   2.997   3.407   8.895  0.8749 -0.9032 -0.4780
  146SAPE  H15Y16156   2.916   3.478   8.753  0.3849  0.3465 -1.0208
  146SAPE  C31616157   2.998   3.632   8.885 -0.0856  0.5714 -0.0376
  146SAPE  H16X16158   3.086   3.629   8.952  0.5545  1.6943 -0.7989
  146SAPE  H16Y16159   2.904   3.635   8.943 -0.1326 -1.9324  0.1423
  146SAPE  C31716160   2.994   3.756   8.793 -0.4258  0.6342 -0.0097
  146SAPE  H17X16161   2.941   3.720   8.702  1.0624 -1.3375 -0.1575
  146SAPE  H17Y16162   3.095   3.793   8.765 -1.6438  0.6876 -5.5342
  146SAPE  C31816163   2.914   3.872   8.849  0.4574  0.3764 -0.3736
  146SAPE  H18X16164   2.944   3.901   8.952  1.4629 -0.7533 -0.3211
  146SAPE  H18Y16165   2.812   3.829   8.860  0.5846  0.0050 -0.5995
  146SAPE  H18Z16166   2.921   3.962   8.785  0.9039  0.5847 -0.0379
  147SAPE     N16167   3.213   4.695  10.732 -0.0035  0.0561  0.2309
  147SAPE   HN116168   3.185   4.596  10.746 -2.3334  0.4534 -1.0674
  147SAPE   HN216169   3.152   4.748  10.667  1.6856  1.5699 -0.2164
  147SAPE   HN316170   3.301   4.683  10.677 -1.5887 -0.8328 -2.2961
  147SAPE   C1216171   3.228   4.765  10.866 -0.1477 -0.1433  0.4323
  147SAPE  H12A16172   3.128   4.807  10.893 -0.9364 -0.5220 -1.6956
  147SAPE  H12B16173   3.298   4.851  10.854 -0.5519  0.1875  0.3940
  147SAPE   C1116174   3.262   4.665  10.973  0.3355 -0.4221 -0.4095
  147SAPE  H11A16175   3.216   4.563  10.969 -0.2527 -0.1372 -1.8976
  147SAPE  H11B16176   3.233   4.717  11.066  0.4890  1.1943 -1.2214
  147SAPE     P16177   3.518   4.732  11.018  0.3968 -0.1630  0.0039
  147SAPE   O1316178   3.456   4.865  11.061 -0.3593 -0.1956  0.8144
  147SAPE   O1416179   3.592   4.659  11.117  0.1815 -0.1859 -0.1632
  147SAPE   O1216180   3.400   4.637  10.970 -0.2777 -0.4870 -0.1262
  147SAPE   O1116181   3.593   4.749  10.883  0.4081 -0.0234  0.1680
  147SAPE    C116182   3.593   4.645  10.786  0.6278 -0.3776 -0.9242
  147SAPE    HA16183   3.650   4.554  10.813  0.0307 -1.3105 -2.6783
  147SAPE    HB16184   3.488   4.625  10.755  1.0795 -1.1040 -2.0452
  147SAPE    C216185   3.658   4.700  10.653 -0.1979  0.1567  1.0008
  147SAPE    HS16186   3.623   4.804  10.634  1.4645  0.6283  0.4369
  147SAPE   O2116187   3.623   4.621  10.536 -0.5538 -0.1799 -0.7486
  147SAPE   C2116188   3.500   4.629  10.485  0.0570 -0.1663 -0.0940
  147SAPE   O2216189   3.413   4.700  10.538  0.0066 -0.1081  0.3933
  147SAPE   C2216190   3.491   4.539  10.368 -0.1651 -0.5655  0.3318
  147SAPE   H2R16191   3.574   4.465  10.366 -0.3056 -0.7782 -2.3146
  147SAPE   H2S16192   3.396   4.483  10.360  0.1590 -0.9244 -1.5866
  147SAPE    C316193   3.818   4.711  10.661 -0.1397 -0.2652 -0.4971
  147SAPE    HX16194   3.847   4.607  10.685  1.4033  0.2235 -0.1346
  147SAPE    HY16195   3.845   4.774  10.748  0.4548  0.2330 -1.0314
  147SAPE   O3116196   3.884   4.747  10.540  0.0643 -0.3284 -0.9001
  147SAPE   C3116197   3.876   4.880  10.520 -0.6450  0.1665 -0.2360
  147SAPE   O3216198   3.825   4.961  10.592  0.2572  0.0203 -0.3201
  147SAPE   C3216199   3.960   4.920  10.390  0.6962 -0.3124 -0.1198
  147SAPE   H2X16200   3.927   4.852  10.309  1.1967  0.5915 -1.1175
  147SAPE   H2Y16201   4.067   4.895  10.407  1.2980  1.7614 -0.5271
  147SAPE   C2316202   3.500   4.628  10.244 -0.3987 -0.3717 -0.3638
  147SAPE   H3R16203   3.420   4.704  10.259 -2.3111 -2.5113  0.9644
  147SAPE   H3S16204   3.470   4.566  10.156  0.9409  0.8514 -1.7306
  147SAPE   C2416205   3.635   4.684  10.225 -0.4874 -0.3914  0.0182
  147SAPE   H4R16206   3.705   4.598  10.215  0.0474 -0.1283  1.3358
  147SAPE   H4S16207   3.664   4.742  10.315  2.8397  1.1407 -1.8330
  147SAPE   C2516208   3.656   4.767  10.103  0.8404  0.2440 -0.4440
  147SAPE   H5R16209   3.583   4.846  10.078  2.1477  1.2841 -1.1774
  147SAPE   C2616210   3.751   4.752  10.007 -0.3295 -0.7317 -0.5267
  147SAPE   H6R16211   3.755   4.832   9.932 -1.1020 -0.6024 -0.4368
  147SAPE   C2716212   3.859   4.640  10.012 -0.0101 -0.1248  0.0332
  147SAPE   H7R16213   3.808   4.541  10.008 -2.3276  0.8192  2.7504
  147SAPE   H7S16214   3.913   4.640  10.110 -1.4171 -0.2084  0.8351
  147SAPE   C2816215   3.956   4.649   9.901 -0.3775 -0.9298  0.0608
  147SAPE   H8R16216   4.064   4.648   9.920 -0.1702 -2.4777 -0.9811
  147SAPE   C2916217   3.931   4.620   9.774 -0.9262  0.1408  0.0030
  147SAPE   H9R16218   4.018   4.615   9.707 -1.1755 -1.1943 -0.2590
  147SAPE  C21016219   3.801   4.557   9.716 -0.3175 -0.4437 -0.4451
  147SAPE  H10R16220   3.733   4.515   9.794 -1.3947  0.0870 -1.0764
  147SAPE  H10S16221   3.834   4.470   9.655  0.4990 -1.3795  1.2592
  147SAPE  C21116222   3.722   4.652   9.632 -0.1290 -0.1560 -0.2141
  147SAPE  H11R16223   3.744   4.760   9.630  0.8218 -0.3462 -1.4565
  147SAPE  C21216224   3.632   4.620   9.534  0.1732  0.0486 -0.3934
  147SAPE  H12R16225   3.578   4.694   9.473 -0.7811 -1.4392 -1.4317
  147SAPE  C21316226   3.580   4.484   9.502 -0.2501  0.0934  0.4613
  147SAPE  H13R16227   3.477   4.499   9.465  1.2618  0.5778 -4.1375
  147SAPE  H13S16228   3.574   4.408   9.584  1.3442 -1.3705 -0.7011
  147SAPE  C21416229   3.673   4.405   9.413 -0.4206 -0.2029 -0.6626
  147SAPE  H14R16230   3.771   4.394   9.460 -0.5299 -0.0338 -0.3937
  147SAPE  C21516231   3.641   4.357   9.292  1.0665  0.1594 -0.4300
  147SAPE  H15R16232   3.718   4.307   9.231  2.6738  1.8092  0.1310
  147SAPE  C21616233   3.501   4.370   9.226 -0.1682 -0.7466  0.0798
  147SAPE  H16R16234   3.499   4.475   9.189  1.7543 -0.7501 -0.1259
  147SAPE  H16S16235   3.420   4.357   9.301 -1.4571  0.3923 -1.0587
  147SAPE  C21716236   3.485   4.278   9.102  0.3378 -0.0028  0.5060
  147SAPE  H17R16237   3.481   4.171   9.131 -0.5984  0.3265  1.6514
  147SAPE  H17S16238   3.572   4.284   9.032 -0.0715  0.3905  0.0212
  147SAPE  C21816239   3.349   4.307   9.032 -0.3417  0.2630  0.4120
  147SAPE  H18R16240   3.361   4.409   8.987 -1.1308  1.2405  2.3142
  147SAPE  H18S16241   3.273   4.324   9.111  0.6500  2.1040  1.0480
  147SAPE  C21916242   3.303   4.204   8.923 -0.1581 -0.3764 -0.2368
  147SAPE  H19R16243   3.201   4.226   8.884 -0.0982 -1.8715 -1.3124
  147SAPE  H19S16244   3.291   4.107   8.976  2.2851 -0.8993 -0.5373
  147SAPE  C22016245   3.406   4.177   8.808 -0.0339 -0.4000  0.9970
  147SAPE  H20R16246   3.496   4.120   8.838  2.3683  1.3277 -2.3253
  147SAPE  H20S16247   3.447   4.267   8.758 -1.1224 -1.1629 -1.4126
  147SAPE  H20T16248   3.345   4.134   8.725  1.3397 -0.1271 -0.1892
  147SAPE   C3316249   3.946   5.069  10.351  0.1468 -0.1580 -0.0156
  147SAPE   H3X16250   4.028   5.085  10.278 -0.2094 -1.3446 -0.6992
  147SAPE   H3Y16251   3.970   5.134  10.438  0.6973 -0.4675  0.0659
  147SAPE   C3416252   3.813   5.105  10.281 -0.4736  0.2015 -0.7827
  147SAPE   H4X16253   3.727   5.125  10.348 -1.3439 -0.6810 -1.5888
  147SAPE   H4Y16254   3.797   5.029  10.202  2.2917  0.4305 -1.6726
  147SAPE   C3516255   3.824   5.231  10.200  0.1529  0.5644 -0.3275
  147SAPE   H5X16256   3.908   5.233  10.126  0.7357  1.0326  0.3283
  147SAPE   H5Y16257   3.851   5.317  10.266  0.2889  0.2604  0.0140
  147SAPE   C3616258   3.696   5.263  10.122 -0.7017 -0.3140 -0.0753
  147SAPE   H6X16259   3.615   5.267  10.198  1.1301  1.6485  1.9436
  147SAPE   H6Y16260   3.693   5.185  10.043  1.1943 -1.1769  0.6351
  147SAPE   C3716261   3.699   5.396  10.052 -0.3719 -0.0440  0.0897
  147SAPE   H7X16262   3.793   5.422   9.999 -1.0655 -0.7470 -1.5312
  147SAPE   H7Y16263   3.665   5.471  10.127  1.0590 -0.8622  1.6257
  147SAPE   C3816264   3.586   5.395   9.948 -0.2642  0.6832  0.3429
  147SAPE   H8X16265   3.495   5.354   9.998  0.0487 -0.7274 -0.2032
  147SAPE   H8Y16266   3.608   5.326   9.864 -1.3243  0.5339  0.1634
  147SAPE   C3916267   3.546   5.526   9.884 -0.2599  0.2425 -0.4419
  147SAPE   H9X16268   3.518   5.594   9.967  1.1510 -0.0119  0.2861
  147SAPE   H9Y16269   3.455   5.504   9.825 -0.0490  0.6033 -0.9121
  147SAPE  C31016270   3.650   5.594   9.790  0.1053 -0.1760  0.3065
  147SAPE  H10X16271   3.753   5.600   9.832 -0.2533  0.6161  1.1159
  147SAPE  H10Y16272   3.622   5.700   9.771  1.1490  0.1070  0.2986
  147SAPE  C31116273   3.674   5.515   9.660  0.1993 -0.4697 -0.6179
  147SAPE  H11X16274   3.586   5.507   9.593 -0.6129 -0.8250  0.4705
  147SAPE  H11Y16275   3.705   5.411   9.683 -0.0411 -0.1057  1.4711
  147SAPE  C31216276   3.778   5.572   9.571 -0.4187  0.0061 -0.3222
  147SAPE  H12X16277   3.781   5.503   9.484 -0.4536 -1.7545  1.0289
  147SAPE  H12Y16278   3.876   5.570   9.623 -0.5686 -0.1257 -0.0429
  147SAPE  C31316279   3.740   5.716   9.536 -0.0098 -0.5853 -0.9071
  147SAPE  H13X16280   3.747   5.778   9.627 -0.4542 -0.1070 -1.1936
  147SAPE  H13Y16281   3.634   5.728   9.503 -0.9182  0.3059  2.0302
  147SAPE  C31416282   3.834   5.772   9.431 -0.3900 -0.1293  0.2677
  147SAPE  H14X16283   3.936   5.743   9.463 -0.6338 -0.6135  0.6399
  147SAPE  H14Y16284   3.818   5.882   9.430 -0.6358 -0.1710 -0.7269
  147SAPE  C31516285   3.821   5.710   9.290  0.3945  0.6218 -0.5880
  147SAPE  H15X16286   3.725   5.742   9.245 -0.3392 -0.8438 -0.1321
  147SAPE  H15Y16287   3.821   5.599   9.299 -2.8606  0.3891 -1.9500
  147SAPE  C31616288   3.936   5.746   9.187  0.4720  0.1199  0.4551
  147SAPE  H16X16289   4.036   5.722   9.229 -1.0711 -1.6965  3.4485
  147SAPE  H16Y16290   3.930   5.854   9.161  2.8263 -0.1828 -1.6757
  147SAPE  C31716291   3.913   5.672   9.050  0.4523  0.3773 -0.3011
  147SAPE  H17X16292   3.941   5.567   9.074  1.7095  0.6818 -0.3620
  147SAPE  H17Y16293   3.983   5.728   8.985 -0.4715  2.4657  0.4141
  147SAPE  C31816294   3.762   5.674   9.001  0.4400 -0.3626  0.4494
  147SAPE  H18X16295   3.709   5.771   9.013 -1.6608 -1.2778 -0.8915
  147SAPE  H18Y16296   3.698   5.598   9.053 -2.6067 -0.2092 -2.7264
  147SAPE  H18Z16297   3.765   5.643   8.894  1.9371 -0.4466  0.4909
  148SAPE     N16298   4.322   1.167  10.963  0.4706 -0.0053  0.1046
  148SAPE   HN116299   4.412   1.184  11.012  1.2668 -1.5526 -0.7495
  148SAPE   HN216300   4.260   1.221  11.026 -0.2483 -0.3958 -0.2530
  148SAPE   HN316301   4.294   1.067  10.958 -0.8755  0.3878 -1.2461
  148SAPE   C1216302   4.313   1.238  10.835 -0.1699  0.4143 -0.0651
  148SAPE  H12A16303   4.394   1.196  10.772 -0.3679 -1.2435  0.7394
  148SAPE  H12B16304   4.343   1.342  10.859  1.4788 -0.5450  2.3911
  148SAPE   C1116305   4.175   1.221  10.766 -0.9934 -0.3508  0.1588
  148SAPE  H11A16306   4.152   1.113  10.755  0.5268 -0.8518  1.4370
  148SAPE  H11B16307   4.189   1.265  10.665 -0.6794  0.9120  0.7315
  148SAPE     P16308   4.042   1.446  10.823  0.1478 -0.4230  0.0092
  148SAPE   O1316309   3.965   1.500  10.937  0.4326  0.0194 -0.6734
  148SAPE   O1416310   4.170   1.521  10.798 -0.6191 -1.1852  0.5794
  148SAPE   O1216311   4.066   1.289  10.838 -0.5535  0.6371  0.2740
  148SAPE   O1116312   3.942   1.458  10.696 -0.3347 -0.1788  0.8574
  148SAPE    C116313   3.881   1.342  10.642  0.0719 -0.2924 -0.3186
  148SAPE    HA16314   3.953   1.261  10.620 -1.4552 -1.7300 -0.2341
  148SAPE    HB16315   3.808   1.307  10.719 -0.5598  2.5307  0.5098
  148SAPE    C216316   3.801   1.366  10.509  0.8313 -0.4609 -0.2969
  148SAPE    HS16317   3.753   1.268  10.485 -1.0276  0.1608  0.6896
  148SAPE   O2116318   3.883   1.403  10.404  0.5646  0.5045  0.1708
  148SAPE   C2116319   3.966   1.305  10.365  0.2740 -0.1790 -0.0933
  148SAPE   O2216320   3.973   1.191  10.403 -0.3135  0.2350  0.0189
  148SAPE   C2216321   4.054   1.370  10.255  0.2546 -0.3915  0.1046
  148SAPE   H2R16322   4.131   1.294  10.229 -0.1068 -0.1685 -1.7655
  148SAPE   H2S16323   4.001   1.394  10.160 -1.1126  0.6990  1.1203
  148SAPE    C316324   3.693   1.466  10.535 -0.0644 -0.6560 -0.2087
  148SAPE    HX16325   3.744   1.563  10.551 -1.4213  0.3752 -1.7647
  148SAPE    HY16326   3.635   1.435  10.625  1.8818 -2.2965  0.5569
  148SAPE   O3116327   3.609   1.494  10.421 -0.0164  0.1444 -0.2559
  148SAPE   C3116328   3.504   1.410  10.410  0.2301  0.5514  0.5724
  148SAPE   O3216329   3.493   1.295  10.448  0.4478 -0.4651  0.0602
  148SAPE   C3216330   3.390   1.486  10.332 -0.5472  0.3240 -0.6163
  148SAPE   H2X16331   3.370   1.438  10.234 -1.2613 -1.6025  0.4132
  148SAPE   H2Y16332   3.424   1.588  10.305  2.1013 -0.7262 -1.5801
  148SAPE   C2316333   4.130   1.497  10.310 -0.3093 -0.4942  0.6046
  148SAPE   H3R16334   4.208   1.466  10.383  0.7154 -0.6535 -0.5291
  148SAPE   H3S16335   4.061   1.557  10.373 -3.1137 -1.4746 -1.3425
  148SAPE   C2416336   4.187   1.588  10.204  0.1874  0.4943 -0.4190
  148SAPE   H4R16337   4.215   1.683  10.254  0.0098  0.8918 -1.0599
  148SAPE   H4S16338   4.101   1.616  10.140 -2.0983 -1.1890  1.7535
  148SAPE   C2516339   4.309   1.516  10.140  0.2022 -0.5665 -0.0871
  148SAPE   H5R16340   4.391   1.500  10.212  2.6781  0.9089 -2.3870
  148SAPE   C2616341   4.324   1.463  10.015  0.2037  0.1981 -0.0502
  148SAPE   H6R16342   4.427   1.436   9.989 -0.4852 -3.9785  0.8912
  148SAPE   C2716343   4.213   1.473   9.919 -0.1784 -0.0300 -0.0623
  148SAPE   H7R16344   4.237   1.554   9.846  1.5179  1.0559  1.6128
  148SAPE   H7S16345   4.121   1.511   9.969  0.8678  3.0673 -0.2649
  148SAPE   C2816346   4.198   1.338   9.844 -0.0545  0.1356  0.6767
  148SAPE   H8R16347   4.122   1.269   9.884  0.9352 -1.1558  0.3721
  148SAPE   C2916348   4.255   1.297   9.728  0.3888 -0.2116  0.2251
  148SAPE   H9R16349   4.215   1.208   9.678 -4.1887  1.2216  0.7969
  148SAPE  C21016350   4.357   1.377   9.651 -0.5435 -0.3493 -0.2516
  148SAPE  H10R16351   4.429   1.306   9.605  0.6995  0.8905 -0.3018
  148SAPE  H10S16352   4.421   1.431   9.724 -1.9160  0.3459  0.4783
  148SAPE  C21116353   4.307   1.480   9.562  0.3284 -0.4363  0.1967
  148SAPE  H11R16354   4.299   1.582   9.602 -0.8314  0.1174 -1.3300
  148SAPE  C21216355   4.251   1.456   9.438  0.2850 -0.4658 -0.3742
  148SAPE  H12R16356   4.213   1.544   9.384 -1.5988 -0.8056  0.2894
  148SAPE  C21316357   4.238   1.324   9.365 -0.1730 -0.4289  0.1919
  148SAPE  H13R16358   4.288   1.246   9.426  0.2533  0.5828  1.1688
  148SAPE  H13S16359   4.293   1.333   9.269  0.9299 -4.7936  0.2451
  148SAPE  C21416360   4.093   1.281   9.346  0.6627 -0.7702  0.5682
  148SAPE  H14R16361   4.036   1.245   9.433  0.2289  0.4866  0.8230
  148SAPE  C21516362   4.033   1.300   9.226  0.6676  0.3943 -0.0014
  148SAPE  H15R16363   3.927   1.275   9.215  0.8032 -0.2967  0.2628
  148SAPE  C21616364   4.093   1.352   9.098 -0.4053 -0.3215  1.0134
  148SAPE  H16R16365   4.185   1.414   9.106 -1.4762  1.5656 -0.5069
  148SAPE  H16S16366   4.027   1.432   9.059 -0.0219  0.2241  1.4589
  148SAPE  C21716367   4.102   1.240   8.992  0.3655 -0.0808 -0.6027
  148SAPE  H17R16368   4.102   1.288   8.892 -2.6552 -1.2596 -1.2942
  148SAPE  H17S16369   4.011   1.177   8.984  1.9319 -2.6814  0.7543
  148SAPE  C21816370   4.227   1.148   9.010 -0.7758 -0.1054 -0.7176
  148SAPE  H18R16371   4.224   1.105   9.113  0.6467  0.2642 -0.5061
  148SAPE  H18S16372   4.312   1.218   9.000 -1.8428  1.2680 -0.5309
  148SAPE  C21916373   4.240   1.046   8.898 -0.0027  0.0438  0.2024
  148SAPE  H19R16374   4.266   1.096   8.802  2.5918 -0.8891  0.3372
  148SAPE  H19S16375   4.150   0.981   8.891  0.3675 -0.3889 -0.6153
  148SAPE  C22016376   4.359   0.953   8.923  0.7754 -0.0113 -0.4137
  148SAPE  H20R16377   4.357   0.869   8.851  1.9714 -0.6751  0.2838
  148SAPE  H20S16378   4.344   0.912   9.025 -0.5012 -0.2075 -0.6637
  148SAPE  H20T16379   4.465   0.988   8.926  0.7593 -0.0099  1.2977
  148SAPE   C3316380   3.252   1.491  10.401 -0.5887 -0.3771  0.5330
  148SAPE   H3X16381   3.208   1.588  10.370  1.4741  0.6342  0.6307
  148SAPE   H3Y16382   3.252   1.497  10.512 -0.2181 -0.6076  0.5462
  148SAPE   C3416383   3.173   1.363  10.373 -0.0719  0.0596  0.2594
  148SAPE   H4X16384   3.225   1.275  10.417 -0.3105  0.4033  1.2506
  148SAPE   H4Y16385   3.166   1.335  10.266 -2.7062  1.7974 -0.1103
  148SAPE   C3516386   3.024   1.367  10.408 -0.1728 -0.5011  0.2558
  148SAPE   H5X16387   3.013   1.419  10.505  0.9048  0.3675 -0.0671
  148SAPE   H5Y16388   2.977   1.266  10.406 -1.6020  0.0964  1.7112
  148SAPE   C3616389   2.942   1.455  10.316  0.6116  0.2559  0.5346
  148SAPE   H6X16390   2.973   1.561  10.314  2.8636 -0.3173 -2.4123
  148SAPE   H6Y16391   2.838   1.445  10.353  1.3168 -1.2462  2.3064
  148SAPE   C3716392   2.909   1.392  10.180 -0.0239  0.0950 -0.1612
  148SAPE   H7X16393   2.801   1.389  10.155 -0.3401 -0.4479  1.1566
  148SAPE   H7Y16394   2.940   1.286  10.191  0.8669  0.3477 -0.0848
  148SAPE   C3816395   2.983   1.474  10.071  0.6391 -0.0575 -0.6966
  148SAPE   H8X16396   3.088   1.495  10.104 -0.0375 -0.0671  1.6206
  148SAPE   H8Y16397   2.931   1.571  10.061  1.1442  0.7232  2.9578
  148SAPE   C3916398   2.972   1.393   9.940 -0.9259  0.1708 -0.4340
  148SAPE   H9X16399   2.886   1.437   9.885 -2.4024 -2.0175 -0.0023
  148SAPE   H9Y16400   2.946   1.287   9.962  1.1521 -0.0020  1.5621
  148SAPE  C31016401   3.096   1.426   9.857 -0.3391  0.3262 -0.1428
  148SAPE  H10X16402   3.183   1.408   9.925 -0.9473 -3.2348 -0.0839
  148SAPE  H10Y16403   3.096   1.532   9.824 -1.0984  0.9728  1.7937
  148SAPE  C31116404   3.100   1.346   9.728 -0.0878 -0.1292  0.0370
  148SAPE  H11X16405   3.021   1.373   9.655 -0.0100  0.3281  0.1199
  148SAPE  H11Y16406   3.075   1.241   9.755  1.1932 -0.6890 -0.8936
  148SAPE  C31216407   3.231   1.355   9.665  0.0064  0.9791  0.4277
  148SAPE  H12X16408   3.307   1.314   9.735 -1.1451  1.1354  1.8079
  148SAPE  H12Y16409   3.253   1.461   9.640  0.6388  0.8224  0.3007
  148SAPE  C31316410   3.241   1.267   9.542  0.4607 -0.4583  1.0366
  148SAPE  H13X16411   3.339   1.287   9.495  0.2589  0.9269  1.1585
  148SAPE  H13Y16412   3.187   1.317   9.458 -0.1227 -1.7415  0.6308
  148SAPE  C31416413   3.205   1.117   9.552  0.4520 -0.2453 -0.0105
  148SAPE  H14X16414   3.243   1.079   9.454  1.6317 -0.0893  0.3742
  148SAPE  H14Y16415   3.101   1.083   9.568 -0.7668  3.6667  1.2510
  148SAPE  C31516416   3.293   1.047   9.659  0.8170  0.1937  0.1460
  148SAPE  H15X16417   3.264   1.087   9.759  0.8132  2.8352 -0.8366
  148SAPE  H15Y16418   3.398   1.077   9.644  0.5161  2.0251  1.3459
  148SAPE  C31616419   3.288   0.894   9.655 -0.1383  0.3789  0.0227
  148SAPE  H16X16420   3.358   0.854   9.731  1.1425  0.3861 -1.1027
  148SAPE  H16Y16421   3.321   0.867   9.552 -0.2643 -0.5660  0.2238
  148SAPE  C31716422   3.150   0.836   9.687 -0.3903  0.2580  0.3085
  148SAPE  H17X16423   3.082   0.846   9.600  1.2831 -1.6617 -1.3287
  148SAPE  H17Y16424   3.103   0.892   9.770  1.3337  1.4486  0.5401
  148SAPE  C31816425   3.153   0.689   9.732  0.1663  0.6263 -0.0694
  148SAPE  H18X16426   3.184   0.692   9.839 -0.3098  1.6492  0.0511
  148SAPE  H18Y16427   3.220   0.627   9.669  1.6864 -0.1525  2.1569
  148SAPE  H18Z16428   3.053   0.642   9.718  0.3978 -0.4459  1.5386
  149SAPE     N16429   1.413   3.073  11.183 -0.3903  0.0395  0.0196
  149SAPE   HN116430   1.430   3.000  11.255 -1.6056 -0.6749 -0.3753
  149SAPE   HN216431   1.368   3.019  11.106 -1.6174  0.4489  0.4139
  149SAPE   HN316432   1.507   3.111  11.159 -0.3623 -0.3632 -0.5282
  149SAPE   C1216433   1.322   3.192  11.222 -0.6102 -0.0544 -0.2534
  149SAPE  H12A16434   1.386   3.269  11.270  0.6510 -1.6330  0.6835
  149SAPE  H12B16435   1.246   3.155  11.294  0.2011  2.2459  1.9461
  149SAPE   C1116436   1.254   3.254  11.100  0.7001 -0.2197  0.2345
  149SAPE  H11A16437   1.332   3.318  11.054  0.5768  0.7125  1.2892
  149SAPE  H11B16438   1.175   3.321  11.142  0.5543 -0.2711  0.0465
  149SAPE     P16439   1.061   3.118  10.981  0.1299  0.4803 -0.0049
  149SAPE   O1316440   1.045   2.974  10.961 -0.4551  0.4897 -0.1988
  149SAPE   O1416441   0.974   3.192  11.070  0.5865 -0.0441 -0.6440
  149SAPE   O1216442   1.206   3.157  11.012 -0.3206  0.9862 -0.0742
  149SAPE   O1116443   1.039   3.176  10.835 -0.3954  0.5788 -0.6523
  149SAPE    C116444   1.153   3.202  10.755 -0.1561  0.1838 -0.5391
  149SAPE    HA16445   1.175   3.310  10.765 -0.1073  0.3276 -1.9592
  149SAPE    HB16446   1.245   3.144  10.779 -0.0081  0.3897 -0.6069
  149SAPE    C216447   1.129   3.175  10.608  0.6785  0.1790 -0.8119
  149SAPE    HS16448   1.219   3.182  10.542  1.9601 -1.3193  0.6800
  149SAPE   O2116449   1.019   3.256  10.558 -0.5304  0.0022 -0.2157
  149SAPE   C2116450   1.042   3.389  10.543 -0.0117 -0.2928  0.3402
  149SAPE   O2216451   1.155   3.437  10.566 -0.0519 -0.2143 -0.4087
  149SAPE   C2216452   0.919   3.470  10.497  0.1198  0.2424 -0.0046
  149SAPE   H2R16453   0.871   3.529  10.577 -2.0260  0.3848 -1.3142
  149SAPE   H2S16454   0.969   3.539  10.425  1.4250 -1.1636 -0.5195
  149SAPE    C316455   1.090   3.028  10.598 -0.2636  1.6120 -0.3474
  149SAPE    HX16456   0.989   3.017  10.643  1.7922 -0.8887  4.4026
  149SAPE    HY16457   1.158   2.973  10.666 -2.5301  0.0013  0.7463
  149SAPE   O3116458   1.099   2.975  10.465 -0.5815  0.2549  0.5973
  149SAPE   C3116459   1.194   2.883  10.435 -0.6428 -0.2446 -0.5118
  149SAPE   O3216460   1.282   2.845  10.515 -0.2574 -0.1276  0.0084
  149SAPE   C3216461   1.185   2.849  10.287  0.2790  0.4068  0.5692
  149SAPE   H2X16462   1.154   2.937  10.227  1.6939 -0.8255 -2.1936
  149SAPE   H2Y16463   1.103   2.775  10.281 -0.9973  1.7995  0.3461
  149SAPE   C2316464   0.818   3.382  10.426 -0.9374 -0.2123 -0.4627
  149SAPE   H3R16465   0.782   3.310  10.502 -0.1484  0.9707  1.0949
  149SAPE   H3S16466   0.860   3.329  10.338 -2.1826 -1.1470 -0.5093
  149SAPE   C2416467   0.698   3.457  10.386  0.1705  0.1494  0.0170
  149SAPE   H4R16468   0.641   3.496  10.472 -1.8055 -1.4465 -0.4778
  149SAPE   H4S16469   0.636   3.382  10.332 -0.4614  0.9260 -0.3547
  149SAPE   C2516470   0.711   3.571  10.289 -0.0333 -0.5077 -0.6009
  149SAPE   H5R16471   0.659   3.656  10.334 -0.8538 -0.8479 -0.8839
  149SAPE   C2616472   0.732   3.558  10.151  0.1285 -0.5328 -0.8282
  149SAPE   H6R16473   0.736   3.645  10.083  0.7555 -0.1832 -0.3537
  149SAPE   C2716474   0.759   3.426  10.082  0.6729 -0.4282 -0.5439
  149SAPE   H7R16475   0.727   3.338  10.141  3.4161 -1.1672 -0.0066
  149SAPE   H7S16476   0.866   3.397  10.071  0.8409  0.7580 -2.6593
  149SAPE   C2816477   0.682   3.413   9.955  0.6700  0.1709  0.5634
  149SAPE   H8R16478   0.581   3.371   9.970  0.8398 -0.6782 -0.5540
  149SAPE   C2916479   0.705   3.461   9.830  0.6154 -0.3162 -0.5428
  149SAPE   H9R16480   0.636   3.426   9.752  1.4994 -0.2128 -1.3874
  149SAPE  C21016481   0.825   3.529   9.781 -0.2986  0.2783  0.1217
  149SAPE  H10R16482   0.884   3.460   9.717  0.1081  0.3745  0.3904
  149SAPE  H10S16483   0.903   3.535   9.860  0.3841 -0.6302 -0.4571
  149SAPE  C21116484   0.810   3.658   9.706 -0.3341  0.3512  0.2855
  149SAPE  H11R16485   0.746   3.737   9.749  1.4216  2.3425 -0.5400
  149SAPE  C21216486   0.850   3.694   9.582  0.1431 -0.1207  0.2275
  149SAPE  H12R16487   0.836   3.801   9.563  2.2612 -0.0412 -1.3033
  149SAPE  C21316488   0.927   3.626   9.477 -0.3540 -0.3800  0.0885
  149SAPE  H13R16489   0.879   3.654   9.381  1.5325  1.2054 -0.4427
  149SAPE  H13S16490   0.909   3.517   9.477  1.0024 -0.6422 -1.3965
  149SAPE  C21416491   1.076   3.654   9.487 -0.3206 -0.5369  0.5291
  149SAPE  H14R16492   1.095   3.728   9.566 -1.8813  0.8769 -0.3439
  149SAPE  C21516493   1.162   3.592   9.407 -0.3946  0.1083  0.0470
  149SAPE  H15R16494   1.268   3.612   9.427 -0.0754 -1.6646  0.3381
  149SAPE  C21616495   1.134   3.492   9.293  0.2341 -0.1442 -0.1581
  149SAPE  H16R16496   1.026   3.467   9.288  0.5933 -1.6755 -0.5491
  149SAPE  H16S16497   1.183   3.394   9.311  0.7363  0.1626  0.2139
  149SAPE  C21716498   1.164   3.545   9.157 -0.4709 -0.5361 -0.3195
  149SAPE  H17R16499   1.102   3.636   9.144  1.6178  1.1584  0.7592
  149SAPE  H17S16500   1.137   3.477   9.074  0.3114  0.4520 -1.4136
  149SAPE  C21816501   1.310   3.601   9.138 -0.0979 -0.1658  0.3099
  149SAPE  H18R16502   1.387   3.521   9.142  1.4083  1.2627  1.3567
  149SAPE  H18S16503   1.345   3.667   9.220  0.6848  0.8647 -0.8055
  149SAPE  C21916504   1.329   3.672   9.008 -0.3740  0.1213  0.1781
  149SAPE  H19R16505   1.429   3.722   9.005 -0.0354 -0.5791 -0.7643
  149SAPE  H19S16506   1.253   3.752   9.022 -0.0495  0.2269  1.4938
  149SAPE  C22016507   1.309   3.577   8.885  0.5550 -0.0214 -0.4227
  149SAPE  H20R16508   1.204   3.539   8.882 -0.9736  3.8316 -0.9692
  149SAPE  H20S16509   1.373   3.488   8.868 -0.2111 -0.5163 -0.8248
  149SAPE  H20T16510   1.321   3.641   8.795  1.6570  1.5756  0.8258
  149SAPE   C3316511   1.322   2.789  10.239  0.1598  0.3761 -0.6332
  149SAPE   H3X16512   1.335   2.679  10.247 -0.2301  0.4439  1.7213
  149SAPE   H3Y16513   1.400   2.834  10.305 -0.7559  1.1569 -0.0433
  149SAPE   C3416514   1.357   2.847  10.102  0.0735 -0.3957  0.8069
  149SAPE   H4X16515   1.465   2.834  10.080 -0.0061 -1.3741  0.9361
  149SAPE   H4Y16516   1.346   2.957  10.117  0.5762 -0.4025  1.2889
  149SAPE   C3516517   1.283   2.790   9.986 -0.7170  0.6195  0.2349
  149SAPE   H5X16518   1.175   2.771  10.003 -0.4381  1.5165  3.7238
  149SAPE   H5Y16519   1.328   2.690   9.968  2.6372  2.0668 -0.2561
  149SAPE   C3616520   1.303   2.867   9.854 -0.3951  0.2239  0.4301
  149SAPE   H6X16521   1.408   2.887   9.825  0.1894 -1.8063  0.9962
  149SAPE   H6Y16522   1.257   2.967   9.868 -1.6602  0.0065 -1.6173
  149SAPE   C3716523   1.224   2.826   9.732  0.2071  0.4156 -0.6961
  149SAPE   H7X16524   1.118   2.847   9.759 -0.1578 -1.0371 -0.9200
  149SAPE   H7Y16525   1.230   2.716   9.722 -2.1665  0.2474 -0.9672
  149SAPE   C3816526   1.261   2.903   9.603 -0.2401  0.2416  0.0129
  149SAPE   H8X16527   1.363   2.872   9.571  0.5750  1.8476  0.9060
  149SAPE   H8Y16528   1.275   3.010   9.630 -1.8899  0.6535 -0.6376
  149SAPE   C3916529   1.162   2.878   9.493  0.3899  0.4343  0.3026
  149SAPE   H9X16530   1.064   2.921   9.522  0.4651  0.3416  0.7093
  149SAPE   H9Y16531   1.142   2.769   9.484  0.6231  0.3615  0.6221
  149SAPE  C31016532   1.208   2.928   9.353  0.1134 -0.0791 -0.1882
  149SAPE  H10X16533   1.210   3.039   9.364 -1.3763 -0.1495  1.0712
  149SAPE  H10Y16534   1.127   2.885   9.290 -2.5576  0.7829  2.4439
  149SAPE  C31116535   1.347   2.870   9.311  0.5566 -0.0922  0.0777
  149SAPE  H11X16536   1.360   2.765   9.343 -1.4972 -0.4898 -0.2936
  149SAPE  H11Y16537   1.432   2.926   9.356 -0.8459  2.3534 -0.0895
  149SAPE  C31216538   1.382   2.856   9.162 -0.3088  0.2233 -0.2164
  149SAPE  H12X16539   1.374   2.954   9.111  0.1857 -0.4531 -1.6588
  149SAPE  H12Y16540   1.311   2.799   9.099 -0.6135  1.2539 -0.8200
  149SAPE  C31316541   1.519   2.782   9.136  0.0562 -0.0428  0.0743
  149SAPE  H13X16542   1.515   2.677   9.171 -1.3552 -0.2619 -0.6729
  149SAPE  H13Y16543   1.602   2.834   9.187  0.2668  1.0921 -1.3588
  149SAPE  C31416544   1.547   2.778   8.976 -0.0360  0.3231 -1.1355
  149SAPE  H14X16545   1.550   2.876   8.924 -0.6968  0.8396 -0.2325
  149SAPE  H14Y16546   1.469   2.722   8.920 -0.7529 -0.5792  0.6646
  149SAPE  C31516547   1.696   2.726   8.952 -0.2382 -0.3564  0.4279
  149SAPE  H15X16548   1.698   2.625   8.998  3.1486 -0.2620  0.7400
  149SAPE  H15Y16549   1.766   2.786   9.014 -0.3518  1.8223 -1.4193
  149SAPE  C31616550   1.734   2.710   8.805 -0.0914 -0.0209 -0.5017
  149SAPE  H16X16551   1.837   2.668   8.804  0.0627  0.3531 -0.5020
  149SAPE  H16Y16552   1.742   2.811   8.760  0.1930  0.4593  0.5919
  149SAPE  C31716553   1.633   2.635   8.720  0.4237 -0.3210  0.6414
  149SAPE  H17X16554   1.544   2.700   8.705  0.9208  0.1592 -0.2508
  149SAPE  H17Y16555   1.604   2.554   8.791 -1.7431  2.2329  2.8933
  149SAPE  C31816556   1.680   2.570   8.587 -0.3514 -0.0921 -0.8050
  149SAPE  H18X16557   1.661   2.640   8.502 -1.2831 -0.0269 -0.5585
  149SAPE  H18Y16558   1.621   2.477   8.571  0.6849 -0.9583  0.2445
  149SAPE  H18Z16559   1.787   2.541   8.587 -0.2248  0.3731 -0.5026
  150SAPE     N16560   3.560   2.675  10.988  0.4911 -0.2225 -0.4559
  150SAPE   HN116561   3.622   2.594  10.967  2.1712  0.5497  1.1831
  150SAPE   HN216562   3.571   2.689  11.091  2.9100  0.6019 -0.7493
  150SAPE   HN316563   3.464   2.657  10.953  0.1563  0.5798  0.0097
  150SAPE   C1216564   3.620   2.800  10.920 -0.3040 -0.3817 -0.5751
  150SAPE  H12A16565   3.552   2.886  10.935  0.9827  0.5691  0.0330
  150SAPE  H12B16566   3.632   2.763  10.816  0.5098 -2.7354  0.2921
  150SAPE   C1116567   3.762   2.836  10.989  0.3482 -0.5042 -0.4251
  150SAPE  H11A16568   3.825   2.746  11.004  1.7482  0.4587 -0.4029
  150SAPE  H11B16569   3.746   2.860  11.096  0.4407  1.0742 -0.7322
  150SAPE     P16570   3.953   2.919  10.834  0.1831  0.4068  0.1773
  150SAPE   O1316571   3.965   3.024  10.735  0.7082 -0.0168 -0.5035
  150SAPE   O1416572   4.058   2.907  10.933 -0.0199  0.3262  0.5008
  150SAPE   O1216573   3.822   2.951  10.922 -0.4233 -0.4462  0.3678
  150SAPE   O1116574   3.923   2.783  10.763  0.4165 -0.6002 -0.5269
  150SAPE    C116575   4.005   2.662  10.793 -0.1916  0.0673 -0.0546
  150SAPE    HA16576   4.064   2.668  10.887  1.7254  4.0267 -1.2955
  150SAPE    HB16577   3.933   2.581  10.818 -1.4310  1.4718  1.0917
  150SAPE    C216578   4.091   2.619  10.678 -0.3554 -0.4406 -0.1899
  150SAPE    HS16579   4.152   2.706  10.644 -2.5996  1.4103  0.2528
  150SAPE   O2116580   4.006   2.585  10.563  0.3842  0.2177  0.2371
  150SAPE   C2116581   4.047   2.618  10.439  0.2203  0.4669 -0.1542
  150SAPE   O2216582   4.148   2.687  10.417 -0.8085 -0.2191  0.2475
  150SAPE   C2216583   3.959   2.546  10.330  0.0524  0.6832 -0.3386
  150SAPE   H2R16584   3.982   2.438  10.334 -0.2524  0.5383 -1.8485
  150SAPE   H2S16585   3.848   2.554  10.337  0.0205  1.0923 -1.1587
  150SAPE    C316586   4.188   2.499  10.708  0.1605 -0.1574 -0.4834
  150SAPE    HX16587   4.112   2.426  10.746 -2.4629  2.6643  0.0922
  150SAPE    HY16588   4.243   2.524  10.801 -1.0445 -1.5011  0.6540
  150SAPE   O3116589   4.260   2.445  10.592 -0.1447  0.6020  0.6738
  150SAPE   C3116590   4.376   2.511  10.576  0.0287  0.6418  0.3301
  150SAPE   O3216591   4.416   2.599  10.647 -0.0501  0.1440 -0.3969
  150SAPE   C3216592   4.452   2.457  10.449 -0.5933  0.0101 -0.3712
  150SAPE   H2X16593   4.469   2.349  10.467 -0.5141 -0.1401 -1.3110
  150SAPE   H2Y16594   4.546   2.515  10.448 -0.7478  0.2641 -0.3484
  150SAPE   C2316595   3.999   2.587  10.177 -0.1834  0.0193 -0.1946
  150SAPE   H3R16596   4.109   2.587  10.163  0.2719  2.5345  2.4466
  150SAPE   H3S16597   3.953   2.687  10.168 -1.3378 -0.5677 -1.1517
  150SAPE   C2416598   3.916   2.512  10.068  0.0362 -0.2908 -0.0008
  150SAPE   H4R16599   3.928   2.568   9.973  1.5639  0.8625  0.8337
  150SAPE   H4S16600   3.810   2.523  10.100 -0.1385 -1.2258 -0.2265
  150SAPE   C2516601   3.948   2.365  10.058  0.3342  0.0773  0.3481
  150SAPE   H5R16602   3.923   2.318  10.154 -0.5119 -1.2956 -0.5223
  150SAPE   C2616603   3.989   2.291   9.952  0.3854  0.3404  0.5228
  150SAPE   H6R16604   4.021   2.187   9.968 -1.1303 -0.1397  0.5928
  150SAPE   C2716605   3.994   2.344   9.808  0.5205  0.1122  0.8320
  150SAPE   H7R16606   4.083   2.410   9.809  0.8310 -0.2811  1.9389
  150SAPE   H7S16607   3.908   2.411   9.793  2.1959  2.0456 -0.6806
  150SAPE   C2816608   3.992   2.232   9.702 -0.1230 -0.2956 -0.1792
  150SAPE   H8R16609   3.975   2.131   9.743 -0.2563  0.0804  0.7231
  150SAPE   C2916610   4.006   2.251   9.572 -0.4367 -0.2834 -0.1358
  150SAPE   H9R16611   4.003   2.168   9.499  0.2521  0.1651 -0.6775
  150SAPE  C21016612   4.023   2.384   9.511  0.2459  0.3765  0.7088
  150SAPE  H10R16613   4.119   2.391   9.455 -0.2532 -0.1897 -0.2471
  150SAPE  H10S16614   4.023   2.462   9.591  1.0991  1.4379 -0.2825
  150SAPE  C21116615   3.913   2.405   9.415 -0.3255 -0.3641  0.0588
  150SAPE  H11R16616   3.826   2.447   9.468 -0.3933 -3.5920  2.8690
  150SAPE  C21216617   3.907   2.391   9.282  0.0616 -0.3816  0.3825
  150SAPE  H12R16618   3.804   2.392   9.244 -0.9609  1.6677  2.9520
  150SAPE  C21316619   4.024   2.347   9.183  0.0008 -0.8603  0.1088
  150SAPE  H13R16620   4.034   2.244   9.143 -0.6779 -0.1134 -2.1553
  150SAPE  H13S16621   4.118   2.375   9.234 -0.1376 -0.1465 -0.0135
  150SAPE  C21416622   3.987   2.430   9.061  0.3707  0.1296 -0.7372
  150SAPE  H14R16623   4.010   2.537   9.069 -1.8646  0.5527  1.3941
  150SAPE  C21516624   3.927   2.377   8.955 -0.1422  0.6397 -0.3009
  150SAPE  H15R16625   3.887   2.456   8.889 -0.1525  0.8143 -0.0864
  150SAPE  C21616626   3.877   2.236   8.921  0.1778 -0.4751  0.5407
  150SAPE  H16R16627   3.771   2.259   8.894  0.2531  0.4587  0.9760
  150SAPE  H16S16628   3.862   2.176   9.013 -0.3460  1.3228  1.6876
  150SAPE  C21716629   3.964   2.179   8.811  0.8951 -0.2007  0.0394
  150SAPE  H17R16630   3.940   2.072   8.794 -0.6174  0.0461  0.5431
  150SAPE  H17S16631   4.074   2.184   8.826  0.9939  2.2900 -0.9964
  150SAPE  C21816632   3.938   2.237   8.670 -0.0509  0.2849 -0.0452
  150SAPE  H18R16633   4.009   2.189   8.599 -0.3540 -1.5054  0.8074
  150SAPE  H18S16634   3.971   2.343   8.664  0.5520  0.0397 -1.4029
  150SAPE  C21916635   3.793   2.209   8.622 -0.3626 -0.1721 -0.0750
  150SAPE  H19R16636   3.732   2.286   8.674 -1.5116 -1.3640  0.4114
  150SAPE  H19S16637   3.762   2.104   8.643 -0.6881 -0.0543  0.0424
  150SAPE  C22016638   3.760   2.238   8.474  0.1046 -0.3993 -1.0255
  150SAPE  H20R16639   3.840   2.203   8.405  1.2568 -0.6765  0.4087
  150SAPE  H20S16640   3.746   2.347   8.459 -2.7895 -0.7812 -1.7017
  150SAPE  H20T16641   3.665   2.188   8.444 -0.8759  1.7199 -1.6616
  150SAPE   C3316642   4.391   2.491  10.308 -0.3451  0.3226  0.8219
  150SAPE   H3X16643   4.395   2.602  10.301  2.2668  0.3529  1.6667
  150SAPE   H3Y16644   4.286   2.454  10.305 -0.9610  2.0159  0.5158
  150SAPE   C3416645   4.460   2.414  10.192 -0.0019  0.2817  0.8560
  150SAPE   H4X16646   4.446   2.305  10.207  0.4761  0.4928  3.2857
  150SAPE   H4Y16647   4.569   2.434  10.187  0.2299 -0.8928  0.8742
  150SAPE   C3516648   4.393   2.457  10.052 -0.0943  0.3226 -0.4174
  150SAPE   H5X16649   4.397   2.568  10.044 -0.8745  0.6493  2.5656
  150SAPE   H5Y16650   4.286   2.428  10.049 -0.1818  0.6893 -1.1646
  150SAPE   C3616651   4.462   2.375   9.945 -0.7831  0.0487 -0.2809
  150SAPE   H6X16652   4.474   2.271   9.982  0.2656  0.1740 -0.2162
  150SAPE   H6Y16653   4.568   2.407   9.935 -0.5438 -0.5945  0.1448
  150SAPE   C3716654   4.392   2.370   9.809 -0.1333  0.3774  0.3937
  150SAPE   H7X16655   4.376   2.469   9.763 -0.3501 -0.3029 -1.0589
  150SAPE   H7Y16656   4.290   2.326   9.818  1.0929 -2.9394 -0.3269
  150SAPE   C3816657   4.473   2.291   9.703  0.5284  0.4169  0.3183
  150SAPE   H8X16658   4.471   2.182   9.722  1.3290  0.2859 -0.3109
  150SAPE   H8Y16659   4.579   2.323   9.692  0.6227 -0.0380 -0.1201
  150SAPE   C3916660   4.408   2.308   9.564 -0.6618  0.0117  0.2289
  150SAPE   H9X16661   4.399   2.416   9.540  2.9376  0.4676  0.3983
  150SAPE   H9Y16662   4.309   2.257   9.557 -0.7358  0.3791 -2.9043
  150SAPE  C31016663   4.504   2.254   9.450  0.9983  0.1314 -0.4209
  150SAPE  H10X16664   4.541   2.149   9.459  0.2764  0.0604  3.5109
  150SAPE  H10Y16665   4.592   2.321   9.441 -1.8269  4.2101 -0.0300
  150SAPE  C31116666   4.421   2.272   9.317 -0.3929  0.9728 -0.7734
  150SAPE  H11X16667   4.392   2.379   9.318  0.7028  1.3243  1.8610
  150SAPE  H11Y16668   4.326   2.214   9.316 -0.2265  0.7109 -1.9724
  150SAPE  C31216669   4.499   2.223   9.193  0.6565  0.1918  0.0424
  150SAPE  H12X16670   4.510   2.113   9.208  0.3472  0.3680  1.7915
  150SAPE  H12Y16671   4.600   2.269   9.194 -0.1161  2.1638  3.8808
  150SAPE  C31316672   4.423   2.247   9.056 -0.3416  0.5717 -0.0831
  150SAPE  H13X16673   4.424   2.358   9.047 -0.1227  0.6713  0.9591
  150SAPE  H13Y16674   4.316   2.216   9.057 -0.3508  0.5307  2.0546
  150SAPE  C31416675   4.498   2.184   8.940  0.0123  0.3363  0.1754
  150SAPE  H14X16676   4.454   2.082   8.937  4.9350 -2.1143  0.5921
  150SAPE  H14Y16677   4.606   2.164   8.956 -0.4450 -3.5558 -0.5325
  150SAPE  C31516678   4.493   2.260   8.802  0.1755 -0.0862  0.4605
  150SAPE  H15X16679   4.538   2.195   8.724 -0.3402  0.1904 -0.0740
  150SAPE  H15Y16680   4.564   2.344   8.806  2.7217 -2.1543  2.0889
  150SAPE  C31616681   4.354   2.296   8.749 -0.0927  0.3681 -0.0239
  150SAPE  H16X16682   4.319   2.363   8.830  2.0328 -1.7754  2.8348
  150SAPE  H16Y16683   4.287   2.208   8.752  0.0424  0.1652 -1.8911
  150SAPE  C31716684   4.347   2.349   8.604 -0.4055  0.0057 -0.2117
  150SAPE  H17X16685   4.244   2.388   8.590 -0.5968  0.6614  2.4122
  150SAPE  H17Y16686   4.366   2.263   8.537  1.1154  0.1450 -0.0009
  150SAPE  C31816687   4.441   2.467   8.582  0.1516 -0.1489 -0.5983
  150SAPE  H18X16688   4.453   2.523   8.676  1.6724 -0.5715 -0.5253
  150SAPE  H18Y16689   4.416   2.542   8.504 -0.7059 -0.8557 -1.0262
  150SAPE  H18Z16690   4.538   2.428   8.546  2.3688  2.0164  2.5274
  151SAPE     N16691   0.808   6.347  10.803  0.2186  0.3291 -0.0826
  151SAPE   HN116692   0.767   6.413  10.734  2.5182  2.1745  0.1927
  151SAPE   HN216693   0.842   6.403  10.884 -0.7651  0.1234  0.4786
  151SAPE   HN316694   0.895   6.320  10.752 -1.0579 -0.6835 -1.8138
  151SAPE   C1216695   0.719   6.231  10.833  0.4904 -0.0125 -0.0814
  151SAPE  H12A16696   0.637   6.275  10.894  0.6451  0.0572  0.0748
  151SAPE  H12B16697   0.771   6.153  10.893 -0.3425 -1.5668 -1.2823
  151SAPE   C1116698   0.664   6.175  10.694 -0.5200 -0.0206 -0.8832
  151SAPE  H11A16699   0.597   6.253  10.653 -0.8323  0.9326  1.3075
  151SAPE  H11B16700   0.597   6.088  10.715  0.5467 -0.3679  1.4008
  151SAPE     P16701   0.771   6.002  10.526  0.1354  0.4399 -0.0180
  151SAPE   O1316702   0.909   5.990  10.469  0.1548  0.9381 -0.4140
  151SAPE   O1416703   0.720   5.886  10.602  0.5676  0.2634 -0.5127
  151SAPE   O1216704   0.770   6.139  10.605  0.0635  0.1061  0.1197
  151SAPE   O1116705   0.664   6.030  10.411 -0.3125 -0.1973 -0.4838
  151SAPE    C116706   0.689   6.120  10.305 -0.7447 -0.1986 -0.4482
  151SAPE    HA16707   0.632   6.215  10.315  1.7877  1.4764 -1.1526
  151SAPE    HB16708   0.793   6.158  10.300 -1.4237  1.7378 -0.5994
  151SAPE    C216709   0.666   6.050  10.170  0.8221  0.3012  0.5605
  151SAPE    HS16710   0.711   6.113  10.091  1.5118 -0.7671  0.0786
  151SAPE   O2116711   0.526   6.031  10.152 -1.0288  0.1183 -0.5699
  151SAPE   C2116712   0.461   6.137  10.123 -0.3301  0.2302 -0.4929
  151SAPE   O2216713   0.511   6.252  10.119 -0.0182  0.0292  0.4262
  151SAPE   C2216714   0.315   6.118  10.103  0.2430 -0.1158 -0.2280
  151SAPE   H2R16715   0.270   6.120  10.204 -0.1608 -0.4198 -0.4007
  151SAPE   H2S16716   0.288   6.211  10.048 -1.3388  0.9542  2.1759
  151SAPE    C316717   0.738   5.913  10.163 -0.0389  0.2078  0.7206
  151SAPE    HX16718   0.684   5.843  10.229  0.4536  0.4251  1.3750
  151SAPE    HY16719   0.837   5.928  10.212  0.3176  2.5703 -0.5605
  151SAPE   O3116720   0.762   5.869  10.025 -0.1523 -0.6303  0.0655
  151SAPE   C3116721   0.869   5.921   9.966  0.6501  0.2170  0.2522
  151SAPE   O3216722   0.958   5.987  10.023 -0.2430  0.0735  0.6402
  151SAPE   C3216723   0.869   5.873   9.819 -0.3497 -0.6197 -0.3854
  151SAPE   H2X16724   0.763   5.863   9.790 -1.2760 -1.7669  2.9293
  151SAPE   H2Y16725   0.911   5.770   9.818  3.2601  0.5794  2.8584
  151SAPE   C2316726   0.273   5.982  10.038 -0.6259  0.0649 -0.4705
  151SAPE   H3R16727   0.162   5.981  10.045 -0.6644  1.7044 -0.2963
  151SAPE   H3S16728   0.312   5.891  10.087 -1.2532 -0.9258 -1.7420
  151SAPE   C2416729   0.303   5.978   9.884  0.5920  0.5648 -0.8323
  151SAPE   H4R16730   0.240   6.056   9.836 -1.6451 -0.3427  0.4833
  151SAPE   H4S16731   0.253   5.885   9.848 -1.0769  1.6364 -1.4050
  151SAPE   C2516732   0.444   5.972   9.851 -0.0592 -0.7631 -1.4134
  151SAPE   H5R16733   0.511   5.897   9.897  2.2264  0.4433 -2.6356
  151SAPE   C2616734   0.510   6.065   9.776  0.6050 -0.3810 -0.0200
  151SAPE   H6R16735   0.616   6.051   9.750  0.5203 -2.3234  0.5327
  151SAPE   C2716736   0.448   6.175   9.705  0.2378 -0.8404  0.4991
  151SAPE   H7R16737   0.361   6.143   9.644  0.1867 -2.2586  1.2757
  151SAPE   H7S16738   0.525   6.211   9.633 -1.4141  1.1336 -0.3835
  151SAPE   C2816739   0.415   6.292   9.799  0.2593  0.7638  0.1019
  151SAPE   H8R16740   0.486   6.315   9.880 -1.3416  1.1038  1.4642
  151SAPE   C2916741   0.310   6.373   9.798  0.0932 -0.2262 -0.1889
  151SAPE   H9R16742   0.302   6.454   9.873  1.5015 -1.7344  1.6922
  151SAPE  C21016743   0.211   6.374   9.679 -0.2700  0.6307 -0.8411
  151SAPE  H10R16744   0.104   6.393   9.704 -0.3986 -0.6218 -0.3664
  151SAPE  H10S16745   0.212   6.276   9.628  3.0385 -0.5550  1.2155
  151SAPE  C21116746   0.257   6.491   9.592 -0.3332  1.0659 -0.4822
  151SAPE  H11R16747   0.288   6.584   9.643  0.4816 -0.8500  2.8333
  151SAPE  C21216748   0.260   6.497   9.459 -0.3758  0.0267  0.0257
  151SAPE  H12R16749   0.301   6.584   9.405  1.2055 -1.7152 -1.6867
  151SAPE  C21316750   0.229   6.390   9.361  1.2044 -0.1857 -0.0227
  151SAPE  H13R16751   0.128   6.406   9.318  0.6431 -3.1838 -0.0123
  151SAPE  H13S16752   0.212   6.292   9.411 -0.8795  0.5301  0.7828
  151SAPE  C21416753   0.336   6.377   9.265 -0.0609  0.3725  0.4048
  151SAPE  H14R16754   0.435   6.350   9.305  1.5302  0.3716 -3.1377
  151SAPE  C21516755   0.324   6.390   9.135  0.0743  0.4573  0.0818
  151SAPE  H15R16756   0.412   6.393   9.070 -1.7805  0.7682 -2.6033
  151SAPE  C21616757   0.194   6.431   9.065  0.1145 -0.4858  0.3498
  151SAPE  H16R16758   0.169   6.537   9.083 -0.2857 -0.5223  0.0175
  151SAPE  H16S16759   0.103   6.385   9.109 -0.4842  0.6955  0.3767
  151SAPE  C21716760   0.188   6.410   8.914 -0.4089 -0.4153  0.3698
  151SAPE  H17R16761   0.087   6.387   8.873 -1.1474  1.7582  0.8532
  151SAPE  H17S16762   0.243   6.314   8.899  0.8357  0.1946  0.9081
  151SAPE  C21816763   0.259   6.520   8.837  0.6953 -0.6481  0.9142
  151SAPE  H18R16764   0.346   6.546   8.901 -0.4103 -0.4803  2.4177
  151SAPE  H18S16765   0.174   6.592   8.845  0.7980 -0.4376  0.1237
  151SAPE  C21916766   0.302   6.491   8.692  0.2982 -0.9055 -1.1129
  151SAPE  H19R16767   0.223   6.449   8.627  0.9869 -1.3213 -1.6966
  151SAPE  H19S16768   0.384   6.417   8.690  0.7975 -0.4255  0.1475
  151SAPE  C22016769   0.365   6.613   8.628  0.3695 -0.4384 -0.0471
  151SAPE  H20R16770   0.399   6.594   8.524 -3.9297  0.5595 -1.8759
  151SAPE  H20S16771   0.460   6.642   8.677  1.8972  0.6388 -3.3342
  151SAPE  H20T16772   0.308   6.708   8.627  1.8209  0.4886  1.0802
  151SAPE   C3316773   0.951   5.961   9.722  0.0297  0.4162  0.3507
  151SAPE   H3X16774   1.055   5.955   9.759  1.0720 -0.8294 -2.5087
  151SAPE   H3Y16775   0.917   6.066   9.725  0.1387  0.4493  0.4086
  151SAPE   C3416776   0.932   5.898   9.584  0.4665  0.9341  0.1733
  151SAPE   H4X16777   0.926   5.787   9.587  1.1546  0.9212  1.6578
  151SAPE   H4Y16778   1.028   5.909   9.529 -0.4203  0.1936 -1.6091
  151SAPE   C3516779   0.812   5.955   9.505 -0.1580 -0.3621 -0.0108
  151SAPE   H5X16780   0.721   5.922   9.560 -2.2458  3.6992 -0.6774
  151SAPE   H5Y16781   0.800   5.902   9.408  0.0371  0.3485 -0.4295
  151SAPE   C3616782   0.816   6.106   9.491 -0.5126 -0.2707 -0.7271
  151SAPE   H6X16783   0.922   6.137   9.474  0.0557 -0.8227  1.4961
  151SAPE   H6Y16784   0.780   6.155   9.584 -1.0754  0.4555 -1.3175
  151SAPE   C3716785   0.724   6.152   9.379 -0.0273  0.3091  0.6075
  151SAPE   H7X16786   0.664   6.243   9.402 -0.7407 -0.1321  0.5289
  151SAPE   H7Y16787   0.653   6.068   9.365  0.0797  0.5713 -1.9736
  151SAPE   C3816788   0.793   6.173   9.245  0.3392 -0.1241  0.5428
  151SAPE   H8X16789   0.843   6.078   9.219 -2.4225 -2.1784  2.2444
  151SAPE   H8Y16790   0.875   6.249   9.246 -0.6907  1.0180  0.9060
  151SAPE   C3916791   0.705   6.196   9.117 -0.9132 -0.2166 -0.1848
  151SAPE   H9X16792   0.772   6.155   9.038 -2.3515 -0.5983 -1.2401
  151SAPE   H9Y16793   0.674   6.302   9.104 -1.8729 -0.4596  0.0989
  151SAPE  C31016794   0.576   6.112   9.121  0.6544  0.2791  0.0922
  151SAPE  H10X16795   0.498   6.163   9.061  0.5049  1.3788  1.1812
  151SAPE  H10Y16796   0.534   6.098   9.223 -1.8172  1.1811 -0.7387
  151SAPE  C31116797   0.595   5.972   9.062  0.7936  0.3128 -0.0713
  151SAPE  H11X16798   0.509   5.909   9.094  0.0932  0.2863 -1.9096
  151SAPE  H11Y16799   0.691   5.933   9.103  0.0678 -0.3944  1.0013
  151SAPE  C31216800   0.581   5.968   8.914 -0.1505 -0.6889 -0.3618
  151SAPE  H12X16801   0.615   5.867   8.884 -0.4107 -2.0669  3.4311
  151SAPE  H12Y16802   0.660   6.036   8.875  0.0775 -1.3367 -1.0294
  151SAPE  C31316803   0.444   6.000   8.843 -0.1921 -0.6323 -0.5444
  151SAPE  H13X16804   0.416   6.105   8.865  1.5421 -0.0347 -1.0838
  151SAPE  H13Y16805   0.369   5.928   8.884 -0.6459 -1.7117 -3.0755
  151SAPE  C31416806   0.461   5.979   8.688 -0.5177  0.6183  0.0941
  151SAPE  H14X16807   0.359   5.965   8.646 -1.0051  1.7032  0.8594
  151SAPE  H14Y16808   0.505   5.878   8.675 -1.7800  0.2229 -1.3257
  151SAPE  C31516809   0.519   6.090   8.596  0.6605 -0.2917 -0.4475
  151SAPE  H15X16810   0.623   6.109   8.632  0.8645 -1.6961 -0.2507
  151SAPE  H15Y16811   0.461   6.183   8.617  0.4012 -0.7016  0.6962
  151SAPE  C31616812   0.513   6.056   8.456 -0.1902 -0.0571  0.3509
  151SAPE  H16X16813   0.414   6.085   8.413 -0.0600 -0.8070 -0.4860
  151SAPE  H16Y16814   0.514   5.946   8.439  0.2731  0.2180 -1.6505
  151SAPE  C31716815   0.625   6.121   8.364 -0.1917  0.6489 -0.5336
  151SAPE  H17X16816   0.623   6.226   8.399  0.7057  0.6622 -0.4983
  151SAPE  H17Y16817   0.592   6.099   8.260  1.6768 -2.5255 -0.6065
  151SAPE  C31816818   0.764   6.070   8.394 -0.3646  0.2037 -0.0373
  151SAPE  H18X16819   0.787   6.077   8.503  1.2901  1.6005 -0.4257
  151SAPE  H18Y16820   0.826   6.138   8.331 -2.2747  1.1493 -1.0063
  151SAPE  H18Z16821   0.767   5.966   8.358 -1.5119  0.2907 -0.4229
  152SAPE     N16822   1.320   0.247  11.077 -0.1611 -0.0368  0.0086
  152SAPE   HN116823   1.286   0.292  11.164  1.0664 -1.3601  1.2291
  152SAPE   HN216824   1.375   0.165  11.110  0.0254  0.0070 -0.1912
  152SAPE   HN316825   1.383   0.313  11.025 -0.4499 -0.6587 -1.1788
  152SAPE   C1216826   1.212   0.221  10.972 -0.0468 -0.2156 -0.0370
  152SAPE  H12A16827   1.138   0.150  11.014  0.5875 -0.4923  0.6532
  152SAPE  H12B16828   1.255   0.157  10.892  0.9916  0.7429 -0.2599
  152SAPE   C1116829   1.147   0.346  10.905  0.1080 -0.1901  0.4162
  152SAPE  H11A16830   1.084   0.383  10.988 -0.6013  1.0155 -0.6253
  152SAPE  H11B16831   1.080   0.316  10.822 -0.8977 -1.8252  1.7521
  152SAPE     P16832   1.307   0.450  10.730 -0.4642  0.1059  0.2093
  152SAPE   O1316833   1.407   0.555  10.729 -0.2148 -0.0223  0.6125
  152SAPE   O1416834   1.364   0.318  10.718  0.1894  0.1392  0.3568
  152SAPE   O1216835   1.234   0.451  10.867 -0.0917  0.0458  0.4929
  152SAPE   O1116836   1.197   0.475  10.619  0.2606 -0.8348  0.3684
  152SAPE    C116837   1.114   0.588  10.613 -0.9221 -0.1396  0.7770
  152SAPE    HA16838   1.007   0.556  10.614 -1.4785  1.5846  2.4246
  152SAPE    HB16839   1.125   0.653  10.703 -0.5238  0.4380  0.3176
  152SAPE    C216840   1.151   0.666  10.481  0.1080 -0.4318  0.5083
  152SAPE    HS16841   1.071   0.742  10.482  1.3498  0.9047  0.8377
  152SAPE   O2116842   1.151   0.574  10.368  0.4618 -0.8291 -0.4283
  152SAPE   C2116843   1.135   0.635  10.252  0.1396  0.1418 -0.0698
  152SAPE   O2216844   1.096   0.746  10.234  0.1200 -0.3758 -0.2364
  152SAPE   C2216845   1.169   0.547  10.135  0.1838 -0.0733  0.0136
  152SAPE   H2R16846   1.265   0.584  10.094 -0.7297  2.6370  0.0997
  152SAPE   H2S16847   1.173   0.441  10.170 -0.5862  0.6180  2.4393
  152SAPE    C316848   1.292   0.740  10.505  0.6839 -0.0109 -0.1128
  152SAPE    HX16849   1.363   0.655  10.520 -0.1672 -0.5178  1.3011
  152SAPE    HY16850   1.301   0.790  10.604 -0.5804 -0.1202  0.0691
  152SAPE   O3116851   1.338   0.818  10.401 -0.2035  0.4824  0.4809
  152SAPE   C3116852   1.292   0.945  10.402 -0.1662 -1.0765 -0.4672
  152SAPE   O3216853   1.227   0.988  10.494 -0.0273 -0.4178  0.1496
  152SAPE   C3216854   1.317   1.017  10.273  0.2099  0.3498  0.8365
  152SAPE   H2X16855   1.302   1.127  10.279  0.8786  0.3482  3.2842
  152SAPE   H2Y16856   1.247   0.974  10.197  0.8771 -1.6836  1.2973
  152SAPE   C2316857   1.069   0.575  10.015 -0.0918  0.1617  0.6376
  152SAPE   H3R16858   1.087   0.678   9.978 -2.1993  0.7518  1.1368
  152SAPE   H3S16859   0.965   0.554  10.045  0.4000 -3.1416  0.4315
  152SAPE   C2416860   1.083   0.479   9.899  0.0348  0.0030 -0.5903
  152SAPE   H4R16861   0.995   0.482   9.832 -0.3789 -1.5824 -0.1618
  152SAPE   H4S16862   1.085   0.376   9.941  0.1337 -1.0326 -2.9486
  152SAPE   C2516863   1.216   0.491   9.817  0.8392 -0.0431 -0.5965
  152SAPE   H5R16864   1.289   0.409   9.825  0.7618 -0.2018 -1.4176
  152SAPE   C2616865   1.244   0.582   9.728  0.2237  0.9813  1.1989
  152SAPE   H6R16866   1.345   0.581   9.684 -0.1602 -1.0820  0.2265
  152SAPE   C2716867   1.159   0.697   9.676  0.4609  0.7554 -0.0060
  152SAPE   H7R16868   1.072   0.697   9.745  0.6148 -3.2923  0.4578
  152SAPE   H7S16869   1.119   0.678   9.574  0.9482 -2.2581  0.2548
  152SAPE   C2816870   1.243   0.815   9.678  0.5824  0.2190 -0.0825
  152SAPE   H8R16871   1.263   0.853   9.780 -1.1425 -1.6193  1.0129
  152SAPE   C2916872   1.294   0.879   9.569  0.0557 -0.2823  0.8572
  152SAPE   H9R16873   1.348   0.975   9.568 -0.9905  0.4133 -2.4824
  152SAPE  C21016874   1.264   0.838   9.425  1.0298 -0.6359  0.6766
  152SAPE  H10R16875   1.294   0.925   9.363 -0.3853 -1.4303 -1.2327
  152SAPE  H10S16876   1.155   0.820   9.410  0.6335  2.4896 -1.1759
  152SAPE  C21116877   1.330   0.711   9.371  0.5405  0.5040  0.1914
  152SAPE  H11R16878   1.266   0.622   9.384  0.5486  0.9007  3.9731
  152SAPE  C21216879   1.457   0.690   9.323  0.1692 -0.2455 -0.7852
  152SAPE  H12R16880   1.489   0.586   9.310  2.2167  0.0739  1.0434
  152SAPE  C21316881   1.556   0.800   9.321 -0.0094 -0.0943 -0.5882
  152SAPE  H13R16882   1.645   0.768   9.378 -0.5079 -0.3754  0.0474
  152SAPE  H13S16883   1.509   0.893   9.361 -0.3298  0.3515 -1.9382
  152SAPE  C21416884   1.603   0.843   9.183 -0.0475  0.0515  1.3739
  152SAPE  H14R16885   1.535   0.888   9.109  0.9836 -1.5712 -0.6913
  152SAPE  C21516886   1.719   0.808   9.123 -0.3663 -0.3743 -0.3790
  152SAPE  H15R16887   1.749   0.839   9.022  1.6417  0.2983  0.3862
  152SAPE  C21616888   1.824   0.719   9.190 -0.6593  0.1815 -0.5569
  152SAPE  H16R16889   1.838   0.744   9.297  0.9737  0.5387 -0.8282
  152SAPE  H16S16890   1.922   0.739   9.141  0.1413  1.2505  1.3863
  152SAPE  C21716891   1.801   0.570   9.159  0.0512  0.3905  0.2200
  152SAPE  H17R16892   1.817   0.569   9.049 -0.0187 -1.0727  0.2110
  152SAPE  H17S16893   1.698   0.540   9.188  0.1145 -2.4971 -2.1390
  152SAPE  C21816894   1.885   0.458   9.237  0.2096 -0.6941  0.6694
  152SAPE  H18R16895   1.993   0.476   9.220  0.3056 -1.1454  0.7997
  152SAPE  H18S16896   1.854   0.360   9.194 -1.2158 -0.9300  2.1246
  152SAPE  C21916897   1.866   0.446   9.386  0.0444 -0.0405 -0.0841
  152SAPE  H19R16898   1.882   0.338   9.404  1.1082  0.0329 -0.5324
  152SAPE  H19S16899   1.763   0.477   9.415  0.8708  0.2734  2.8539
  152SAPE  C22016900   1.966   0.510   9.482 -0.1528  0.8173 -0.3288
  152SAPE  H20R16901   1.934   0.484   9.585 -1.5388 -2.7717 -1.5411
  152SAPE  H20S16902   1.980   0.621   9.481 -0.3832  0.8677  0.9900
  152SAPE  H20T16903   2.066   0.463   9.468 -0.8752 -0.7397 -0.4273
  152SAPE   C3316904   1.466   0.997  10.223  0.1655 -0.3834 -0.2838
  152SAPE   H3X16905   1.490   0.890  10.205 -1.2212 -1.3669  2.8963
  152SAPE   H3Y16906   1.526   1.031  10.311 -1.8472 -0.8147  1.3359
  152SAPE   C3416907   1.507   1.095  10.113 -1.0686 -0.3839 -0.0211
  152SAPE   H4X16908   1.609   1.066  10.080 -0.7078  1.5287 -0.7214
  152SAPE   H4Y16909   1.528   1.200  10.143  1.4429  0.0987 -2.9954
  152SAPE   C3516910   1.406   1.104  10.001 -0.7397  0.0217 -0.2890
  152SAPE   H5X16911   1.314   1.152  10.040  0.4942  0.3438  2.4353
  152SAPE   H5Y16912   1.373   1.006   9.959 -2.2514  0.5902 -0.4779
  152SAPE   C3616913   1.470   1.189   9.891  0.4025 -0.1099  0.1122
  152SAPE   H6X16914   1.535   1.118   9.836 -0.1942 -0.1720 -0.5245
  152SAPE   H6Y16915   1.519   1.282   9.926  0.7834 -0.4009  0.3544
  152SAPE   C3716916   1.358   1.232   9.794  0.5615  0.1341  0.3401
  152SAPE   H7X16917   1.280   1.285   9.854  0.1539  0.5806 -0.5750
  152SAPE   H7Y16918   1.292   1.149   9.762 -0.5726  1.0520  0.2578
  152SAPE   C3816919   1.411   1.333   9.685  0.7105 -0.3848 -0.0434
  152SAPE   H8X16920   1.484   1.284   9.618  2.5142  4.0552 -1.7415
  152SAPE   H8Y16921   1.467   1.415   9.736 -2.1569  1.6632  0.0620
  152SAPE   C3916922   1.306   1.388   9.592 -0.2623  0.4827  1.0235
  152SAPE   H9X16923   1.252   1.464   9.652 -1.5650 -1.7511  2.8205
  152SAPE   H9Y16924   1.233   1.306   9.576  1.5635 -0.8247 -1.4387
  152SAPE  C31016925   1.343   1.442   9.451  0.6004 -0.4020  0.4500
  152SAPE  H10X16926   1.438   1.499   9.443 -1.0630  2.5530  0.3416
  152SAPE  H10Y16927   1.256   1.501   9.417 -1.8328 -2.1480  3.1582
  152SAPE  C31116928   1.354   1.325   9.354 -0.0914 -0.0098  0.0890
  152SAPE  H11X16929   1.266   1.262   9.379 -0.2836  0.2718  0.1305
  152SAPE  H11Y16930   1.440   1.257   9.368 -0.3269 -0.4529 -0.6039
  152SAPE  C31216931   1.340   1.374   9.205  0.4157  0.4525 -0.0767
  152SAPE  H12X16932   1.431   1.430   9.177  1.4465 -0.8298  0.6146
  152SAPE  H12Y16933   1.243   1.427   9.192  0.8898  1.0015 -1.5889
  152SAPE  C31316934   1.338   1.258   9.104  0.3391  0.8445  0.2142
  152SAPE  H13X16935   1.246   1.198   9.125  0.7871 -0.0215 -0.2356
  152SAPE  H13Y16936   1.430   1.198   9.124  0.3717  1.9674  4.6587
  152SAPE  C31416937   1.323   1.315   8.964  0.0101 -0.3536  0.1995
  152SAPE  H14X16938   1.401   1.394   8.962  2.4757 -2.5817  1.3106
  152SAPE  H14Y16939   1.220   1.352   8.946  0.2794 -0.4500 -1.7524
  152SAPE  C31516940   1.348   1.213   8.852  0.6750 -0.3290  0.3558
  152SAPE  H15X16941   1.299   1.115   8.871  1.9454 -0.9466  0.5476
  152SAPE  H15Y16942   1.457   1.196   8.844  0.7454  0.9366 -2.5953
  152SAPE  C31616943   1.303   1.274   8.718 -0.1765  0.1924 -0.3191
  152SAPE  H16X16944   1.364   1.367   8.719  2.0214 -1.1231 -2.2713
  152SAPE  H16Y16945   1.196   1.305   8.718  0.0969  1.1664 -0.0859
  152SAPE  C31716946   1.355   1.187   8.598  1.5207  0.5479 -0.0367
  152SAPE  H17X16947   1.456   1.152   8.630  0.9702 -0.0432  1.1367
  152SAPE  H17Y16948   1.377   1.253   8.512  1.6297  2.3285  1.2901
  152SAPE  C31816949   1.252   1.078   8.564  0.2964  0.7875 -0.1735
  152SAPE  H18X16950   1.293   1.018   8.480 -1.5923 -2.6865  1.2164
  152SAPE  H18Y16951   1.152   1.121   8.541 -0.3220  0.1846  1.2873
  152SAPE  H18Z16952   1.240   1.013   8.653 -2.7372  1.0037 -0.3455
  153SAPE     N16953   2.949   1.232  10.830 -0.2222 -0.3535  0.2303
  153SAPE   HN116954   2.969   1.333  10.847 -0.8606 -0.0914 -0.5021
  153SAPE   HN216955   2.885   1.189  10.899 -1.6127  0.4664 -0.4924
  153SAPE   HN316956   3.034   1.174  10.823  0.2315  0.2162  0.9253
  153SAPE   C1216957   2.873   1.227  10.698  0.2960 -0.1249  0.0485
  153SAPE  H12A16958   2.839   1.121  10.689  2.5602 -0.9817  0.8218
  153SAPE  H12B16959   2.957   1.234  10.625 -0.1320 -2.0784 -0.6922
  153SAPE   C1116960   2.765   1.329  10.664  0.2716 -1.3116 -0.6391
  153SAPE  H11A16961   2.676   1.299  10.724  0.4307  0.6835  0.6666
  153SAPE  H11B16962   2.750   1.319  10.554 -1.1696  1.3522 -0.7657
  153SAPE     P16963   2.724   1.570  10.743  0.5650  0.2499 -0.6897
  153SAPE   O1316964   2.586   1.515  10.775 -0.0399 -0.2986  0.2254
  153SAPE   O1416965   2.797   1.640  10.845  0.5582 -0.2691 -0.1345
  153SAPE   O1216966   2.822   1.456  10.700 -0.2098 -0.1278 -0.1431
  153SAPE   O1116967   2.709   1.669  10.624  0.4833 -0.1512  0.2835
  153SAPE    C116968   2.819   1.684  10.534  0.0968  0.7612 -0.0779
  153SAPE    HA16969   2.909   1.632  10.572  0.7823  3.3246  2.0934
  153SAPE    HB16970   2.782   1.635  10.441 -2.7006 -0.4650  1.5618
  153SAPE    C216971   2.851   1.835  10.527  0.3526  0.0181 -0.2018
  153SAPE    HS16972   2.842   1.878  10.629  0.2802 -0.7691  0.1320
  153SAPE   O2116973   2.754   1.898  10.450  0.4994 -0.3589  0.1561
  153SAPE   C2116974   2.758   2.038  10.468  0.0135  0.4749  0.8300
  153SAPE   O2216975   2.826   2.092  10.547 -0.0034  0.0189  0.3452
  153SAPE   C2216976   2.663   2.094  10.363 -0.0200 -0.4484  0.1327
  153SAPE   H2R16977   2.705   2.090  10.260 -0.6836 -1.5354 -0.1149
  153SAPE   H2S16978   2.566   2.041  10.361  1.0354 -2.5031 -0.2744
  153SAPE    C316979   2.991   1.843  10.462 -0.2090 -0.4577 -0.0804
  153SAPE    HX16980   3.061   1.768  10.504 -2.0033 -2.7836 -1.0336
  153SAPE    HY16981   3.030   1.947  10.477 -2.1061  0.2771  0.0426
  153SAPE   O3116982   2.979   1.808  10.321 -0.5255  0.0239  0.1484
  153SAPE   C3116983   2.988   1.919  10.241 -0.1323 -0.2013  0.6720
  153SAPE   O3216984   2.996   2.033  10.273 -0.0155 -0.3043  0.0032
  153SAPE   C3216985   2.989   1.870  10.094  0.3992  0.2095 -0.9269
  153SAPE   H2X16986   3.036   1.770  10.086  0.9499 -0.3050  4.8466
  153SAPE   H2Y16987   3.044   1.945  10.033  0.6573  0.2647 -0.6294
  153SAPE   C2316988   2.631   2.245  10.379  0.4742 -0.0131 -0.1534
  153SAPE   H3R16989   2.590   2.299  10.291 -0.5804  2.2794  1.6511
  153SAPE   H3S16990   2.726   2.300  10.398  0.7726  0.0160 -1.5796
  153SAPE   C2416991   2.527   2.257  10.481  0.3421 -0.4935  0.7470
  153SAPE   H4R16992   2.561   2.205  10.573  0.1558  2.6626  2.7128
  153SAPE   H4S16993   2.431   2.211  10.446 -0.8730  2.7833 -0.6109
  153SAPE   C2516994   2.496   2.401  10.524  0.2774 -0.4912 -0.5078
  153SAPE   H5R16995   2.557   2.444  10.604 -0.3436 -0.2707 -0.1460
  153SAPE   C2616996   2.377   2.462  10.502  0.7807 -0.2653  0.0227
  153SAPE   H6R16997   2.369   2.566  10.538 -1.4241 -0.1635 -0.6068
  153SAPE   C2716998   2.253   2.417  10.425  0.3764  0.3547  0.8436
  153SAPE   H7R16999   2.221   2.314  10.454  1.2091  0.5676  2.6638
  153SAPE   H7S17000   2.284   2.409  10.319 -2.9399 -0.8233 -0.1704
  153SAPE   C2817001   2.136   2.515  10.430  0.0422 -0.3417 -0.7338
  153SAPE   H8R17002   2.059   2.483  10.501  1.3611 -3.1951 -0.4692
  153SAPE   C2917003   2.112   2.628  10.349 -0.7707 -0.4790 -0.6492
  153SAPE   H9R17004   2.019   2.686  10.353  0.0280  0.7591  1.8294
  153SAPE  C21017005   2.215   2.664  10.248  0.4386  0.7148 -0.6302
  153SAPE  H10R17006   2.161   2.707  10.161 -0.5726  0.2704 -0.2305
  153SAPE  H10S17007   2.271   2.577  10.208 -1.2606 -0.6143 -0.2162
  153SAPE  C21117008   2.305   2.767  10.297 -0.4722 -0.5274  0.2043
  153SAPE  H11R17009   2.274   2.810  10.394 -1.7157 -1.2986  0.1671
  153SAPE  C21217010   2.418   2.816  10.249 -0.3020  0.1142  0.2967
  153SAPE  H12R17011   2.462   2.907  10.293  1.3324 -0.8603  0.7537
  153SAPE  C21317012   2.490   2.769  10.121  0.3511 -0.7830 -0.0519
  153SAPE  H13R17013   2.517   2.862  10.067  0.2661  1.0023  2.7825
  153SAPE  H13S17014   2.424   2.712  10.052  0.0645 -2.1126  1.2519
  153SAPE  C21417015   2.607   2.676  10.153 -0.6841  0.2574 -0.4196
  153SAPE  H14R17016   2.592   2.600  10.232 -0.2107  0.4961 -0.0928
  153SAPE  C21517017   2.732   2.675  10.099  0.1931 -1.1481  0.0498
  153SAPE  H15R17018   2.809   2.608  10.140  1.0122 -0.3342 -0.1269
  153SAPE  C21617019   2.770   2.775   9.996  0.5901  0.4465 -0.3171
  153SAPE  H16R17020   2.880   2.777   9.986  0.4530 -0.4920 -2.7383
  153SAPE  H16S17021   2.747   2.877  10.033 -1.2493  0.0028 -0.0959
  153SAPE  C21717022   2.709   2.735   9.861  0.1195 -0.4901  0.5902
  153SAPE  H17R17023   2.598   2.739   9.864  0.1265  0.9270 -0.3507
  153SAPE  H17S17024   2.736   2.629   9.839 -0.3917 -0.3531 -0.8107
  153SAPE  C21817025   2.758   2.808   9.739 -0.9473  0.3344 -0.4732
  153SAPE  H18R17026   2.849   2.869   9.762 -0.8421 -0.0128  0.0414
  153SAPE  H18S17027   2.677   2.871   9.697 -1.0498  0.0111 -0.7608
  153SAPE  C21917028   2.784   2.711   9.627  0.0499  0.3673  0.2184
  153SAPE  H19R17029   2.693   2.656   9.596  2.1046 -2.3502 -1.4381
  153SAPE  H19S17030   2.853   2.626   9.646  1.9365  2.0681  1.3990
  153SAPE  C22017031   2.813   2.792   9.501  0.6973  0.0860 -0.9477
  153SAPE  H20R17032   2.736   2.865   9.466 -0.4403 -0.8325 -0.4177
  153SAPE  H20S17033   2.824   2.722   9.416 -0.1647 -0.0874 -0.9257
  153SAPE  H20T17034   2.910   2.842   9.526  1.0023 -1.4173  1.1647
  153SAPE   C3317035   2.848   1.851  10.024 -0.1922 -0.2948 -0.4354
  153SAPE   H3X17036   2.780   1.938  10.037 -1.2287 -0.9427 -1.4461
  153SAPE   H3Y17037   2.792   1.767  10.069 -2.9679  1.2564 -0.7951
  153SAPE   C3417038   2.872   1.804   9.874  0.3030 -0.2766  0.4612
  153SAPE   H4X17039   2.944   1.720   9.867 -1.2081 -1.5336 -0.6962
  153SAPE   H4Y17040   2.919   1.890   9.821 -2.0918  1.7848  1.4191
  153SAPE   C3517041   2.746   1.765   9.802 -0.1720 -0.2769  0.0246
  153SAPE   H5X17042   2.697   1.857   9.762  1.0385  1.0444  1.4411
  153SAPE   H5Y17043   2.675   1.708   9.866  0.3453  0.3285  1.1682
  153SAPE   C3617044   2.765   1.668   9.679  0.1604 -0.1893  0.6884
  153SAPE   H6X17045   2.796   1.569   9.720 -2.0819 -0.5953  1.5381
  153SAPE   H6Y17046   2.850   1.711   9.622  0.9891 -0.7291  1.5053
  153SAPE   C3717047   2.635   1.673   9.587  0.2571  0.4934 -0.9802
  153SAPE   H7X17048   2.563   1.602   9.634  2.6422  0.0725  2.4045
  153SAPE   H7Y17049   2.664   1.615   9.496  1.6993 -0.1156 -0.1590
  153SAPE   C3817050   2.575   1.811   9.553 -0.3617  0.3532 -0.5284
  153SAPE   H8X17051   2.652   1.891   9.546 -1.0362  0.9464 -1.4772
  153SAPE   H8Y17052   2.514   1.842   9.640 -0.8139 -1.3185 -0.2246
  153SAPE   C3917053   2.490   1.820   9.425  0.0066  0.0091 -0.5035
  153SAPE   H9X17054   2.550   1.780   9.341  1.2753 -0.7524  0.7357
  153SAPE   H9Y17055   2.462   1.925   9.401 -1.0207 -0.1767 -0.1965
  153SAPE  C31017056   2.358   1.737   9.431 -0.5210  0.0715 -0.2091
  153SAPE  H10X17057   2.282   1.774   9.504 -1.3380  0.0264 -1.0146
  153SAPE  H10Y17058   2.376   1.632   9.464 -2.9584  0.3072  2.2315
  153SAPE  C31117059   2.285   1.735   9.297  0.3568  0.4962  0.5121
  153SAPE  H11X17060   2.178   1.708   9.312  0.0113  0.3885 -1.7682
  153SAPE  H11Y17061   2.336   1.655   9.240 -0.5642 -1.0072  1.7485
  153SAPE  C31217062   2.278   1.867   9.213 -0.0457 -0.8004 -0.7567
  153SAPE  H12X17063   2.372   1.895   9.161 -0.4961 -0.2509 -1.3025
  153SAPE  H12Y17064   2.266   1.954   9.281  2.1296 -0.4566 -0.7548
  153SAPE  C31317065   2.159   1.880   9.115 -0.2250 -0.3545 -0.0416
  153SAPE  H13X17066   2.157   1.984   9.077  0.6174 -0.5778 -0.7267
  153SAPE  H13Y17067   2.070   1.866   9.180 -0.3042  2.0543  0.4486
  153SAPE  C31417068   2.162   1.785   8.994 -0.1018 -0.7522  0.5236
  153SAPE  H14X17069   2.134   1.690   9.045 -2.3043 -0.8246 -0.7260
  153SAPE  H14Y17070   2.256   1.773   8.936  0.2002  1.6970  0.4148
  153SAPE  C31517071   2.049   1.817   8.896 -0.3392 -0.3391 -0.0689
  153SAPE  H15X17072   2.093   1.880   8.815 -1.3547  1.1296  0.4773
  153SAPE  H15Y17073   1.964   1.872   8.943 -1.1283 -1.4891 -0.1237
  153SAPE  C31617074   1.983   1.696   8.840  0.6528  0.8903 -0.2032
  153SAPE  H16X17075   1.912   1.654   8.915 -0.4298  0.8689 -1.1949
  153SAPE  H16Y17076   2.063   1.623   8.815  0.0737 -0.8904  2.6432
  153SAPE  C31717077   1.897   1.719   8.716  0.0082  0.4882 -0.4549
  153SAPE  H17X17078   1.827   1.632   8.714  2.5038 -1.6437 -0.9997
  153SAPE  H17Y17079   1.964   1.710   8.628  0.3770  0.7763 -0.2051
  153SAPE  C31817080   1.831   1.857   8.700  0.6855 -0.0241 -0.6988
  153SAPE  H18X17081   1.775   1.899   8.786  0.2119  0.2651 -1.1434
  153SAPE  H18Y17082   1.751   1.848   8.624 -0.0759 -0.7761  0.1724
  153SAPE  H18Z17083   1.903   1.934   8.666 -0.2280  0.1713 -2.2670
  154SAPE     N17084   2.123   5.850  10.364 -0.3620 -0.6136  0.0181
  154SAPE   HN117085   2.148   5.751  10.382  0.2010 -0.2955  1.0734
  154SAPE   HN217086   2.070   5.887  10.446 -1.8758  0.8494 -1.5328
  154SAPE   HN317087   2.059   5.854  10.282 -1.9165 -1.8959  1.0892
  154SAPE   C1217088   2.243   5.939  10.327 -0.0664  0.2299 -0.6087
  154SAPE  H12A17089   2.214   6.046  10.324 -1.6536 -0.1983 -1.9817
  154SAPE  H12B17090   2.294   5.908  10.233  1.0191  0.5123 -0.1256
  154SAPE   C1117091   2.361   5.935  10.430 -0.2840 -0.2959 -0.9118
  154SAPE  H11A17092   2.435   6.010  10.395 -1.1633  1.5144  0.8640
  154SAPE  H11B17093   2.395   5.830  10.421  1.6459  0.3973 -2.4195
  154SAPE     P17094   2.369   6.059  10.669  0.3077  0.0415 -0.1263
  154SAPE   O1317095   2.262   6.111  10.755  0.9732 -0.0290  0.8451
  154SAPE   O1417096   2.482   5.991  10.740  0.8882 -0.4662  0.0422
  154SAPE   O1217097   2.309   5.959  10.561  0.0830 -0.9144  0.3581
  154SAPE   O1117098   2.425   6.173  10.581 -0.3246  0.3049  0.3916
  154SAPE    C117099   2.357   6.289  10.541  0.1987 -0.2698 -0.5109
  154SAPE    HA17100   2.248   6.270  10.527 -0.3636  0.4703  2.3136
  154SAPE    HB17101   2.367   6.365  10.621 -2.7705 -0.8273  0.5339
  154SAPE    C217102   2.410   6.350  10.410  0.4565  0.1139  0.4895
  154SAPE    HS17103   2.438   6.261  10.350 -1.8045 -1.7077  1.9738
  154SAPE   O2117104   2.521   6.437  10.443 -0.5525 -0.0888 -0.3032
  154SAPE   C2117105   2.610   6.446  10.351 -0.4623 -0.2710  0.1369
  154SAPE   O2217106   2.605   6.394  10.239  0.2436  0.0144 -0.6474
  154SAPE   C2217107   2.707   6.552  10.394  0.4614 -0.1012  0.0748
  154SAPE   H2R17108   2.646   6.644  10.398 -0.4988 -0.7695  2.0451
  154SAPE   H2S17109   2.740   6.540  10.499 -1.1776  3.6714  1.1639
  154SAPE    C317110   2.284   6.421  10.334 -0.1789 -0.2570  0.3012
  154SAPE    HX17111   2.276   6.518  10.388 -1.6354 -0.4944  0.5413
  154SAPE    HY17112   2.187   6.370  10.349 -0.0764 -0.6542 -0.3416
  154SAPE   O3117113   2.309   6.454  10.193 -0.3020  0.7366  0.6445
  154SAPE   C3117114   2.315   6.349  10.119 -0.0847 -0.1596 -0.9907
  154SAPE   O3217115   2.277   6.236  10.157 -0.3314  0.1529  0.5071
  154SAPE   C3217116   2.365   6.374   9.975  0.5373 -0.2944 -0.4321
  154SAPE   H2X17117   2.415   6.473   9.970 -1.1401  0.5593 -3.7937
  154SAPE   H2Y17118   2.274   6.369   9.911  0.7668  3.3131 -1.2629
  154SAPE   C2317119   2.822   6.572  10.288 -0.9772  0.4360 -0.7064
  154SAPE   H3R17120   2.862   6.471  10.265 -2.5245 -0.5373  0.6527
  154SAPE   H3S17121   2.901   6.627  10.344 -0.7944 -0.8325  0.3330
  154SAPE   C2417122   2.790   6.655  10.162  0.3361 -0.0082  0.0837
  154SAPE   H4R17123   2.737   6.750  10.182  0.5689  0.1324  0.0369
  154SAPE   H4S17124   2.714   6.598  10.106  1.7166 -1.7941 -0.0881
  154SAPE   C2517125   2.920   6.685  10.096 -0.1080  0.1717 -0.6720
  154SAPE   H5R17126   2.996   6.745  10.147 -0.6706  0.7191 -0.4668
  154SAPE   C2617127   2.947   6.653   9.969  0.9093  0.4189 -0.3302
  154SAPE   H6R17128   3.052   6.663   9.940  0.9938 -0.6710 -0.4288
  154SAPE   C2717129   2.857   6.588   9.868  0.3586  0.1309 -0.2670
  154SAPE   H7R17130   2.821   6.670   9.803  1.3540  0.3718 -0.5388
  154SAPE   H7S17131   2.764   6.551   9.917  0.2948 -0.6232 -0.9353
  154SAPE   C2817132   2.917   6.474   9.802  0.0475  0.0473  0.1548
  154SAPE   H8R17133   2.966   6.397   9.863  1.0000  0.2568 -0.3433
  154SAPE   C2917134   2.917   6.458   9.670 -0.1599  0.1653  0.1781
  154SAPE   H9R17135   2.954   6.364   9.628  1.3970  0.8988 -0.1867
  154SAPE  C21017136   2.855   6.543   9.561 -0.4428 -0.2262  0.1813
  154SAPE  H10R17137   2.913   6.636   9.546 -4.0209  2.5872  2.1178
  154SAPE  H10S17138   2.757   6.585   9.594 -0.5688  0.0126 -0.4703
  154SAPE  C21117139   2.848   6.484   9.425 -0.7239  0.1822  0.3461
  154SAPE  H11R17140   2.876   6.378   9.415 -2.2176 -0.1528 -0.6113
  154SAPE  C21217141   2.796   6.537   9.314  0.7086 -1.0659 -0.0188
  154SAPE  H12R17142   2.792   6.473   9.225 -1.2441 -0.0999 -0.6906
  154SAPE  C21317143   2.736   6.679   9.296 -0.7200  0.0340  0.1552
  154SAPE  H13R17144   2.818   6.728   9.239  0.1018  0.9899  2.0670
  154SAPE  H13S17145   2.730   6.724   9.397 -0.7334 -0.4597  0.3767
  154SAPE  C21417146   2.603   6.687   9.224  0.3416 -0.7653  0.5336
  154SAPE  H14R17147   2.528   6.618   9.265 -0.0585  0.1150  1.3104
  154SAPE  C21517148   2.565   6.766   9.121 -0.6530  0.2005  0.4538
  154SAPE  H15R17149   2.465   6.753   9.078 -0.9253  0.2585  1.0577
  154SAPE  C21617150   2.654   6.863   9.054 -0.3091 -0.0479 -0.2561
  154SAPE  H16R17151   2.729   6.904   9.125 -1.0166  0.9957 -0.0808
  154SAPE  H16S17152   2.592   6.945   9.012 -0.6735 -1.0015 -1.6803
  154SAPE  C21717153   2.733   6.792   8.948  0.3339  0.4303  0.3520
  154SAPE  H17R17154   2.655   6.759   8.876 -1.6494  1.4846  1.9446
  154SAPE  H17S17155   2.801   6.710   8.983  1.5424  0.7147 -1.1899
  154SAPE  C21817156   2.825   6.885   8.873 -0.0557 -0.1324  0.0082
  154SAPE  H18R17157   2.766   6.975   8.846  0.2547  0.9317  2.6022
  154SAPE  H18S17158   2.872   6.846   8.780  1.9434  1.7718  0.1147
  154SAPE  C21917159   2.936   6.946   8.959  0.0854 -0.2397 -0.3378
  154SAPE  H19R17160   3.011   6.867   8.979  1.8666  0.6838 -2.7788
  154SAPE  H19S17161   2.905   6.972   9.062  0.8445  1.2203 -0.4468
  154SAPE  C22017162   3.011   7.062   8.902  0.0598 -0.1143 -0.4908
  154SAPE  H20R17163   3.064   7.046   8.806  0.1227  1.8352 -0.8241
  154SAPE  H20S17164   3.079   7.104   8.980 -0.7411  1.4737 -0.5832
  154SAPE  H20T17165   2.937   7.143   8.881 -0.9477 -0.7799  0.3574
  154SAPE   C3317166   2.463   6.268   9.912 -0.5875 -0.2365 -0.8133
  154SAPE   H3X17167   2.434   6.161   9.925  1.7052 -0.6939  1.3941
  154SAPE   H3Y17168   2.553   6.281   9.976 -0.6899  0.7001 -0.8571
  154SAPE   C3417169   2.509   6.291   9.766 -0.2122  0.1058  0.2121
  154SAPE   H4X17170   2.550   6.394   9.762 -1.1736  0.4919  0.1442
  154SAPE   H4Y17171   2.432   6.297   9.687  2.9046  1.0588 -3.0505
  154SAPE   C3517172   2.616   6.189   9.724  0.1630 -0.4121  0.2086
  154SAPE   H5X17173   2.580   6.087   9.751 -0.4409 -0.1030  0.6051
  154SAPE   H5Y17174   2.707   6.224   9.777  0.8799  0.9046 -1.7779
  154SAPE   C3617175   2.635   6.186   9.572 -0.3771  0.1482 -0.1206
  154SAPE   H6X17176   2.744   6.173   9.552  0.6929  0.9843  4.0708
  154SAPE   H6Y17177   2.630   6.293   9.541  3.9202  1.2752  2.1766
  154SAPE   C3717178   2.546   6.105   9.478  0.0554  0.2522 -0.0639
  154SAPE   H7X17179   2.440   6.132   9.495 -0.2496 -1.2124  0.5417
  154SAPE   H7Y17180   2.558   5.997   9.503 -0.6299  0.3573  0.7627
  154SAPE   C3817181   2.595   6.114   9.330  0.4862 -0.3918 -0.0577
  154SAPE   H8X17182   2.694   6.068   9.314  0.8112  0.2673  0.0324
  154SAPE   H8Y17183   2.622   6.221   9.315  1.1463 -0.7402 -1.4975
  154SAPE   C3917184   2.495   6.047   9.231 -0.5487 -0.3559 -0.3402
  154SAPE   H9X17185   2.489   5.940   9.261  4.5305 -0.4385  1.5327
  154SAPE   H9Y17186   2.540   6.065   9.131  1.4955  1.3537  0.7821
  154SAPE  C31017187   2.352   6.108   9.215 -0.3261 -0.2686  0.4440
  154SAPE  H10X17188   2.367   6.219   9.214  1.5812 -0.4709 -1.2555
  154SAPE  H10Y17189   2.298   6.081   9.308 -1.0068  0.2890  0.2252
  154SAPE  C31117190   2.286   6.059   9.095 -0.1181  0.2518  0.4537
  154SAPE  H11X17191   2.246   5.958   9.120 -1.3143  1.3445  3.3565
  154SAPE  H11Y17192   2.353   6.052   9.006 -2.1948  2.2800 -1.3957
  154SAPE  C31217193   2.164   6.142   9.058  0.2740  0.3641 -0.7189
  154SAPE  H12X17194   2.191   6.250   9.050  2.1450  0.0284  0.4700
  154SAPE  H12Y17195   2.100   6.137   9.148  0.8902 -1.8216 -0.3530
  154SAPE  C31317196   2.100   6.095   8.930 -0.0939  0.0438  0.4439
  154SAPE  H13X17197   2.179   6.096   8.852 -0.7112  0.1981 -0.1872
  154SAPE  H13Y17198   2.026   6.166   8.887  2.2562  0.3430 -3.6821
  154SAPE  C31417199   2.031   5.951   8.935 -0.2118 -0.9741  0.0208
  154SAPE  H14X17200   1.972   5.939   9.028 -0.6881 -1.2781 -0.3162
  154SAPE  H14Y17201   2.108   5.871   8.936  0.2378 -0.6498 -2.1267
  154SAPE  C31517202   1.941   5.932   8.820  0.7062  0.4391  0.2692
  154SAPE  H15X17203   1.861   6.008   8.837 -2.2619 -2.1640 -1.0021
  154SAPE  H15Y17204   1.888   5.834   8.821 -0.1127  0.8370 -1.3557
  154SAPE  C31617205   2.000   5.955   8.681 -0.2395 -0.1976 -0.0603
  154SAPE  H16X17206   2.053   6.053   8.681  1.5941 -1.1244 -1.3048
  154SAPE  H16Y17207   1.911   5.955   8.615  2.3287 -2.1192 -3.8976
  154SAPE  C31717208   2.109   5.854   8.631 -0.7764  0.3063  0.6887
  154SAPE  H17X17209   2.054   5.759   8.622  0.2965 -0.3269  0.5995
  154SAPE  H17Y17210   2.202   5.838   8.691  0.7535  1.6372 -1.1850
  154SAPE  C31817211   2.159   5.881   8.485 -0.3342 -0.4593  0.5818
  154SAPE  H18X17212   2.073   5.865   8.416 -0.1301  0.4719  0.0916
  154SAPE  H18Y17213   2.237   5.810   8.451  1.4188  1.8350 -0.4652
  154SAPE  H18Z17214   2.198   5.985   8.470  2.0340 -1.6071 -2.3566
  155SAPE     N17215   0.875   2.555  10.989  0.1526  0.4308 -0.1114
  155SAPE   HN117216   0.940   2.557  11.069  1.7107  1.2418 -1.3496
  155SAPE   HN217217   0.899   2.644  10.942  3.1624 -1.4687 -2.6113
  155SAPE   HN317218   0.773   2.550  11.010 -0.2671 -1.7492 -2.1627
  155SAPE   C1217219   0.910   2.444  10.892 -0.1383 -0.1746 -0.3046
  155SAPE  H12A17220   0.856   2.456  10.796  0.1070 -1.4138 -0.6177
  155SAPE  H12B17221   0.886   2.346  10.937 -2.3142 -0.2300 -1.4876
  155SAPE   C1117222   1.064   2.454  10.869 -0.0799 -0.3455  0.2120
  155SAPE  H11A17223   1.085   2.558  10.834  1.6566 -0.8495 -0.3294
  155SAPE  H11B17224   1.086   2.380  10.790  2.0243 -0.4865  0.8707
  155SAPE     P17225   1.209   2.502  11.084 -0.1694 -0.3436 -0.3434
  155SAPE   O1317226   1.109   2.596  11.150  0.2915 -0.0139 -0.1932
  155SAPE   O1417227   1.296   2.431  11.176  0.1631  0.1569  0.7030
  155SAPE   O1217228   1.137   2.405  10.984 -0.1208 -0.5161  0.0206
  155SAPE   O1117229   1.301   2.582  10.992 -0.1629  0.0458  0.5868
  155SAPE    C117230   1.401   2.532  10.898 -0.0942  0.1356  0.3270
  155SAPE    HA17231   1.424   2.429  10.932 -0.1890  0.1460  0.4197
  155SAPE    HB17232   1.366   2.521  10.793 -2.6945 -2.3688  1.3233
  155SAPE    C217233   1.527   2.622  10.905 -0.4366 -0.1645  0.3006
  155SAPE    HS17234   1.546   2.643  11.012  2.4164 -0.6730 -0.0437
  155SAPE   O2117235   1.504   2.728  10.822  0.2176  0.6219  0.0370
  155SAPE   C2117236   1.581   2.835  10.843  0.0294  0.0413  0.2810
  155SAPE   O2217237   1.661   2.846  10.932 -0.0689  0.1053 -0.4304
  155SAPE   C2217238   1.548   2.945  10.736 -0.0607 -0.3281 -0.0782
  155SAPE   H2R17239   1.462   2.910  10.674 -0.3004 -0.4245  0.3023
  155SAPE   H2S17240   1.522   3.037  10.791 -0.4452  0.1091 -0.9751
  155SAPE    C317241   1.646   2.544  10.859  0.5426  0.0403  0.2593
  155SAPE    HX17242   1.667   2.459  10.928  1.0740 -2.0200 -2.2567
  155SAPE    HY17243   1.743   2.597  10.855  0.6561 -0.1940 -2.8852
  155SAPE   O3117244   1.611   2.487  10.736 -0.1349  0.2018 -0.0893
  155SAPE   C3117245   1.664   2.546  10.627  0.3784 -0.3880  0.4772
  155SAPE   O3217246   1.742   2.642  10.628  0.1364 -0.1456 -0.5794
  155SAPE   C3217247   1.604   2.498  10.499  0.3006  0.9148 -0.3012
  155SAPE   H2X17248   1.505   2.548  10.495  0.6779  1.7039 -0.0564
  155SAPE   H2Y17249   1.583   2.389  10.497  0.4658  0.8359  1.0871
  155SAPE   C2317250   1.666   2.985  10.645 -0.7271  0.7807  0.0978
  155SAPE   H3R17251   1.718   2.890  10.619  1.2477  1.8468  0.0268
  155SAPE   H3S17252   1.737   3.044  10.705  0.9063 -0.3902 -0.5968
  155SAPE   C2417253   1.624   3.044  10.510  0.0591  0.2414 -0.7936
  155SAPE   H4R17254   1.554   3.126  10.534  0.4277  0.5753 -0.8497
  155SAPE   H4S17255   1.580   2.958  10.454  2.6018  0.0189 -2.6146
  155SAPE   C2517256   1.745   3.101  10.439 -0.2891  0.2677 -0.4034
  155SAPE   H5R17257   1.805   3.166  10.505 -0.4962  0.7675 -0.7057
  155SAPE   C2617258   1.784   3.079  10.311 -0.1191 -0.7879  0.3659
  155SAPE   H6R17259   1.871   3.130  10.266 -0.7813  0.4292  0.4264
  155SAPE   C2717260   1.713   2.998  10.202 -0.6159  0.4104 -0.3841
  155SAPE   H7R17261   1.627   2.939  10.241  0.0614 -0.1151  0.3548
  155SAPE   H7S17262   1.794   2.926  10.177  0.6577  1.3687  0.7948
  155SAPE   C2817263   1.669   3.092  10.090  0.0373 -0.0462 -0.1495
  155SAPE   H8R17264   1.606   3.177  10.121  0.7379  0.6832 -0.6851
  155SAPE   C2917265   1.693   3.083   9.958 -0.1740  0.0303  0.5133
  155SAPE   H9R17266   1.660   3.169   9.899 -0.9132 -0.4051  0.2699
  155SAPE  C21017267   1.780   2.979   9.888 -0.1438 -0.6195 -0.3664
  155SAPE  H10R17268   1.854   2.924   9.949 -0.5806 -0.6327  0.1577
  155SAPE  H10S17269   1.838   3.041   9.817 -1.8277  2.6773  0.9036
  155SAPE  C21117270   1.695   2.877   9.823  0.1413 -0.3829  0.1698
  155SAPE  H11R17271   1.622   2.836   9.894  0.3195 -1.3477 -0.1975
  155SAPE  C21217272   1.684   2.847   9.690 -0.1646 -0.4162  0.4412
  155SAPE  H12R17273   1.615   2.764   9.665 -1.1494  0.5890 -0.2957
  155SAPE  C21317274   1.759   2.924   9.581  0.2402 -0.3103 -0.4927
  155SAPE  H13R17275   1.748   3.031   9.610  0.6656 -0.0737 -1.1788
  155SAPE  H13S17276   1.702   2.909   9.487 -2.2526  0.8469  0.7217
  155SAPE  C21417277   1.899   2.892   9.550 -0.2455 -0.3668 -0.0119
  155SAPE  H14R17278   1.974   2.934   9.619 -0.5244 -1.4346  0.9700
  155SAPE  C21517279   1.938   2.826   9.440 -0.8621 -0.0983  0.7032
  155SAPE  H15R17280   2.045   2.808   9.427 -1.4193 -2.0589 -1.9290
  155SAPE  C21617281   1.856   2.766   9.325  1.0184 -0.5568 -0.0855
  155SAPE  H16R17282   1.815   2.849   9.264 -0.3928 -0.9892  0.2448
  155SAPE  H16S17283   1.770   2.706   9.363 -0.6957  1.6302 -0.3147
  155SAPE  C21717284   1.951   2.684   9.230  0.6772 -0.1878 -0.2421
  155SAPE  H17R17285   1.869   2.624   9.185 -0.9536  0.6953  1.4113
  155SAPE  H17S17286   2.010   2.611   9.289 -0.0988  2.0732  3.6929
  155SAPE  C21817287   2.037   2.769   9.134 -0.1496  0.4331 -0.2244
  155SAPE  H18R17288   2.101   2.845   9.185 -0.7542  1.0913 -0.4376
  155SAPE  H18S17289   1.979   2.837   9.069  1.2009  2.7570  0.8855
  155SAPE  C21917290   2.121   2.676   9.041 -0.3733  0.0124 -0.4928
  155SAPE  H19R17291   2.061   2.614   8.970  0.1796 -1.3614  0.2020
  155SAPE  H19S17292   2.161   2.606   9.117 -1.5774 -0.5614 -0.3674
  155SAPE  C22017293   2.241   2.748   8.986 -0.7512  0.2070  0.1759
  155SAPE  H20R17294   2.307   2.781   9.069  1.9093 -2.5852 -0.6492
  155SAPE  H20S17295   2.217   2.826   8.910 -1.6967 -0.5179 -0.2977
  155SAPE  H20T17296   2.301   2.674   8.929  0.2465  1.7005 -0.7853
  155SAPE   C3317297   1.688   2.538  10.380 -0.4177  0.0115  0.5824
  155SAPE   H3X17298   1.786   2.486  10.379 -0.3969  0.0460  0.7168
  155SAPE   H3Y17299   1.711   2.646  10.393  0.5367  0.2171 -2.2980
  155SAPE   C3417300   1.624   2.512  10.238  0.4450 -0.2142 -0.7767
  155SAPE   H4X17301   1.526   2.563  10.252 -0.7834 -2.4789 -0.7619
  155SAPE   H4Y17302   1.612   2.403  10.225  1.6221 -0.4750  0.1029
  155SAPE   C3517303   1.685   2.579  10.123 -0.4625 -0.0793  0.1026
  155SAPE   H5X17304   1.695   2.688  10.139 -1.0873  0.4399 -2.5884
  155SAPE   H5Y17305   1.617   2.560  10.037  0.0929  0.5733 -0.4890
  155SAPE   C3617306   1.816   2.528  10.061  1.3145  0.0597 -1.0002
  155SAPE   H6X17307   1.798   2.432  10.009  0.6779 -1.5161  1.9413
  155SAPE   H6Y17308   1.887   2.495  10.139 -0.9911 -1.4814  0.5954
  155SAPE   C3717309   1.877   2.624   9.970 -0.8239  0.4204 -0.0346
  155SAPE   H7X17310   1.910   2.708  10.035  4.0134 -3.1595  2.7784
  155SAPE   H7Y17311   1.802   2.652   9.893 -0.5331  0.3824 -0.3341
  155SAPE   C3817312   1.999   2.553   9.895 -0.1756  0.0192 -0.6797
  155SAPE   H8X17313   1.975   2.450   9.862  0.0036 -1.2432  2.7072
  155SAPE   H8Y17314   2.087   2.544   9.963 -0.9040 -1.3848  0.1238
  155SAPE   C3917315   2.035   2.637   9.769  0.2936  0.2247 -0.1407
  155SAPE   H9X17316   2.034   2.743   9.803 -0.0176  0.3036 -0.3934
  155SAPE   H9Y17317   1.956   2.624   9.693  2.5056  0.2429 -2.5877
  155SAPE  C31017318   2.169   2.587   9.717  0.9418  0.0133 -0.0942
  155SAPE  H10X17319   2.160   2.483   9.679  1.4528  0.4589 -1.4769
  155SAPE  H10Y17320   2.245   2.584   9.798 -0.6137 -1.2006  1.3833
  155SAPE  C31117321   2.235   2.668   9.605 -0.2755 -0.7405 -1.0160
  155SAPE  H11X17322   2.241   2.774   9.637  2.4442 -1.2191  0.3967
  155SAPE  H11Y17323   2.173   2.659   9.514 -2.2989  0.9165  0.0934
  155SAPE  C31217324   2.384   2.639   9.571  0.0086 -0.6438 -0.4146
  155SAPE  H12X17325   2.410   2.531   9.581 -1.8562 -1.0268  0.6360
  155SAPE  H12Y17326   2.439   2.710   9.637 -2.1680  0.7720 -0.0419
  155SAPE  C31317327   2.404   2.684   9.430  0.2500  0.1199  0.8411
  155SAPE  H13X17328   2.457   2.781   9.430 -0.6943  0.6556  0.9063
  155SAPE  H13Y17329   2.309   2.704   9.374  0.0810 -0.5933  0.8636
  155SAPE  C31417330   2.495   2.586   9.358 -0.4912  0.5653 -0.5593
  155SAPE  H14X17331   2.427   2.501   9.334  0.6647 -0.0935 -1.6103
  155SAPE  H14Y17332   2.575   2.543   9.422 -0.4958 -1.1213 -1.6197
  155SAPE  C31517333   2.563   2.645   9.240 -0.1966 -0.4571  0.2528
  155SAPE  H15X17334   2.640   2.715   9.277 -0.6864 -0.9140  2.2568
  155SAPE  H15Y17335   2.481   2.692   9.181 -0.1363 -2.1207 -1.2658
  155SAPE  C31617336   2.641   2.551   9.153  0.2175  0.0143  0.5430
  155SAPE  H16X17337   2.580   2.483   9.090  0.1751  1.5819 -1.1905
  155SAPE  H16Y17338   2.690   2.477   9.221  0.9539 -0.4988 -0.5199
  155SAPE  C31717339   2.741   2.614   9.050 -0.0064  0.3906 -0.0514
  155SAPE  H17X17340   2.788   2.700   9.102 -0.7455  1.6308 -1.3550
  155SAPE  H17Y17341   2.680   2.656   8.968  1.0908 -0.3672 -1.2985
  155SAPE  C31817342   2.844   2.512   8.993 -0.0954  0.2143  0.2729
  155SAPE  H18X17343   2.900   2.455   9.069  0.3941  1.7309  1.0782
  155SAPE  H18Y17344   2.912   2.561   8.920  0.3669 -0.4448  0.2452
  155SAPE  H18Z17345   2.801   2.426   8.937 -2.2831  0.0518  2.0597
  156SAPE     N17346   1.535   0.145  10.613  0.1143 -0.1222 -0.2094
  156SAPE   HN117347   1.453   0.180  10.668  1.3362  0.3369  1.3960
  156SAPE   HN217348   1.591   0.090  10.681 -1.0679 -0.2963  0.6617
  156SAPE   HN317349   1.588   0.220  10.565 -1.1365 -0.8912 -2.9825
  156SAPE   C1217350   1.522   0.045  10.498  0.2008  0.2781  0.1266
  156SAPE  H12A17351   1.622   0.015  10.459  1.0132  3.7413 -0.8261
  156SAPE  H12B17352   1.460   0.091  10.418 -1.2785 -0.0883  1.0156
  156SAPE   C1117353   1.436  -0.083  10.545 -0.3366 -0.2722  0.1690
  156SAPE  H11A17354   1.497  -0.142  10.617 -1.8140 -2.2071 -0.0910
  156SAPE  H11B17355   1.411  -0.155  10.464  0.6206  1.1478 -1.4582
  156SAPE     P17356   1.181  -0.126  10.621 -0.2634 -0.3237  0.0509
  156SAPE   O1317357   1.200  -0.257  10.562 -0.2713  0.4838  0.0730
  156SAPE   O1417358   1.117  -0.101  10.759 -0.0189  0.5957  0.4406
  156SAPE   O1217359   1.321  -0.044  10.627 -0.2246 -0.1883  0.1366
  156SAPE   O1117360   1.085  -0.048  10.521 -0.2059 -0.0489 -0.5363
  156SAPE    C117361   1.129   0.011  10.400  0.4165  0.3735 -0.2123
  156SAPE    HA17362   1.076   0.106  10.377  0.7810  0.6045 -0.0928
  156SAPE    HB17363   1.237   0.031  10.413  0.3083 -0.1478  1.9883
  156SAPE    C217364   1.108  -0.080  10.277 -0.1386 -0.0756 -0.2688
  156SAPE    HS17365   1.164  -0.176  10.280  0.8579  0.4953 -0.1299
  156SAPE   O2117366   1.156  -0.012  10.160 -0.2634 -0.7388 -0.5087
  156SAPE   C2117367   1.290  -0.009  10.150  0.6250 -0.8407 -0.7559
  156SAPE   O2217368   1.374  -0.066  10.219 -0.2619 -0.0057 -0.0643
  156SAPE   C2217369   1.324   0.092  10.036  0.1032  0.9682  0.1559
  156SAPE   H2R17370   1.229   0.133   9.995  0.0722  0.1096 -0.6751
  156SAPE   H2S17371   1.380   0.176  10.081  0.9528 -1.1014  3.3140
  156SAPE    C317372   0.965  -0.119  10.254  0.1428 -0.4620 -0.2945
  156SAPE    HX17373   0.930  -0.027  10.204  2.8184  0.0529 -1.4275
  156SAPE    HY17374   0.907  -0.137  10.347  0.7855  2.4790  0.7582
  156SAPE   O3117375   0.954  -0.234  10.160 -0.7543 -0.2989  0.1034
  156SAPE   C3117376   0.830  -0.247  10.119  0.3430  0.8721  0.3214
  156SAPE   O3217377   0.734  -0.175  10.140 -0.9294 -0.0876 -0.7301
  156SAPE   C3217378   0.826  -0.374  10.033 -0.3782 -0.0058  0.2715
  156SAPE   H2X17379   0.748  -0.445  10.068  0.0976 -1.0705 -0.7738
  156SAPE   H2Y17380   0.922  -0.429  10.028  0.1140  0.9381 -1.1216
  156SAPE   C2317381   1.410   0.035   9.921 -0.0088  0.5558 -0.5802
  156SAPE   H3R17382   1.507   0.003   9.965 -0.6202 -0.3775  0.1288
  156SAPE   H3S17383   1.434   0.113   9.847  1.4381 -1.1492 -2.0036
  156SAPE   C2417384   1.348  -0.081   9.844  0.0200 -0.0752 -0.1846
  156SAPE   H4R17385   1.324  -0.159   9.919 -0.1231 -0.9298 -1.0906
  156SAPE   H4S17386   1.426  -0.128   9.779 -0.9319 -0.7975 -0.8279
  156SAPE   C2517387   1.221  -0.033   9.771  0.1645  0.3155  0.3914
  156SAPE   H5R17388   1.131  -0.007   9.828  0.6872  0.7917  1.0241
  156SAPE   C2617389   1.217   0.002   9.642  0.1877 -0.0197 -0.9476
  156SAPE   H6R17390   1.121   0.042   9.605  0.5832  0.7765 -1.1278
  156SAPE   C2717391   1.327  -0.003   9.542  0.1425  0.6715 -0.2362
  156SAPE   H7R17392   1.297  -0.051   9.447  0.9208  0.6034 -0.4557
  156SAPE   H7S17393   1.408  -0.070   9.579  0.1929 -0.7575 -2.7452
  156SAPE   C2817394   1.395   0.129   9.515  0.5677  0.1497 -0.3363
  156SAPE   H8R17395   1.438   0.171   9.608 -0.8261  0.3378  0.2383
  156SAPE   C2917396   1.407   0.191   9.393 -0.2492 -0.3476 -0.0021
  156SAPE   H9R17397   1.461   0.287   9.390  1.8843 -1.5006  0.0913
  156SAPE  C21017398   1.358   0.144   9.262  0.2923  0.3605 -0.0055
  156SAPE  H10R17399   1.281   0.066   9.282  0.2019  0.4574  0.0207
  156SAPE  H10S17400   1.439   0.104   9.197  0.3463  0.9689 -0.3157
  156SAPE  C21117401   1.302   0.254   9.177 -0.1436  0.1292  0.4227
  156SAPE  H11R17402   1.360   0.289   9.090 -1.2975 -1.2051 -0.9289
  156SAPE  C21217403   1.185   0.313   9.196  0.1826 -0.0086  0.2499
  156SAPE  H12R17404   1.164   0.396   9.127  2.9226 -0.3530 -1.1375
  156SAPE  C21317405   1.088   0.285   9.312 -0.4281  0.2056 -0.3675
  156SAPE  H13R17406   1.107   0.180   9.344  2.4755  0.7678  0.0032
  156SAPE  H13S17407   0.989   0.296   9.264 -1.0794  0.5226  1.0072
  156SAPE  C21417408   1.108   0.377   9.437  0.1733  0.0039  0.0291
  156SAPE  H14R17409   1.211   0.409   9.459  0.4835 -1.5572  1.0133
  156SAPE  C21517410   1.018   0.406   9.532  0.1376 -0.0971  0.3765
  156SAPE  H15R17411   1.028   0.480   9.612 -0.1135  0.3986 -0.0432
  156SAPE  C21617412   0.875   0.353   9.525 -0.1248 -0.5990 -0.8261
  156SAPE  H16R17413   0.835   0.339   9.423  0.0133 -1.7466 -0.7364
  156SAPE  H16S17414   0.816   0.425   9.586  1.3766 -1.0892  1.3135
  156SAPE  C21717415   0.867   0.213   9.587  0.7389  0.4491  0.5848
  156SAPE  H17R17416   0.950   0.147   9.554  0.8088  0.7695  0.1120
  156SAPE  H17S17417   0.769   0.168   9.560  0.3821  0.6270  1.5463
  156SAPE  C21817418   0.877   0.219   9.742  0.4143 -0.0066 -0.0814
  156SAPE  H18R17419   0.785   0.272   9.776 -1.2844 -0.2538 -3.8398
  156SAPE  H18S17420   0.972   0.274   9.762 -0.7375  1.9228  0.3639
  156SAPE  C21917421   0.864   0.068   9.802 -0.6831  0.4318 -0.4728
  156SAPE  H19R17422   0.945   0.016   9.745 -1.0848  1.4196 -2.0073
  156SAPE  H19S17423   0.761   0.030   9.786 -0.8206  0.2258  0.7890
  156SAPE  C22017424   0.904   0.070   9.946  0.2293 -0.5601 -0.9038
  156SAPE  H20R17425   0.898  -0.026  10.003  1.4531  0.2144  0.5972
  156SAPE  H20S17426   0.848   0.144  10.007  0.6100 -0.1189 -1.0886
  156SAPE  H20T17427   1.011   0.098   9.954 -0.2075  0.8214  0.6725
  156SAPE   C3317428   0.787  -0.355   9.881 -0.4108  0.5831  0.1306
  156SAPE   H3X17429   0.700  -0.289   9.861  0.2424  1.7227  0.9409
  156SAPE   H3Y17430   0.766  -0.456   9.839  0.0255  0.3315  0.5094
  156SAPE   C3417431   0.903  -0.308   9.795 -0.5549 -0.9750  0.7886
  156SAPE   H4X17432   1.001  -0.357   9.818  1.6602  2.3566 -0.8371
  156SAPE   H4Y17433   0.922  -0.202   9.820  0.4539 -1.3034  1.4770
  156SAPE   C3517434   0.893  -0.310   9.642  0.1183 -0.0758  0.1570
  156SAPE   H5X17435   0.904  -0.407   9.588 -1.8611 -0.8548  1.0419
  156SAPE   H5Y17436   0.972  -0.242   9.603  0.0551  0.4865  1.0017
  156SAPE   C3617437   0.753  -0.260   9.595 -0.9585 -1.2565  0.4309
  156SAPE   H6X17438   0.731  -0.163   9.645  0.7834 -0.2286 -0.6614
  156SAPE   H6Y17439   0.680  -0.338   9.625 -1.8875  0.2912  2.4642
  156SAPE   C3717440   0.745  -0.238   9.439  0.3372  0.6254  0.0581
  156SAPE   H7X17441   0.643  -0.199   9.419  1.3421  2.3659 -2.1396
  156SAPE   H7Y17442   0.769  -0.331   9.382  0.8248  1.4529 -1.1367
  156SAPE   C3817443   0.830  -0.126   9.376  0.0794 -0.0716 -0.1286
  156SAPE   H8X17444   0.939  -0.139   9.393 -0.2737 -3.0545  0.3506
  156SAPE   H8Y17445   0.805  -0.037   9.437  1.7745 -1.0109  2.0867
  156SAPE   C3917446   0.811  -0.107   9.222  0.5028 -0.1169 -0.1973
  156SAPE   H9X17447   0.701  -0.094   9.211  0.3981  0.3722  1.1381
  156SAPE   H9Y17448   0.831  -0.196   9.160  0.4048  2.0033 -3.5351
  156SAPE  C31017449   0.879   0.012   9.165 -0.0199 -0.3919 -0.2123
  156SAPE  H10X17450   0.988  -0.009   9.160  0.2975  1.1726 -0.5481
  156SAPE  H10Y17451   0.883   0.104   9.228  2.6897 -1.3915  1.2308
  156SAPE  C31117452   0.851   0.048   9.020  0.3379 -0.2504  0.2098
  156SAPE  H11X17453   0.746   0.078   8.998  0.5889 -0.2402 -1.0486
  156SAPE  H11Y17454   0.878  -0.038   8.955  0.7633 -0.2326  0.3561
  156SAPE  C31217455   0.943   0.166   8.973  0.8083  0.0941 -0.1765
  156SAPE  H12X17456   1.048   0.131   8.983 -0.0455 -2.4739  0.6673
  156SAPE  H12Y17457   0.919   0.248   9.044 -0.8048 -0.2198 -0.3351
  156SAPE  C31317458   0.922   0.210   8.832 -0.1970  0.0254  0.2671
  156SAPE  H13X17459   0.814   0.232   8.817 -0.2297 -0.7349 -0.6880
  156SAPE  H13Y17460   0.949   0.132   8.758 -2.8449  0.1653 -0.9560
  156SAPE  C31417461   0.998   0.344   8.796 -0.2733 -0.1550 -0.1354
  156SAPE  H14X17462   1.004   0.361   8.686  1.7194  1.9159  0.2036
  156SAPE  H14Y17463   1.106   0.323   8.811 -0.2768  1.2396  2.4862
  156SAPE  C31517464   0.950   0.464   8.875 -1.0002 -0.1691  0.2504
  156SAPE  H15X17465   0.974   0.455   8.983  0.5066 -3.3822 -0.2061
  156SAPE  H15Y17466   0.839   0.466   8.870 -1.0200  0.2533  0.7925
  156SAPE  C31617467   1.005   0.595   8.819 -0.1970  0.2740 -0.4921
  156SAPE  H16X17468   1.115   0.588   8.804 -0.3566 -0.4041 -1.4444
  156SAPE  H16Y17469   0.985   0.675   8.894  1.7280 -1.0524  1.5577
  156SAPE  C31717470   0.932   0.647   8.690 -0.6111  0.0930 -1.4332
  156SAPE  H17X17471   0.822   0.647   8.699 -0.7475 -1.7617 -2.5616
  156SAPE  H17Y17472   0.951   0.563   8.620 -0.3033  0.3667 -1.6767
  156SAPE  C31817473   0.973   0.776   8.633  0.3063 -0.2293 -0.3023
  156SAPE  H18X17474   0.927   0.863   8.686 -0.5950  0.2736 -1.8363
  156SAPE  H18Y17475   0.937   0.787   8.528  1.7572  1.0961 -0.7096
  156SAPE  H18Z17476   1.083   0.785   8.638  0.3085 -0.2131 -0.3811
  157SAPE     N17477   0.148   4.962  10.677 -0.5897 -0.3330  0.3168
  157SAPE   HN117478   0.050   4.975  10.708 -0.1191  0.1857  1.6186
  157SAPE   HN217479   0.146   4.922  10.581 -0.3075 -2.0809  0.9990
  157SAPE   HN317480   0.185   4.891  10.743  0.3288  0.9659  1.2459
  157SAPE   C1217481   0.227   5.094  10.672  0.0420  0.8778 -0.2202
  157SAPE  H12A17482   0.312   5.061  10.609 -2.2190 -2.4578 -1.7977
  157SAPE  H12B17483   0.261   5.114  10.776 -0.4609 -2.3405  0.6788
  157SAPE   C1117484   0.145   5.202  10.603 -0.0005 -0.0081 -0.5611
  157SAPE  H11A17485   0.135   5.167  10.498 -0.8103  0.0758 -0.5133
  157SAPE  H11B17486   0.205   5.295  10.596 -0.5092  0.4262  0.7001
  157SAPE     P17487   0.000   5.344  10.767  0.0402  0.0608  0.0829
  157SAPE   O1317488  -0.142   5.342  10.802 -0.8699  1.0349 -0.0220
  157SAPE   O1417489   0.103   5.316  10.873 -0.0311  0.1632  0.5176
  157SAPE   O1217490   0.014   5.224  10.660 -0.3838  0.3497 -0.2317
  157SAPE   O1117491   0.038   5.479  10.682  0.1824  0.0847 -0.1380
  157SAPE    C117492  -0.049   5.593  10.696  0.2898  0.6583 -0.1512
  157SAPE    HA17493  -0.088   5.606  10.799 -0.7151  0.7100 -0.5295
  157SAPE    HB17494   0.023   5.675  10.675  2.5829 -1.4579 -1.1304
  157SAPE    C217495  -0.161   5.608  10.588  0.4305 -0.4898 -0.2168
  157SAPE    HS17496  -0.244   5.537  10.608 -0.2013  0.0681 -0.7733
  157SAPE   O2117497  -0.103   5.577  10.461  0.4847 -0.6704  0.1779
  157SAPE   C2117498  -0.161   5.485  10.381  0.3919 -0.5479  0.2464
  157SAPE   O2217499  -0.266   5.434  10.401  0.1269  0.0468  0.0042
  157SAPE   C2217500  -0.063   5.448  10.265 -0.0474 -0.6409 -0.2282
  157SAPE   H2R17501   0.001   5.538  10.251 -0.0752  0.0157  2.9889
  157SAPE   H2S17502   0.003   5.370  10.306 -1.0813 -1.5951 -0.3388
  157SAPE    C317503  -0.217   5.751  10.604  0.0078  0.0417 -0.2774
  157SAPE    HX17504  -0.132   5.816  10.576 -0.4677  0.8339  0.0661
  157SAPE    HY17505  -0.244   5.777  10.709  0.5938  0.0558 -0.1297
  157SAPE   O3117506  -0.330   5.771  10.518 -0.2494 -0.4642 -0.6092
  157SAPE   C3117507  -0.314   5.825  10.399 -0.5715 -0.4670  0.2544
  157SAPE   O3217508  -0.214   5.878  10.358 -0.5552 -0.1110  0.2975
  157SAPE   C3217509  -0.443   5.816  10.323 -0.7620 -0.4090 -0.0029
  157SAPE   H2X17510  -0.517   5.844  10.401 -1.6767 -2.0224 -0.2556
  157SAPE   H2Y17511  -0.451   5.708  10.300  1.0070 -0.3388 -1.1330
  157SAPE   C2317512  -0.141   5.396  10.142  0.7012  0.1150  0.1029
  157SAPE   H3R17513  -0.215   5.319  10.174  0.3790 -1.5745 -4.0915
  157SAPE   H3S17514  -0.072   5.343  10.073 -0.1064 -3.0624  1.5211
  157SAPE   C2417515  -0.200   5.516  10.065 -0.1894 -0.2717  0.0990
  157SAPE   H4R17516  -0.113   5.581  10.040 -0.6274 -0.0765 -0.9960
  157SAPE   H4S17517  -0.257   5.570  10.143  3.5038  0.7343  2.3736
  157SAPE   C2517518  -0.292   5.491   9.948 -0.4183 -0.5816  0.1500
  157SAPE   H5R17519  -0.376   5.423   9.970 -0.2304 -0.7977  0.1941
  157SAPE   C2617520  -0.275   5.528   9.820 -0.7575  0.7471 -0.2424
  157SAPE   H6R17521  -0.348   5.484   9.751 -0.5899 -0.7572  0.5044
  157SAPE   C2717522  -0.154   5.614   9.766  0.7339 -0.2239  0.0180
  157SAPE   H7R17523  -0.093   5.648   9.852  2.2926 -1.3355 -0.6020
  157SAPE   H7S17524  -0.181   5.709   9.716 -3.5392  0.2251  2.6781
  157SAPE   C2817525  -0.051   5.537   9.691 -0.7917 -0.3012 -0.4279
  157SAPE   H8R17526   0.029   5.482   9.744  0.7402  0.6945 -1.6000
  157SAPE   C2917527  -0.043   5.523   9.556 -0.8428 -0.4216  0.2026
  157SAPE   H9R17528   0.041   5.462   9.519  0.1677  1.6252 -1.0599
  157SAPE  C21017529  -0.121   5.585   9.441 -0.0666 -0.3786  0.3635
  157SAPE  H10R17530  -0.067   5.572   9.345 -1.9067 -3.7764 -0.3793
  157SAPE  H10S17531  -0.122   5.694   9.465 -1.6624 -0.0791 -0.8814
  157SAPE  C21117532  -0.263   5.538   9.426 -0.1579  0.6704 -0.1824
  157SAPE  H11R17533  -0.309   5.502   9.519  1.7669 -0.2693  0.4450
  157SAPE  C21217534  -0.320   5.514   9.307  0.0417 -0.3081 -0.7336
  157SAPE  H12R17535  -0.428   5.493   9.306  0.0023 -0.2910  0.9540
  157SAPE  C21317536  -0.252   5.539   9.168 -0.0896 -0.1972 -0.3035
  157SAPE  H13R17537  -0.145   5.506   9.172 -0.8634 -2.9500 -0.1734
  157SAPE  H13S17538  -0.248   5.649   9.159 -2.7432 -0.0619 -0.6281
  157SAPE  C21417539  -0.325   5.486   9.044 -0.0267 -0.2265 -0.0396
  157SAPE  H14R17540  -0.422   5.535   9.030  0.0667  0.4652  1.5294
  157SAPE  C21517541  -0.292   5.395   8.948 -0.1804  0.2412 -0.2782
  157SAPE  H15R17542  -0.357   5.357   8.868 -2.1253  0.7647  0.9817
  157SAPE  C21617543  -0.158   5.329   8.956 -0.0886  0.2195  0.2520
  157SAPE  H16R17544  -0.161   5.233   8.901 -0.3085 -1.3796  2.8601
  157SAPE  H16S17545  -0.140   5.307   9.063 -0.2646 -0.0956  0.2187
  157SAPE  C21717546  -0.033   5.406   8.909  0.0577  0.5049  0.0915
  157SAPE  H17R17547   0.059   5.350   8.936 -0.3737  0.0811  0.6882
  157SAPE  H17S17548  -0.038   5.500   8.968 -0.2127  0.2252  0.5247
  157SAPE  C21817549  -0.032   5.454   8.763 -0.0999  0.0822  0.4687
  157SAPE  H18R17550  -0.131   5.500   8.741  0.6291  1.0803 -0.8087
  157SAPE  H18S17551  -0.021   5.361   8.704  0.0189  0.9663 -0.9482
  157SAPE  C21917552   0.084   5.546   8.729 -0.2146 -0.7731 -0.2800
  157SAPE  H19R17553   0.078   5.636   8.793 -1.9158 -1.6318  0.8336
  157SAPE  H19S17554   0.077   5.586   8.626  0.0223  2.0603  0.7300
  157SAPE  C22017555   0.219   5.482   8.757 -0.3301 -0.2358  0.7647
  157SAPE  H20R17556   0.232   5.463   8.866  0.7196  0.8623  0.8552
  157SAPE  H20S17557   0.296   5.554   8.722 -0.5918 -1.0276 -1.5803
  157SAPE  H20T17558   0.230   5.397   8.687 -1.0364  0.7148 -0.5314
  157SAPE   C3317559  -0.460   5.912  10.208 -0.1207  0.1173 -0.1060
  157SAPE   H3X17560  -0.417   6.013  10.219 -0.4332  0.2464 -0.0578
  157SAPE   H3Y17561  -0.569   5.922  10.190 -0.4001 -1.2820  0.6223
  157SAPE   C3417562  -0.412   5.854  10.081 -0.0828 -0.1779 -0.3371
  157SAPE   H4X17563  -0.466   5.758  10.065  0.9411 -0.7517 -0.4230
  157SAPE   H4Y17564  -0.307   5.819  10.085 -0.1338 -0.2084  1.0628
  157SAPE   C3517565  -0.449   5.937   9.960  0.2698  0.5458 -0.0120
  157SAPE   H5X17566  -0.379   6.022   9.943  0.2672  0.1000 -2.8276
  157SAPE   H5Y17567  -0.552   5.977   9.970  0.3440  0.7850 -0.1765
  157SAPE   C3617568  -0.433   5.861   9.833  0.5635  0.2160 -0.0075
  157SAPE   H6X17569  -0.485   5.763   9.839  3.3826 -1.4176 -0.6764
  157SAPE   H6Y17570  -0.326   5.839   9.815 -0.0440 -1.4615 -1.9024
  157SAPE   C3717571  -0.490   5.938   9.711  0.1582  0.1103  1.0407
  157SAPE   H7X17572  -0.434   6.030   9.684  0.7589 -0.1128  1.5089
  157SAPE   H7Y17573  -0.598   5.960   9.723  0.1418  0.4007  0.4085
  157SAPE   C3817574  -0.470   5.850   9.581 -0.4297  0.1464 -0.8184
  157SAPE   H8X17575  -0.540   5.764   9.592 -1.0800  0.5558 -1.5875
  157SAPE   H8Y17576  -0.364   5.819   9.566 -0.7958 -1.4298 -0.3612
  157SAPE   C3917577  -0.515   5.923   9.454  0.0546 -0.0402 -0.1276
  157SAPE   H9X17578  -0.490   6.030   9.435 -0.1843 -0.4426 -3.0863
  157SAPE   H9Y17579  -0.626   5.920   9.455  0.0820 -1.2921  0.4308
  157SAPE  C31017580  -0.479   5.854   9.325  0.0665 -0.1463 -0.6387
  157SAPE  H10X17581  -0.531   5.760   9.297  0.6495 -0.0592 -2.0997
  157SAPE  H10Y17582  -0.369   5.833   9.323  0.1651  0.3186 -0.2459
  157SAPE  C31117583  -0.512   5.933   9.196 -0.6428 -0.0928 -0.0830
  157SAPE  H11X17584  -0.441   5.883   9.127  0.6450  1.4336  0.0785
  157SAPE  H11Y17585  -0.480   6.038   9.184 -1.4817  0.0458 -1.2347
  157SAPE  C31217586  -0.654   5.905   9.124  0.2942  0.1859 -0.4077
  157SAPE  H12X17587  -0.726   5.907   9.209  2.3188 -2.2983  1.5400
  157SAPE  H12Y17588  -0.643   5.809   9.069  0.6675 -0.3979  0.6477
  157SAPE  C31317589  -0.702   6.014   9.030  0.8865  0.1005 -0.3455
  157SAPE  H13X17590  -0.645   6.012   8.935 -0.4110 -3.1144 -1.2000
  157SAPE  H13Y17591  -0.681   6.114   9.073  1.8753  0.3720 -1.4202
  157SAPE  C31417592  -0.853   6.011   8.994  0.0214  0.3031  0.5106
  157SAPE  H14X17593  -0.918   6.034   9.081 -1.6856 -1.5039 -0.2197
  157SAPE  H14Y17594  -0.878   5.909   8.959  0.0130  0.0267  1.3104
  157SAPE  C31517595  -0.870   6.114   8.888  0.0995  0.1973  0.4243
  157SAPE  H15X17596  -0.810   6.097   8.796  1.6092  0.0264  1.4109
  157SAPE  H15Y17597  -0.835   6.212   8.929  2.6113 -0.2025 -0.5862
  157SAPE  C31617598  -1.016   6.128   8.847 -0.1125 -0.3383 -0.1328
  157SAPE  H16X17599  -1.068   6.117   8.945 -0.4093 -2.9215 -0.5115
  157SAPE  H16Y17600  -1.052   6.044   8.783 -1.4482 -2.0925  2.6959
  157SAPE  C31717601  -1.046   6.260   8.783 -0.5526  0.2128 -0.5893
  157SAPE  H17X17602  -0.984   6.338   8.833 -0.9579 -0.8636  1.7676
  157SAPE  H17Y17603  -1.150   6.294   8.801 -0.2242  1.1975 -0.4987
  157SAPE  C31817604  -1.020   6.261   8.635 -1.0152 -0.5440  0.7104
  157SAPE  H18X17605  -0.912   6.260   8.610 -1.5503  1.1687 -2.0994
  157SAPE  H18Y17606  -1.061   6.350   8.584  1.6887 -0.0849 -0.8661
  157SAPE  H18Z17607  -1.057   6.171   8.581  0.3102  0.0277 -1.2415
  158SAPE     N17608   6.565   6.495  10.689 -0.5118  0.0235 -0.3285
  158SAPE   HN117609   6.627   6.565  10.734  1.2102  0.4123 -3.0952
  158SAPE   HN217610   6.553   6.530  10.592 -0.4000 -0.9770 -0.7119
  158SAPE   HN317611   6.473   6.480  10.736 -0.2634  0.0079  0.1521
  158SAPE   C1217612   6.643   6.370  10.690  0.2471  0.1141 -0.6952
  158SAPE  H12A17613   6.581   6.284  10.654  0.1812  0.8356 -2.3944
  158SAPE  H12B17614   6.670   6.357  10.796 -0.1467  0.7215 -0.5154
  158SAPE   C1117615   6.770   6.383  10.600  0.7991  0.5642  0.2589
  158SAPE  H11A17616   6.734   6.374  10.495  0.3065  0.8822  0.3965
  158SAPE  H11B17617   6.835   6.300  10.633 -0.2546 -0.2446  0.3689
  158SAPE     P17618   6.984   6.533  10.587 -0.4178 -0.2175 -0.1902
  158SAPE   O1317619   7.012   6.675  10.545  0.2769  0.1323 -0.2973
  158SAPE   O1417620   7.067   6.474  10.694 -0.1882  0.5222 -0.0609
  158SAPE   O1217621   6.836   6.506  10.620 -0.4971 -0.6566  0.0604
  158SAPE   O1117622   7.010   6.444  10.462 -0.2510 -0.1792 -0.0220
  158SAPE    C117623   7.109   6.457  10.366  0.4087 -0.8096  0.6359
  158SAPE    HA17624   7.182   6.533  10.402 -1.7593  1.8107 -0.1037
  158SAPE    HB17625   7.180   6.373  10.354  1.9656  0.6171 -0.6140
  158SAPE    C217626   7.055   6.515  10.234  0.5160  0.0880 -0.6152
  158SAPE    HS17627   7.011   6.615  10.258  1.6071  0.2059  1.1013
  158SAPE   O2117628   6.969   6.420  10.176  0.2984 -0.5731 -0.5931
  158SAPE   C2117629   6.847   6.424  10.226 -0.8719  0.0191 -0.1159
  158SAPE   O2217630   6.797   6.511  10.295 -0.0443 -0.2061  0.2908
  158SAPE   C2217631   6.771   6.317  10.150 -0.8415 -0.0782  0.5498
  158SAPE   H2R17632   6.787   6.322  10.040  0.0686  0.9340  0.7129
  158SAPE   H2S17633   6.824   6.225  10.183  0.7728  1.7061  3.2868
  158SAPE    C317634   7.163   6.555  10.130  0.2435  0.0173 -0.4784
  158SAPE    HX17635   7.198   6.467  10.072 -0.8145 -0.7030 -0.0524
  158SAPE    HY17636   7.246   6.594  10.194  0.8789 -0.8386 -0.7556
  158SAPE   O3117637   7.120   6.647  10.031 -0.1423  0.0432  0.4305
  158SAPE   C3117638   7.123   6.779  10.053 -0.1357  0.6581  1.0587
  158SAPE   O3217639   7.155   6.825  10.157  0.6599 -0.1570  0.0563
  158SAPE   C3217640   7.071   6.848   9.931  0.6698 -0.3259 -0.7991
  158SAPE   H2X17641   7.057   6.957   9.945  0.8509 -0.5290  1.2309
  158SAPE   H2Y17642   6.976   6.798   9.903  1.5045 -1.2831 -2.0580
  158SAPE   C2317643   6.617   6.312  10.178 -0.1387  0.2873 -0.1307
  158SAPE   H3R17644   6.573   6.414  10.172 -0.5274  0.0405 -2.8421
  158SAPE   H3S17645   6.606   6.271  10.280 -0.9208  0.4314 -0.1509
  158SAPE   C2417646   6.546   6.225  10.072 -0.3060  0.2796  0.1796
  158SAPE   H4R17647   6.438   6.220  10.097 -0.4215  0.7700 -0.2224
  158SAPE   H4S17648   6.592   6.124  10.081 -0.4088  0.3424  1.5734
  158SAPE   C2517649   6.546   6.272   9.929 -0.4867 -0.2355  0.5171
  158SAPE   H5R17650   6.463   6.343   9.915 -0.4556  0.0865  1.8081
  158SAPE   C2617651   6.623   6.245   9.817  0.5003  0.4238  0.2277
  158SAPE   H6R17652   6.589   6.303   9.730 -1.4182 -0.0424  0.6137
  158SAPE   C2717653   6.725   6.139   9.807 -0.1148 -0.1935 -0.3667
  158SAPE   H7R17654   6.771   6.099   9.900  1.5698  1.9144 -0.2187
  158SAPE   H7S17655   6.801   6.199   9.752  0.7091 -0.5800  0.3273
  158SAPE   C2817656   6.682   6.020   9.721  0.2532  0.1333 -0.3687
  158SAPE   H8R17657   6.623   5.944   9.774  2.4108 -1.8567 -0.6616
  158SAPE   C2917658   6.723   5.985   9.600  0.6983 -0.3279  0.6172
  158SAPE   H9R17659   6.675   5.898   9.553  0.1334  0.0093  0.5534
  158SAPE  C21017660   6.822   6.056   9.516  0.7355 -0.1015 -0.0537
  158SAPE  H10R17661   6.847   6.158   9.555  0.1175  0.4436 -1.0487
  158SAPE  H10S17662   6.775   6.078   9.418 -0.1939 -0.0439  0.3984
  158SAPE  C21117663   6.947   5.983   9.506 -0.1104  0.3409 -0.0014
  158SAPE  H11R17664   6.982   5.942   9.602 -1.8692 -0.9540  0.1296
  158SAPE  C21217665   7.018   5.943   9.400  0.3827  0.2150  0.0662
  158SAPE  H12R17666   7.121   5.908   9.415  1.4884  0.7696 -4.6665
  158SAPE  C21317667   6.976   5.957   9.256 -0.6130 -0.5507 -0.3752
  158SAPE  H13R17668   7.068   5.975   9.195  0.8623 -1.2064  1.5551
  158SAPE  H13S17669   6.919   6.052   9.247  0.9912  0.5438  0.5308
  158SAPE  C21417670   6.906   5.829   9.214  0.5501  0.0513 -0.1261
  158SAPE  H14R17671   6.901   5.746   9.286  0.6262  0.3331  0.2056
  158SAPE  C21517672   6.846   5.827   9.095  0.0842  0.3931 -0.5635
  158SAPE  H15R17673   6.788   5.737   9.071  0.7643 -0.0079 -0.7204
  158SAPE  C21617674   6.845   5.941   8.991  0.2189  0.2062 -0.0446
  158SAPE  H16R17675   6.908   5.898   8.910 -0.8633 -0.6505 -0.4559
  158SAPE  H16S17676   6.890   6.037   9.024  0.1354 -0.1804  1.2558
  158SAPE  C21717677   6.708   5.972   8.931 -0.1760 -0.2963  0.0648
  158SAPE  H17R17678   6.715   6.061   8.866  1.2547  0.6045  1.3792
  158SAPE  H17S17679   6.640   5.996   9.016 -0.8072  0.1323 -0.5446
  158SAPE  C21817680   6.640   5.850   8.860 -0.0956 -0.2169  0.7095
  158SAPE  H18R17681   6.628   5.769   8.935  0.6714 -0.5835  0.4497
  158SAPE  H18S17682   6.711   5.819   8.780 -0.8224  0.8728 -0.3913
  158SAPE  C21917683   6.510   5.884   8.786  0.7920  0.0517 -0.6425
  158SAPE  H19R17684   6.513   5.987   8.744 -0.2880  0.6857  0.7690
  158SAPE  H19S17685   6.430   5.881   8.862  2.8772  1.8140  1.8022
  158SAPE  C22017686   6.469   5.782   8.678 -0.1199 -0.1828  0.5716
  158SAPE  H20R17687   6.444   5.687   8.731 -0.4563 -0.4367 -0.0318
  158SAPE  H20S17688   6.558   5.760   8.616 -0.2209  0.7664  0.0869
  158SAPE  H20T17689   6.388   5.828   8.618 -0.4573  1.1247  1.9770
  158SAPE   C3317690   7.172   6.826   9.824 -0.1000 -0.6263  0.5526
  158SAPE   H3X17691   7.199   6.720   9.805 -0.0057 -0.5195  0.0576
  158SAPE   H3Y17692   7.274   6.869   9.838 -0.6192  1.0402 -0.4524
  158SAPE   C3417693   7.121   6.890   9.687 -0.4519  0.8515  0.1933
  158SAPE   H4X17694   7.087   6.995   9.697 -2.1158  0.2143  1.9318
  158SAPE   H4Y17695   7.025   6.838   9.663 -0.2906 -0.1083  1.5565
  158SAPE   C3517696   7.214   6.864   9.571 -0.4055  0.0726 -0.4773
  158SAPE   H5X17697   7.257   6.761   9.572 -0.1072  0.1740  1.6837
  158SAPE   H5Y17698   7.297   6.932   9.598  0.0945 -1.2281  1.5220
  158SAPE   C3617699   7.153   6.873   9.435 -0.3105  0.0713  0.4615
  158SAPE   H6X17700   7.135   6.979   9.408 -0.7614  0.1580  1.0930
  158SAPE   H6Y17701   7.059   6.816   9.447  1.7077 -3.0099  3.3687
  158SAPE   C3717702   7.242   6.805   9.328 -0.3745 -0.3904  0.4292
  158SAPE   H7X17703   7.269   6.705   9.369  1.8646 -0.1921 -0.4105
  158SAPE   H7Y17704   7.337   6.858   9.306 -0.4082 -0.7657 -0.7054
  158SAPE   C3817705   7.171   6.780   9.192 -0.0216 -0.1777  0.1623
  158SAPE   H8X17706   7.092   6.706   9.217 -0.9987 -1.0195 -4.6069
  158SAPE   H8Y17707   7.243   6.749   9.113  0.5996 -0.1089  0.6853
  158SAPE   C3917708   7.109   6.914   9.130 -0.3186  0.1789  0.1645
  158SAPE   H9X17709   7.165   7.005   9.160 -1.1142  1.5151 -2.1294
  158SAPE   H9Y17710   7.007   6.908   9.174 -1.1463 -0.3417 -1.7192
  158SAPE  C31017711   7.101   6.922   8.977 -0.4628  0.4738 -0.2578
  158SAPE  H10X17712   7.016   6.984   8.943 -0.7772  0.5363  0.6124
  158SAPE  H10Y17713   7.085   6.820   8.934 -0.1976  0.0025  0.7300
  158SAPE  C31117714   7.221   6.995   8.916 -0.4411  0.9244 -0.1354
  158SAPE  H11X17715   7.308   6.929   8.938 -1.0890 -1.2284 -3.2937
  158SAPE  H11Y17716   7.235   7.091   8.970 -3.5572  1.7752 -0.6551
  158SAPE  C31217717   7.202   7.011   8.762  0.5117 -0.4841  0.1350
  158SAPE  H12X17718   7.122   7.084   8.737  2.2721  1.0195 -1.3831
  158SAPE  H12Y17719   7.176   6.919   8.705 -0.0751  1.2225 -2.5140
  158SAPE  C31317720   7.325   7.061   8.675 -0.4377  0.4599 -0.3551
  158SAPE  H13X17721   7.299   7.049   8.567 -0.2059  3.3156 -0.8169
  158SAPE  H13Y17722   7.416   6.999   8.691  0.4018  1.9004  0.6969
  158SAPE  C31417723   7.370   7.202   8.699 -0.0176 -0.4867 -0.1507
  158SAPE  H14X17724   7.455   7.222   8.630  1.8970 -2.3629  1.5273
  158SAPE  H14Y17725   7.411   7.211   8.802 -0.0417  0.1388 -0.1933
  158SAPE  C31517726   7.265   7.315   8.678  0.5184  1.0791  0.1015
  158SAPE  H15X17727   7.190   7.295   8.757 -0.0240  1.3709 -0.3361
  158SAPE  H15Y17728   7.212   7.320   8.581 -0.6090  0.1355  0.6481
  158SAPE  C31617729   7.337   7.451   8.719  0.1064  0.2174  0.0819
  158SAPE  H16X17730   7.399   7.483   8.631 -2.1792 -0.2630 -1.8008
  158SAPE  H16Y17731   7.404   7.423   8.803 -0.1176  0.3628  0.3093
  158SAPE  C31717732   7.248   7.564   8.769 -0.0059  0.3804 -0.1396
  158SAPE  H17X17733   7.160   7.526   8.824  0.2796 -0.7092 -0.4045
  158SAPE  H17Y17734   7.209   7.622   8.682  0.4548  0.5017 -0.2699
  158SAPE  C31817735   7.334   7.655   8.866 -0.3426 -0.5790  0.0272
  158SAPE  H18X17736   7.371   7.585   8.943  0.2493  1.1040  1.3276
  158SAPE  H18Y17737   7.263   7.731   8.907  0.0804 -1.0352  1.6633
  158SAPE  H18Z17738   7.422   7.710   8.828 -1.4320  2.1458  1.1718
  159SAPE     N17739   0.405   5.258   6.299 -0.4938 -0.7097  0.0417
  159SAPE   HN117740   0.303   5.237   6.295 -0.5544 -0.4615  0.2659
  159SAPE   HN217741   0.405   5.353   6.256 -1.2325 -1.0247 -0.6843
  159SAPE   HN317742   0.449   5.194   6.230 -0.4551  0.1991 -0.8091
  159SAPE   C1217743   0.458   5.250   6.439 -0.4163 -0.1803 -0.1085
  159SAPE  H12A17744   0.396   5.307   6.511 -0.4958 -1.2532  0.7023
  159SAPE  H12B17745   0.557   5.301   6.443 -0.8303  0.5828  0.6241
  159SAPE   C1117746   0.472   5.106   6.484  0.0850 -0.0176  0.1978
  159SAPE  H11A17747   0.369   5.064   6.485 -0.3298  0.9670  1.5013
  159SAPE  H11B17748   0.516   5.101   6.586  1.9245  2.1720 -0.4004
  159SAPE     P17749   0.583   4.894   6.383  0.3034 -0.4508  0.1436
  159SAPE   O1317750   0.478   4.830   6.305  0.4022  0.3316  0.0020
  159SAPE   O1417751   0.722   4.869   6.358 -0.4408  0.1613  0.1360
  159SAPE   O1217752   0.559   5.049   6.387 -0.2362 -0.6203 -0.2636
  159SAPE   O1117753   0.555   4.853   6.531  0.4957 -0.0898  0.0754
  159SAPE    C117754   0.656   4.877   6.630  0.2512  0.1806  1.2852
  159SAPE    HA17755   0.747   4.819   6.605 -0.2421 -0.0999  0.0276
  159SAPE    HB17756   0.684   4.984   6.636 -0.2286  0.4279 -0.2573
  159SAPE    C217757   0.597   4.842   6.766  0.0384  0.1422 -0.6806
  159SAPE    HS17758   0.508   4.908   6.775 -0.3295 -0.3796 -0.3629
  159SAPE   O2117759   0.707   4.872   6.859 -0.1999  0.0718  0.5367
  159SAPE   C2117760   0.690   4.974   6.938 -0.2806  1.2663 -0.0228
  159SAPE   O2217761   0.589   5.038   6.960  0.1284 -0.0947 -0.0256
  159SAPE   C2217762   0.813   4.985   7.025 -0.1472 -0.3817 -0.2784
  159SAPE   H2R17763   0.901   5.006   6.960 -1.0824 -0.1205 -1.4877
  159SAPE   H2S17764   0.785   5.073   7.086 -0.7362  1.0185 -2.4342
  159SAPE    C317765   0.555   4.692   6.790 -0.0482 -0.2480  0.1279
  159SAPE    HX17766   0.639   4.621   6.774  0.1110 -0.6918  2.4991
  159SAPE    HY17767   0.470   4.672   6.722 -1.1277  1.5533  0.8783
  159SAPE   O3117768   0.521   4.674   6.929  0.0428 -0.6295 -0.4684
  159SAPE   C3117769   0.400   4.710   6.963  0.0419 -0.1205 -0.3056
  159SAPE   O3217770   0.309   4.746   6.891 -0.0910 -0.2328 -0.2797
  159SAPE   C3217771   0.390   4.706   7.113  0.7960 -1.3530 -0.0673
  159SAPE   H2X17772   0.484   4.746   7.158 -1.0829  1.1150  1.9992
  159SAPE   H2Y17773   0.360   4.602   7.137  1.9523 -1.7214 -0.1664
  159SAPE   C2317774   0.835   4.862   7.116 -1.2672 -0.7755 -0.1709
  159SAPE   H3R17775   0.828   4.777   7.044  0.6343 -1.1174  0.0033
  159SAPE   H3S17776   0.753   4.860   7.191 -1.4976  0.4043 -0.3850
  159SAPE   C2417777   0.969   4.856   7.190 -0.1440  0.2292 -0.0767
  159SAPE   H4R17778   0.981   4.752   7.226  0.3240 -0.1340 -1.2123
  159SAPE   H4S17779   0.964   4.932   7.270  0.1195  2.1863 -1.8268
  159SAPE   C2517780   1.084   4.888   7.096 -0.1811  0.8155 -0.1041
  159SAPE   H5R17781   1.068   4.842   6.998  1.4024  0.2899 -0.1451
  159SAPE   C2617782   1.203   4.948   7.126 -0.2160  0.3472  0.1774
  159SAPE   H6R17783   1.278   4.962   7.047  0.7445 -1.3308  0.7362
  159SAPE   C2717784   1.241   4.997   7.263 -0.2346  0.1237 -0.1243
  159SAPE   H7R17785   1.197   4.939   7.347 -0.4899  1.4009  0.6420
  159SAPE   H7S17786   1.202   5.101   7.264  0.9001  0.5694 -0.9348
  159SAPE   C2817787   1.394   4.987   7.279  0.4501  0.3653 -1.0260
  159SAPE   H8R17788   1.442   4.912   7.214  1.3650 -1.2577  1.3720
  159SAPE   C2917789   1.473   5.045   7.372  0.1672 -0.3145 -0.0081
  159SAPE   H9R17790   1.577   5.009   7.372  0.0770 -0.6410  1.1980
  159SAPE  C21017791   1.429   5.146   7.474 -0.3628 -0.1166  0.5986
  159SAPE  H10R17792   1.345   5.108   7.536 -0.4991 -0.7984  0.0097
  159SAPE  H10S17793   1.384   5.226   7.410  0.4701  0.5572  0.8346
  159SAPE  C21117794   1.555   5.194   7.547  0.5467 -0.0180  0.2797
  159SAPE  H11R17795   1.616   5.244   7.470  1.3133  0.2021  1.0164
  159SAPE  C21217796   1.587   5.193   7.674  0.1732 -0.4514 -0.5882
  159SAPE  H12R17797   1.685   5.230   7.707 -0.0476  0.1990 -0.6370
  159SAPE  C21317798   1.497   5.143   7.788  0.7476  0.2121  0.1523
  159SAPE  H13R17799   1.417   5.077   7.748  1.4365  0.2731 -1.4096
  159SAPE  H13S17800   1.453   5.232   7.838  0.4287 -0.9820  2.0970
  159SAPE  C21417801   1.572   5.061   7.894  0.5788 -0.1065  0.2869
  159SAPE  H14R17802   1.658   5.009   7.849  1.2859  2.1160 -1.0761
  159SAPE  C21517803   1.565   5.070   8.030 -0.2433 -0.7020  0.1868
  159SAPE  H15R17804   1.639   5.013   8.088  0.8303 -0.2326 -0.6812
  159SAPE  C21617805   1.478   5.168   8.097  0.6467 -0.5863  0.0803
  159SAPE  H16R17806   1.422   5.108   8.172 -0.7590  1.0021  0.3604
  159SAPE  H16S17807   1.400   5.213   8.033 -1.1106 -2.5960  0.6685
  159SAPE  C21717808   1.550   5.279   8.182 -0.0225 -0.3894 -0.5174
  159SAPE  H17R17809   1.603   5.348   8.112  0.5495  1.4823  1.6414
  159SAPE  H17S17810   1.643   5.244   8.232  0.2239  2.8445  1.6116
  159SAPE  C21817811   1.472   5.345   8.290  0.7370  0.4714 -0.2244
  159SAPE  H18R17812   1.443   5.278   8.374 -0.7837  0.7358 -0.4975
  159SAPE  H18S17813   1.376   5.359   8.235  1.4068 -2.2195 -2.3523
  159SAPE  C21917814   1.533   5.473   8.345  0.3275 -0.3556  0.0207
  159SAPE  H19R17815   1.558   5.555   8.273  0.1845  0.3710  0.7877
  159SAPE  H19S17816   1.628   5.447   8.396  1.5672  0.4315 -1.7613
  159SAPE  C22017817   1.444   5.531   8.446  0.7047  0.0749  0.3737
  159SAPE  H20R17818   1.356   5.570   8.391  0.3633 -0.2652  0.6751
  159SAPE  H20S17819   1.474   5.625   8.498  0.3695  0.0338  0.6480
  159SAPE  H20T17820   1.419   5.454   8.522  2.0091 -0.7407  0.0046
  159SAPE   C3317821   0.265   4.793   7.153 -0.1651  0.6202  0.3065
  159SAPE   H3X17822   0.175   4.732   7.129 -0.3862 -0.8042  4.0712
  159SAPE   H3Y17823   0.258   4.892   7.103 -1.4793  1.7057  2.4652
  159SAPE   C3417824   0.257   4.835   7.304  0.4996 -0.2029 -0.2078
  159SAPE   H4X17825   0.350   4.882   7.343 -0.6542  0.2214  2.2166
  159SAPE   H4Y17826   0.240   4.739   7.357  0.8682 -0.2932 -0.2452
  159SAPE   C3517827   0.133   4.920   7.340 -0.0923  0.3832 -0.8051
  159SAPE   H5X17828   0.034   4.878   7.311 -1.2430  2.8295 -0.7262
  159SAPE   H5Y17829   0.138   5.005   7.268 -0.8700  2.4013  1.3669
  159SAPE   C3617830   0.134   4.969   7.491  0.1688 -0.0637  0.1987
  159SAPE   H6X17831   0.047   5.038   7.496 -0.9827 -1.2798 -1.6786
  159SAPE   H6Y17832   0.230   5.022   7.506  1.1974 -1.8662  0.2887
  159SAPE   C3717833   0.122   4.863   7.605  0.1283  0.1920 -0.3717
  159SAPE   H7X17834   0.201   4.786   7.596  0.2081 -0.0868  2.0529
  159SAPE   H7Y17835   0.024   4.811   7.605 -0.0689  0.4793 -2.7764
  159SAPE   C3817836   0.144   4.938   7.737  0.3585 -0.6177  0.6680
  159SAPE   H8X17837   0.065   5.016   7.737  1.1206  0.2499 -1.9716
  159SAPE   H8Y17838   0.246   4.982   7.741  1.1974 -2.3896 -0.3801
  159SAPE   C3917839   0.122   4.861   7.866  0.5282  0.4680 -0.6832
  159SAPE   H9X17840   0.194   4.777   7.864 -0.8044 -0.7245 -0.0688
  159SAPE   H9Y17841   0.022   4.812   7.873  1.0751 -0.5246  0.6290
  159SAPE  C31017842   0.121   4.953   7.995  0.5487 -0.0444  0.0491
  159SAPE  H10X17843   0.053   5.034   7.962  0.8843  1.0051  1.7562
  159SAPE  H10Y17844   0.219   4.995   8.026  0.2418 -0.6765  2.0303
  159SAPE  C31117845   0.052   4.876   8.113  0.2127  0.2682 -0.4407
  159SAPE  H11X17846   0.112   4.786   8.136  1.6678  1.6190  1.3782
  159SAPE  H11Y17847  -0.052   4.842   8.090 -0.9098  2.5296  0.8843
  159SAPE  C31217848   0.045   4.971   8.235  0.3119  0.3606 -0.2613
  159SAPE  H12X17849  -0.008   5.066   8.210 -1.2743 -0.0144  1.4486
  159SAPE  H12Y17850   0.141   4.993   8.285 -1.0421 -1.8558  3.7096
  159SAPE  C31317851  -0.042   4.903   8.339  0.3387  0.6109 -1.0555
  159SAPE  H13X17852   0.022   4.818   8.371 -0.7279  0.8333  2.1363
  159SAPE  H13Y17853  -0.138   4.868   8.295  0.5467 -1.0656 -0.2605
  159SAPE  C31417854  -0.076   4.983   8.466  0.5761 -0.5381  0.4772
  159SAPE  H14X17855   0.007   5.054   8.481 -0.3763  0.8860 -0.7216
  159SAPE  H14Y17856  -0.091   4.921   8.557 -3.0095  3.1269  2.7296
  159SAPE  C31517857  -0.199   5.066   8.435  0.2952 -0.0709  0.0696
  159SAPE  H15X17858  -0.280   4.992   8.419 -0.9471  1.1551  0.4939
  159SAPE  H15Y17859  -0.179   5.117   8.338  0.0119  0.6944  0.4081
  159SAPE  C31617860  -0.235   5.181   8.535  0.6879 -0.0376 -0.0908
  159SAPE  H16X17861  -0.137   5.232   8.547  1.1346 -0.6282 -1.0786
  159SAPE  H16Y17862  -0.265   5.147   8.636  0.4347  0.1702 -0.0925
  159SAPE  C31717863  -0.336   5.283   8.489  1.0036  0.8929  0.2699
  159SAPE  H17X17864  -0.307   5.298   8.383  1.7251 -1.8722 -0.0085
  159SAPE  H17Y17865  -0.327   5.371   8.556 -3.7403  2.3609 -0.6542
  159SAPE  C31817866  -0.475   5.219   8.502  0.6080  0.0557 -0.2876
  159SAPE  H18X17867  -0.492   5.161   8.595 -0.5645  0.8959  0.0315
  159SAPE  H18Y17868  -0.509   5.163   8.412 -0.2324  0.8392 -0.4666
  159SAPE  H18Z17869  -0.556   5.295   8.505  0.3012 -0.2684 -0.3191
  160SAPE     N17870   0.284   4.649   6.371 -0.0742  0.4261  0.1810
  160SAPE   HN117871   0.375   4.693   6.347 -0.5535  1.2563 -0.1782
  160SAPE   HN217872   0.309   4.573   6.436  0.1634  0.5183  0.1983
  160SAPE   HN317873   0.241   4.617   6.282  0.3258  0.6621 -0.1048
  160SAPE   C1217874   0.196   4.744   6.436 -0.1035  0.3774 -0.2534
  160SAPE  H12A17875   0.260   4.782   6.518  0.1430  0.2279 -0.3739
  160SAPE  H12B17876   0.103   4.697   6.475 -0.7558  1.9721  0.1918
  160SAPE   C1117877   0.168   4.868   6.351  0.0064 -0.3403  0.3478
  160SAPE  H11A17878   0.109   4.821   6.269 -0.6789 -2.0504  1.7617
  160SAPE  H11B17879   0.254   4.925   6.312  0.6324 -0.3210  1.7015
  160SAPE     P17880   0.080   5.099   6.445 -0.2123  0.1906 -0.2380
  160SAPE   O1317881   0.157   5.155   6.331  0.3105 -0.5304 -0.0936
  160SAPE   O1417882  -0.053   5.154   6.483 -0.2372  0.3020 -0.0195
  160SAPE   O1217883   0.068   4.945   6.422  0.1847 -0.1706 -0.3829
  160SAPE   O1117884   0.172   5.098   6.571  0.1136  0.4616 -0.3544
  160SAPE    C117885   0.140   5.018   6.684  0.2029 -0.5353  0.5871
  160SAPE    HA17886   0.053   4.949   6.680 -0.9119  0.8019  0.8807
  160SAPE    HB17887   0.230   4.953   6.688  0.1759 -0.6244 -0.2196
  160SAPE    C217888   0.139   5.094   6.819 -0.0749  0.2906 -0.4175
  160SAPE    HS17889   0.115   5.022   6.900 -0.7369  2.7244  1.6559
  160SAPE   O2117890   0.033   5.191   6.825  0.0208  0.1438  0.2955
  160SAPE   C2117891  -0.082   5.136   6.826  0.0338 -1.0772  0.1341
  160SAPE   O2217892  -0.120   5.025   6.845 -0.0486 -0.9462 -0.0919
  160SAPE   C2217893  -0.179   5.249   6.818 -0.7568 -0.5263 -0.2413
  160SAPE   H2R17894  -0.129   5.349   6.820 -1.9604  0.0938 -0.0886
  160SAPE   H2S17895  -0.234   5.237   6.722  0.2773 -1.1264 -0.7770
  160SAPE    C317896   0.281   5.156   6.821 -0.7701  0.4797 -0.0587
  160SAPE    HX17897   0.299   5.222   6.733  1.5863  1.1142  0.8189
  160SAPE    HY17898   0.351   5.070   6.813 -2.3083 -0.6152 -2.9964
  160SAPE   O3117899   0.317   5.234   6.936 -0.0507 -0.3952 -0.2488
  160SAPE   C3117900   0.432   5.298   6.921  0.1433 -0.7822  0.5162
  160SAPE   O3217901   0.508   5.292   6.827 -0.2803 -0.3251 -0.5205
  160SAPE   C3217902   0.461   5.384   7.049  0.3597  0.8669  0.2019
  160SAPE   H2X17903   0.363   5.422   7.085  0.5820  1.2257  0.4377
  160SAPE   H2Y17904   0.513   5.475   7.012  1.7302 -0.6924 -2.0034
  160SAPE   C2317905  -0.289   5.265   6.935  0.0797 -0.2750  0.2155
  160SAPE   H3R17906  -0.344   5.169   6.941 -0.7346 -0.3161 -4.1891
  160SAPE   H3S17907  -0.353   5.348   6.897 -0.0293 -0.1938  0.5709
  160SAPE   C2417908  -0.233   5.309   7.068  0.0449  0.3238  0.2407
  160SAPE   H4R17909  -0.316   5.336   7.136  0.5368 -0.2119  1.0717
  160SAPE   H4S17910  -0.175   5.403   7.054  0.5390  0.0111  0.1454
  160SAPE   C2517911  -0.145   5.209   7.148 -0.8290  0.5239  0.3575
  160SAPE   H5R17912  -0.038   5.210   7.121 -1.0140  1.0470 -0.3954
  160SAPE   C2617913  -0.193   5.103   7.226  0.2760 -0.7358 -0.5370
  160SAPE   H6R17914  -0.117   5.044   7.278  3.2569  1.5633 -1.9503
  160SAPE   C2717915  -0.336   5.083   7.260 -0.3544 -0.4270  0.7785
  160SAPE   H7R17916  -0.355   4.976   7.281 -1.0457 -0.8850 -1.8656
  160SAPE   H7S17917  -0.395   5.089   7.166  1.2561  0.6468 -0.2162
  160SAPE   C2817918  -0.383   5.179   7.363  0.3164 -0.6212  0.7763
  160SAPE   H8R17919  -0.460   5.242   7.317  0.4673  0.0823  1.4539
  160SAPE   C2917920  -0.359   5.195   7.495 -0.8668 -0.2485  0.0010
  160SAPE   H9R17921  -0.409   5.274   7.552 -0.7213  0.1277 -0.3901
  160SAPE  C21017922  -0.264   5.116   7.577 -0.5766  0.1324  0.3343
  160SAPE  H10R17923  -0.257   5.173   7.672 -0.7044  2.2877 -0.8945
  160SAPE  H10S17924  -0.158   5.115   7.543 -0.7402  2.4945 -0.4280
  160SAPE  C21117925  -0.303   4.976   7.602  0.6689 -0.0821  0.2580
  160SAPE  H11R17926  -0.269   4.903   7.527  0.1788  1.4790 -1.5459
  160SAPE  C21217927  -0.370   4.936   7.713  0.2592 -0.1659 -0.6268
  160SAPE  H12R17928  -0.401   4.830   7.712  1.2712 -0.4659 -1.4086
  160SAPE  C21317929  -0.407   5.022   7.834  0.2361 -0.6975 -0.1745
  160SAPE  H13R17930  -0.518   5.021   7.838  0.1996  1.7390  2.3076
  160SAPE  H13S17931  -0.389   5.130   7.815  1.1401 -0.1934  2.9703
  160SAPE  C21417932  -0.344   4.982   7.967 -0.1853  0.4796  0.1706
  160SAPE  H14R17933  -0.239   5.013   7.977 -0.5745  1.3865  1.8684
  160SAPE  C21517934  -0.391   4.912   8.070  0.5437 -0.0493  0.1089
  160SAPE  H15R17935  -0.324   4.914   8.156 -1.6038  2.9636  1.9154
  160SAPE  C21617936  -0.535   4.848   8.081 -0.3117 -0.1472  0.4150
  160SAPE  H16R17937  -0.520   4.738   8.080 -0.9627 -0.2588  1.5843
  160SAPE  H16S17938  -0.585   4.884   7.989  0.4818  1.1839  0.4845
  160SAPE  C21717939  -0.616   4.879   8.205  0.3479  0.1660 -0.2529
  160SAPE  H17R17940  -0.705   4.818   8.178 -0.5181  1.4104 -0.2758
  160SAPE  H17S17941  -0.639   4.987   8.197  0.8492  0.6174  2.8996
  160SAPE  C21817942  -0.545   4.853   8.333  0.3067 -0.1929 -0.0474
  160SAPE  H18R17943  -0.501   4.952   8.360 -1.5467  0.4534  0.8232
  160SAPE  H18S17944  -0.468   4.775   8.320  0.2861  0.0561 -1.9271
  160SAPE  C21917945  -0.639   4.793   8.436  0.2279  0.3315 -0.2801
  160SAPE  H19R17946  -0.676   4.692   8.407  0.0204  1.0954 -3.0051
  160SAPE  H19S17947  -0.731   4.854   8.451 -0.6122 -1.5831  3.6267
  160SAPE  C22017948  -0.569   4.781   8.572  0.4978 -0.6652  0.1247
  160SAPE  H20R17949  -0.626   4.715   8.640  0.7857  0.1028  1.1359
  160SAPE  H20S17950  -0.565   4.884   8.614  0.4604  0.3345 -2.1521
  160SAPE  H20T17951  -0.468   4.735   8.564  0.0170 -1.4366 -2.2358
  160SAPE   C3317952   0.551   5.315   7.151  0.0328 -0.8735  0.3206
  160SAPE   H3X17953   0.602   5.392   7.213 -2.4116  0.1447  1.1834
  160SAPE   H3Y17954   0.632   5.262   7.097 -0.3044  0.2788 -1.3885
  160SAPE   C3417955   0.460   5.236   7.244 -0.6831  0.1635 -0.8441
  160SAPE   H4X17956   0.379   5.195   7.180 -0.2714  2.8638 -3.2915
  160SAPE   H4Y17957   0.415   5.312   7.312  1.0580 -2.1502  3.2204
  160SAPE   C3517958   0.532   5.131   7.324 -0.3749 -0.2047  0.3525
  160SAPE   H5X17959   0.574   5.056   7.253 -1.3152  0.2042 -0.6597
  160SAPE   H5Y17960   0.469   5.065   7.388 -1.4319 -1.4578 -1.8323
  160SAPE   C3617961   0.657   5.183   7.397 -0.0764  0.2602 -0.4811
  160SAPE   H6X17962   0.619   5.229   7.491  0.7357 -2.3836  1.2662
  160SAPE   H6Y17963   0.713   5.267   7.351  3.1035 -1.2659  0.3372
  160SAPE   C3717964   0.755   5.073   7.445 -0.6230 -0.5384 -0.2810
  160SAPE   H7X17965   0.792   5.036   7.347  1.8209 -0.8339  0.6989
  160SAPE   H7Y17966   0.721   4.984   7.501  0.3901 -1.0795 -0.5064
  160SAPE   C3817967   0.880   5.123   7.520  0.0516 -0.1299  0.3694
  160SAPE   H8X17968   0.840   5.171   7.612 -0.7612  0.9340 -0.5242
  160SAPE   H8Y17969   0.915   5.205   7.454 -0.7871  0.7534  1.0018
  160SAPE   C3917970   0.974   5.007   7.552  0.1874 -0.6948  0.2162
  160SAPE   H9X17971   1.039   4.976   7.468 -0.6526 -1.3823 -0.2081
  160SAPE   H9Y17972   0.914   4.915   7.572 -0.7692 -0.8663 -2.9278
  160SAPE  C31017973   1.082   5.036   7.656 -0.0326  0.5749  0.2339
  160SAPE  H10X17974   1.147   5.120   7.622  0.4825  0.0268 -0.1571
  160SAPE  H10Y17975   1.139   4.943   7.672 -2.4261 -1.3589 -1.6963
  160SAPE  C31117976   1.020   5.093   7.785 -0.0710  0.7927  0.3766
  160SAPE  H11X17977   0.952   5.019   7.833 -0.9280  0.7597 -0.8312
  160SAPE  H11Y17978   0.958   5.185   7.778 -0.4173  0.4951 -0.7978
  160SAPE  C31217979   1.135   5.137   7.882  1.3840 -0.7480 -0.2752
  160SAPE  H12X17980   1.224   5.183   7.834  0.1021  1.3343 -0.8087
  160SAPE  H12Y17981   1.163   5.035   7.916  0.6242 -0.5731  0.9689
  160SAPE  C31317982   1.087   5.225   7.997  0.4735  0.1416 -0.0536
  160SAPE  H13X17983   1.078   5.331   7.965 -0.4808  0.7467  2.0309
  160SAPE  H13Y17984   1.170   5.222   8.071  0.2970 -1.4735  0.1174
  160SAPE  C31417985   0.959   5.168   8.067  0.2103 -0.4740  0.0779
  160SAPE  H14X17986   0.991   5.079   8.126 -0.4484  0.5245  2.0560
  160SAPE  H14Y17987   0.876   5.143   7.997 -0.3487  0.9225  0.2158
  160SAPE  C31517988   0.910   5.268   8.171  0.4269 -0.3364 -0.1738
  160SAPE  H15X17989   0.861   5.345   8.108  1.6054  1.2121  0.7204
  160SAPE  H15Y17990   1.008   5.294   8.216  0.0669 -1.4143  1.3191
  160SAPE  C31617991   0.798   5.221   8.265  0.5805  0.1249  0.3898
  160SAPE  H16X17992   0.706   5.187   8.213 -0.1002 -1.3481  2.4055
  160SAPE  H16Y17993   0.761   5.318   8.303 -0.6140 -0.7007  1.4246
  160SAPE  C31717994   0.841   5.130   8.380 -0.1860  0.4457  0.9472
  160SAPE  H17X17995   0.930   5.174   8.429  2.1243 -2.1373 -0.6556
  160SAPE  H17Y17996   0.883   5.043   8.325  0.2508 -0.0415  2.0243
  160SAPE  C31817997   0.733   5.087   8.485  0.3425 -0.0795  0.6924
  160SAPE  H18X17998   0.677   5.174   8.525 -1.1272 -0.9179  0.5223
  160SAPE  H18Y17999   0.781   5.041   8.574  2.9788  1.7170  0.3130
  160SAPE  H18Z18000   0.657   5.018   8.443 -0.3947  0.5105  1.0456
  161SAPE     N18001   1.409   2.898   6.485  0.3215  0.7293 -0.7870
  161SAPE   HN118002   1.390   2.847   6.397  3.5772 -0.2846 -1.0318
  161SAPE   HN218003   1.489   2.961   6.465  2.3574 -0.5918  2.3136
  161SAPE   HN318004   1.432   2.842   6.570 -1.4853  1.4480  0.2202
  161SAPE   C1218005   1.290   2.975   6.539 -0.5171 -0.0029  0.7397
  161SAPE  H12A18006   1.240   3.013   6.447 -0.4501 -3.6274 -0.9532
  161SAPE  H12B18007   1.321   3.060   6.603 -1.1951 -1.3095  2.9146
  161SAPE   C1118008   1.174   2.887   6.599  0.1285  0.1318 -0.1028
  161SAPE  H11A18009   1.077   2.926   6.560 -0.3836  1.5648  2.3799
  161SAPE  H11B18010   1.180   2.888   6.710 -1.3971 -1.2685  0.0166
  161SAPE     P18011   1.083   2.665   6.486  0.0916  0.0436 -0.5363
  161SAPE   O1318012   1.015   2.760   6.398  0.0353 -0.1342 -0.0567
  161SAPE   O1418013   1.155   2.561   6.410  0.0311 -0.1115  0.4930
  161SAPE   O1218014   1.185   2.744   6.579 -0.4266 -0.0772 -0.2756
  161SAPE   O1118015   0.975   2.607   6.591  0.8725 -0.2969  0.0791
  161SAPE    C118016   1.029   2.550   6.712 -0.3177 -0.0505 -0.0055
  161SAPE    HA18017   1.127   2.500   6.699 -0.8734 -0.7839 -1.6429
  161SAPE    HB18018   1.047   2.631   6.786  0.3697 -0.4702  0.3015
  161SAPE    C218019   0.929   2.453   6.774  0.1747 -0.9162  0.5119
  161SAPE    HS18020   0.826   2.493   6.759  0.9644  0.3102 -2.1945
  161SAPE   O2118021   0.955   2.440   6.918  0.2360 -0.3109  0.1128
  161SAPE   C2118022   0.858   2.381   6.987  0.0344 -0.3268  0.0405
  161SAPE   O2218023   0.759   2.331   6.937 -0.2854  0.0578 -0.0809
  161SAPE   C2218024   0.893   2.386   7.131 -0.0519 -0.0313  0.0729
  161SAPE   H2R18025   1.003   2.392   7.139  0.1427  2.1269 -2.6541
  161SAPE   H2S18026   0.841   2.468   7.185  1.6933  0.4439  1.1146
  161SAPE    C318027   0.929   2.312   6.697 -1.1261  0.1771 -0.1909
  161SAPE    HX18028   0.883   2.332   6.598  1.8491  0.8402 -1.5579
  161SAPE    HY18029   0.870   2.230   6.743 -0.4904  1.2159  2.6540
  161SAPE   O3118030   1.068   2.270   6.681  0.5110 -0.0936  0.3136
  161SAPE   C3118031   1.111   2.165   6.759 -0.0599 -0.3836  0.0601
  161SAPE   O3218032   1.059   2.131   6.867  0.2115 -0.4331  0.0496
  161SAPE   C3218033   1.224   2.083   6.694 -0.1513 -0.6107  0.0896
  161SAPE   H2X18034   1.198   2.088   6.587 -1.8144  1.9963  0.5169
  161SAPE   H2Y18035   1.210   1.978   6.729 -2.5881  0.1112  1.5999
  161SAPE   C2318036   0.849   2.254   7.195  0.7692  0.0375 -0.1669
  161SAPE   H3R18037   0.900   2.160   7.163 -0.2481 -0.7652  0.4835
  161SAPE   H3S18038   0.740   2.233   7.193  0.5479  0.1945  3.5214
  161SAPE   C2418039   0.876   2.262   7.348 -0.3411 -0.0359 -0.2352
  161SAPE   H4R18040   0.793   2.319   7.395  0.9030 -0.3129  2.4758
  161SAPE   H4S18041   0.969   2.318   7.368  0.0128 -0.7335  0.1187
  161SAPE   C2518042   0.878   2.126   7.411  0.3003 -0.2704 -0.0379
  161SAPE   H5R18043   0.809   2.050   7.370 -1.1889  0.6947  0.5882
  161SAPE   C2618044   0.926   2.111   7.531  0.6209 -0.4133 -1.0606
  161SAPE   H6R18045   0.924   2.011   7.575 -0.0147  0.2559  0.4795
  161SAPE   C2718046   0.984   2.218   7.619  0.6871 -0.4736 -0.5442
  161SAPE   H7R18047   1.063   2.269   7.560 -0.4962 -0.2791 -2.0165
  161SAPE   H7S18048   1.024   2.167   7.710  0.1263 -2.4153 -1.3324
  161SAPE   C2818049   0.878   2.317   7.667 -0.2251  0.2506 -0.6383
  161SAPE   H8R18050   0.812   2.363   7.591 -1.5809  2.9783  1.9529
  161SAPE   C2918051   0.827   2.329   7.794  0.8182 -0.4361  0.3266
  161SAPE   H9R18052   0.742   2.397   7.807  1.6819  1.0366 -1.3575
  161SAPE  C21018053   0.883   2.268   7.919 -0.2850  0.4605 -0.4109
  161SAPE  H10R18054   0.986   2.305   7.939 -0.9314  2.1348  0.0037
  161SAPE  H10S18055   0.907   2.164   7.890  1.4408  0.9203 -0.7311
  161SAPE  C21118056   0.801   2.266   8.044  0.5928 -0.1892  0.8043
  161SAPE  H11R18057   0.702   2.220   8.033  2.0570 -3.4497 -0.1701
  161SAPE  C21218058   0.846   2.298   8.165 -0.1787 -0.6637 -0.5681
  161SAPE  H12R18059   0.778   2.280   8.251 -0.0450 -1.8464 -0.6859
  161SAPE  C21318060   0.986   2.346   8.206 -0.5780 -0.1742 -0.2183
  161SAPE  H13R18061   0.979   2.399   8.303 -0.6904 -2.0220  0.8249
  161SAPE  H13S18062   1.011   2.429   8.137  0.0594  1.0209  1.4124
  161SAPE  C21418063   1.096   2.241   8.198 -0.0217  0.4356  0.2886
  161SAPE  H14R18064   1.156   2.231   8.107  1.5329 -0.0690  1.3345
  161SAPE  C21518065   1.136   2.166   8.299  0.3664  0.2514 -0.3878
  161SAPE  H15R18066   1.209   2.085   8.283 -0.8737 -0.7766 -1.0657
  161SAPE  C21618067   1.074   2.170   8.435 -0.1725 -0.2527 -0.0901
  161SAPE  H16R18068   1.010   2.259   8.452 -0.1667 -0.6572  2.5784
  161SAPE  H16S18069   1.145   2.178   8.520  0.1614  0.8639 -0.4611
  161SAPE  C21718070   0.982   2.043   8.454 -0.2459 -0.0971  0.1058
  161SAPE  H17R18071   1.046   1.956   8.430 -1.1462  0.2836 -4.7899
  161SAPE  H17S18072   0.891   2.052   8.391 -0.3846 -2.3245 -0.0665
  161SAPE  C21818073   0.928   2.026   8.595  0.3976 -0.4630 -0.5814
  161SAPE  H18R18074   1.020   2.018   8.656  2.2526  1.7604 -2.8636
  161SAPE  H18S18075   0.872   1.930   8.603  0.2251 -0.3072  0.2328
  161SAPE  C21918076   0.821   2.131   8.635  0.5025  0.4483  0.3987
  161SAPE  H19R18077   0.853   2.233   8.608 -0.4101  0.4607 -0.7292
  161SAPE  H19S18078   0.799   2.132   8.744 -0.5028  0.0432  0.2172
  161SAPE  C22018079   0.679   2.097   8.578  0.2080 -0.3456 -0.2312
  161SAPE  H20R18080   0.647   1.995   8.610 -2.5915  0.6031  0.2707
  161SAPE  H20S18081   0.694   2.098   8.467  0.6150 -0.6563 -0.1834
  161SAPE  H20T18082   0.595   2.166   8.598 -0.2390 -1.1950  0.9108
  161SAPE   C3318083   1.368   2.140   6.713 -0.0747 -0.1345  0.4301
  161SAPE   H3X18084   1.362   2.236   6.658 -1.7018 -0.1996  0.4242
  161SAPE   H3Y18085   1.435   2.077   6.652  0.4605  1.4077 -0.6315
  161SAPE   C3418086   1.409   2.159   6.860 -0.1440  0.4700 -0.0574
  161SAPE   H4X18087   1.334   2.216   6.919  0.1200  0.6647  0.0858
  161SAPE   H4Y18088   1.505   2.213   6.860 -0.4418  1.0490 -1.5623
  161SAPE   C3518089   1.442   2.020   6.911  0.4121 -0.4782  0.2838
  161SAPE   H5X18090   1.503   1.958   6.841  0.7916 -1.1410  1.1850
  161SAPE   H5Y18091   1.352   1.955   6.912 -2.2478  2.9323  0.1025
  161SAPE   C3618092   1.512   2.019   7.050  0.8054 -1.0286 -0.6860
  161SAPE   H6X18093   1.531   1.911   7.070  2.3005 -0.2092  3.2829
  161SAPE   H6Y18094   1.439   2.045   7.129  0.0383 -1.0544 -1.3775
  161SAPE   C3718095   1.639   2.103   7.061  1.1389 -0.0847  0.1282
  161SAPE   H7X18096   1.606   2.209   7.065  2.3463  0.2759  0.9594
  161SAPE   H7Y18097   1.697   2.094   6.967  0.2697  1.1397 -0.5709
  161SAPE   C3818098   1.731   2.075   7.176  0.0552  0.5408  0.3382
  161SAPE   H8X18099   1.808   2.155   7.189  0.3422  0.0773  1.7461
  161SAPE   H8Y18100   1.792   1.986   7.150 -0.6716 -0.5130  2.0166
  161SAPE   C3918101   1.666   2.049   7.312  0.1325 -0.3434  0.4683
  161SAPE   H9X18102   1.627   1.945   7.308  1.9108 -1.0373  0.6902
  161SAPE   H9Y18103   1.583   2.122   7.321  0.6881  0.1947  1.4585
  161SAPE  C31018104   1.757   2.080   7.432 -0.0307  0.6372  0.3351
  161SAPE  H10X18105   1.764   2.190   7.420  3.1637  0.5064  0.1201
  161SAPE  H10Y18106   1.864   2.052   7.429 -0.0328  0.1018  2.8337
  161SAPE  C31118107   1.695   2.042   7.566  0.2554  0.1154  0.7614
  161SAPE  H11X18108   1.698   1.931   7.573 -1.3070 -0.0315 -0.2194
  161SAPE  H11Y18109   1.587   2.069   7.553  0.5677  1.4421  0.7458
  161SAPE  C31218110   1.749   2.119   7.682 -0.5526 -0.3285  0.1150
  161SAPE  H12X18111   1.760   2.228   7.663  2.5859 -1.0686 -3.3626
  161SAPE  H12Y18112   1.855   2.092   7.702 -0.4388  0.1613  0.1926
  161SAPE  C31318113   1.659   2.097   7.795  0.0797  0.9203  0.4148
  161SAPE  H13X18114   1.633   1.989   7.808 -0.5339  0.9042 -0.7731
  161SAPE  H13Y18115   1.565   2.153   7.775  0.2842  1.0346 -0.2585
  161SAPE  C31418116   1.724   2.143   7.933 -0.5149 -0.3920  0.2696
  161SAPE  H14X18117   1.737   2.252   7.917 -3.0114 -0.4248 -2.7542
  161SAPE  H14Y18118   1.820   2.087   7.935 -0.0264  0.4404  1.1561
  161SAPE  C31518119   1.641   2.110   8.061  0.7498  0.0626  0.7290
  161SAPE  H15X18120   1.598   2.008   8.046  2.7354 -1.0311  2.0396
  161SAPE  H15Y18121   1.556   2.181   8.062  1.1959  0.6417 -0.5961
  161SAPE  C31618122   1.713   2.123   8.202  0.1577  0.0552  1.2090
  161SAPE  H16X18123   1.787   2.206   8.196 -0.8216  0.8829 -0.0058
  161SAPE  H16Y18124   1.770   2.029   8.214 -0.3252 -0.3328  0.5331
  161SAPE  C31718125   1.621   2.149   8.319 -0.0775  0.3878  0.4990
  161SAPE  H17X18126   1.537   2.079   8.304 -0.0464  0.5706 -0.6229
  161SAPE  H17Y18127   1.573   2.249   8.312 -0.7857  0.0642  0.7048
  161SAPE  C31818128   1.690   2.138   8.454  0.1819 -0.2179 -0.2706
  161SAPE  H18X18129   1.779   2.203   8.464 -1.1418  1.2571  4.8925
  161SAPE  H18Y18130   1.707   2.032   8.484  1.8455  0.3298  0.8461
  161SAPE  H18Z18131   1.611   2.175   8.523  1.2868  0.7960  0.4869
  162SAPE     N18132   0.975   4.821   6.312  0.2249 -0.1548 -0.3572
  162SAPE   HN118133   0.879   4.856   6.328  0.4056  0.4090 -0.4931
  162SAPE   HN218134   1.002   4.865   6.221 -1.7429 -0.6355 -1.2251
  162SAPE   HN318135   0.974   4.718   6.298  0.5707 -0.0430 -1.3079
  162SAPE   C1218136   1.093   4.845   6.407  1.0150  0.2848 -0.4333
  162SAPE  H12A18137   1.095   4.748   6.462 -0.7058 -0.1741 -1.1055
  162SAPE  H12B18138   1.072   4.935   6.470  0.5415 -0.3517  0.3480
  162SAPE   C1118139   1.214   4.861   6.324 -0.6385  0.4769  0.1227
  162SAPE  H11A18140   1.242   4.766   6.274 -0.8218  0.1311  0.6659
  162SAPE  H11B18141   1.307   4.881   6.382 -0.1185 -1.4465  0.0019
  162SAPE     P18142   1.292   5.077   6.196 -0.4017 -0.2981 -0.2036
  162SAPE   O1318143   1.427   5.013   6.184 -0.3068  0.0601 -0.2589
  162SAPE   O1418144   1.248   5.156   6.079  0.0297  0.3896  0.2943
  162SAPE   O1218145   1.191   4.961   6.223  0.0198  0.6852 -0.2108
  162SAPE   O1118146   1.282   5.164   6.332  0.4695  0.3887  0.0990
  162SAPE    C118147   1.160   5.241   6.323  0.4038 -0.5444  0.6209
  162SAPE    HA18148   1.151   5.313   6.239 -3.2364  1.9024  2.8485
  162SAPE    HB18149   1.071   5.175   6.317 -0.5905  0.8784 -2.0637
  162SAPE    C218150   1.138   5.343   6.438  0.1108  1.1481  0.6116
  162SAPE    HS18151   1.232   5.402   6.432  1.7191 -1.2482  1.0049
  162SAPE   O2118152   1.133   5.273   6.564  0.3767 -0.2733  0.0381
  162SAPE   C2118153   1.189   5.337   6.667  0.5308  0.4371 -0.4329
  162SAPE   O2218154   1.232   5.448   6.658  0.2515 -0.1380 -0.2974
  162SAPE   C2218155   1.177   5.262   6.799 -0.0843  0.0543 -0.1228
  162SAPE   H2R18156   1.075   5.221   6.812 -0.1273  0.8769  2.9221
  162SAPE   H2S18157   1.259   5.187   6.793 -1.3687 -1.6269  2.0010
  162SAPE    C318158   1.011   5.432   6.425 -0.3230 -0.9060  0.2437
  162SAPE    HX18159   0.922   5.367   6.433 -1.0571 -0.1132 -1.0704
  162SAPE    HY18160   1.008   5.476   6.323  0.8362 -0.4438  0.3934
  162SAPE   O3118161   1.002   5.538   6.527  0.4368  0.3302  0.7814
  162SAPE   C3118162   1.051   5.658   6.502  0.0558 -1.0924  0.4476
  162SAPE   O3218163   1.120   5.699   6.410 -0.0496  0.8477  0.4133
  162SAPE   C3218164   0.984   5.762   6.599  0.6052  0.0465  0.1315
  162SAPE   H2X18165   0.880   5.783   6.567  1.1098 -0.4816 -2.0357
  162SAPE   H2Y18166   1.039   5.857   6.583  0.2030  0.2795  0.1508
  162SAPE   C2318167   1.206   5.359   6.919 -0.3984  0.1014 -0.1094
  162SAPE   H3R18168   1.142   5.450   6.917 -1.1191 -0.2306  2.5574
  162SAPE   H3S18169   1.308   5.402   6.919  0.7448 -2.2833  2.2083
  162SAPE   C2418170   1.191   5.296   7.061  0.4388 -0.5374 -0.0854
  162SAPE   H4R18171   1.232   5.373   7.129 -2.5018  0.5725  0.5693
  162SAPE   H4S18172   1.248   5.202   7.079 -1.8939 -2.2764 -1.2171
  162SAPE   C2518173   1.045   5.280   7.075  0.4205  0.1901  0.1624
  162SAPE   H5R18174   0.994   5.206   7.014 -2.6933  1.7788  0.6492
  162SAPE   C2618175   0.964   5.346   7.159  0.5101 -0.2231  0.5093
  162SAPE   H6R18176   0.857   5.321   7.163  1.1438 -3.3023  0.0774
  162SAPE   C2718177   1.004   5.455   7.261  0.0060 -0.0116  0.4369
  162SAPE   H7R18178   0.913   5.510   7.291  1.0510  0.7635  2.4083
  162SAPE   H7S18179   1.064   5.534   7.209 -1.5064  1.0678  0.2788
  162SAPE   C2818180   1.082   5.401   7.379  0.2145  0.4669  0.2620
  162SAPE   H8R18181   1.152   5.321   7.350 -1.6403  0.1150 -4.1373
  162SAPE   C2918182   1.070   5.444   7.505 -0.5229  0.6200 -0.5973
  162SAPE   H9R18183   1.133   5.393   7.580 -0.2706  0.2232 -1.0726
  162SAPE  C21018184   0.982   5.547   7.568  0.0538 -0.2401  0.1093
  162SAPE  H10R18185   0.942   5.604   7.481  0.1339 -1.3347 -0.6525
  162SAPE  H10S18186   1.049   5.616   7.624 -1.7052  0.3511  1.5988
  162SAPE  C21118187   0.874   5.499   7.656 -0.2894  0.1696  0.3078
  162SAPE  H11R18188   0.799   5.437   7.606 -3.0759  0.9405  3.1940
  162SAPE  C21218189   0.874   5.514   7.789  0.3365 -0.1519  0.3344
  162SAPE  H12R18190   0.793   5.466   7.845 -0.2600  1.8207  1.2514
  162SAPE  C21318191   0.977   5.588   7.870 -0.0142 -0.1384  0.2907
  162SAPE  H13R18192   1.076   5.601   7.822  0.4229  0.2602  1.2724
  162SAPE  H13S18193   1.010   5.532   7.961 -0.1831 -1.4793 -0.4551
  162SAPE  C21418194   0.935   5.733   7.903  0.4683 -0.0278  0.3282
  162SAPE  H14R18195   0.944   5.804   7.819  0.8859 -0.3406  0.1053
  162SAPE  C21518196   0.887   5.784   8.023 -0.3910  0.5224  0.3275
  162SAPE  H15R18197   0.832   5.879   8.018 -2.0424 -0.4487 -1.0954
  162SAPE  C21618198   0.859   5.710   8.147 -0.0832  0.3801  0.0098
  162SAPE  H16R18199   0.879   5.774   8.235 -2.4567  0.8515  0.2609
  162SAPE  H16S18200   0.912   5.612   8.147 -1.6598 -0.5388 -2.1389
  162SAPE  C21718201   0.707   5.678   8.165  0.0762  0.6367  0.1999
  162SAPE  H17R18202   0.681   5.609   8.081  1.4321  1.0354 -0.5600
  162SAPE  H17S18203   0.652   5.774   8.156 -0.9300  0.0206 -0.4683
  162SAPE  C21818204   0.687   5.612   8.304 -0.0725 -0.2351 -0.2368
  162SAPE  H18R18205   0.690   5.682   8.390  2.0839  0.8052 -1.0841
  162SAPE  H18S18206   0.773   5.546   8.324  0.8580  0.8087 -0.6983
  162SAPE  C21918207   0.553   5.539   8.338 -0.1786 -0.3663  0.0576
  162SAPE  H19R18208   0.560   5.475   8.428  0.2236  1.1569  1.1401
  162SAPE  H19S18209   0.526   5.470   8.254 -1.5686 -0.3475  0.4628
  162SAPE  C22018210   0.441   5.638   8.356 -0.1718 -0.0459 -0.6026
  162SAPE  H20R18211   0.463   5.735   8.406 -3.8430  1.0678 -0.8010
  162SAPE  H20S18212   0.357   5.592   8.414  0.2812  1.9895  1.8428
  162SAPE  H20T18213   0.395   5.678   8.263 -3.3230  1.1447  1.2791
  162SAPE   C3318214   1.007   5.710   6.742  0.0520 -0.2197 -0.0347
  162SAPE   H3X18215   1.114   5.682   6.750 -0.1494 -0.9812  0.0781
  162SAPE   H3Y18216   0.950   5.614   6.740 -0.3945  0.0472 -1.3032
  162SAPE   C3418217   0.968   5.803   6.856 -0.1131 -0.3717  0.1948
  162SAPE   H4X18218   0.857   5.802   6.857 -0.1657  1.4010  2.0201
  162SAPE   H4Y18219   1.006   5.907   6.845 -1.6929  0.1981 -0.2211
  162SAPE   C3518220   1.021   5.751   6.995  0.5029  0.0776  0.0243
  162SAPE   H5X18221   1.127   5.719   6.988  0.6620 -0.0846  2.3659
  162SAPE   H5Y18222   0.959   5.661   7.018 -0.7245  0.9313  0.1616
  162SAPE   C3618223   1.002   5.856   7.110  0.1154 -0.3906 -0.2458
  162SAPE   H6X18224   0.893   5.870   7.120 -0.3502 -2.5467 -1.5143
  162SAPE   H6Y18225   1.044   5.953   7.075 -2.8543  1.1232  0.0387
  162SAPE   C3718226   1.071   5.829   7.242  0.1591 -0.0521 -0.1182
  162SAPE   H7X18227   1.177   5.809   7.217  0.0800 -1.7210  0.7033
  162SAPE   H7Y18228   1.028   5.738   7.290 -1.7427  0.5075 -0.6827
  162SAPE   C3818229   1.040   5.948   7.347 -0.6864 -0.0912  0.4994
  162SAPE   H8X18230   0.933   5.973   7.335 -0.4132  1.7425  1.5454
  162SAPE   H8Y18231   1.111   6.026   7.312  0.0358 -1.3947 -1.0985
  162SAPE   C3918232   1.078   5.917   7.492 -0.6534 -0.0864  0.3063
  162SAPE   H9X18233   1.005   5.840   7.524 -1.4296 -0.0888 -1.3571
  162SAPE   H9Y18234   1.069   6.010   7.554 -1.0962 -0.3607  0.6630
  162SAPE  C31018235   1.213   5.850   7.510  0.0084  0.1277  0.1880
  162SAPE  H10X18236   1.289   5.887   7.438 -1.4485 -0.8954 -2.0280
  162SAPE  H10Y18237   1.196   5.742   7.488 -0.3016 -0.1439  1.6876
  162SAPE  C31118238   1.270   5.848   7.653  0.3425 -0.0459 -0.0042
  162SAPE  H11X18239   1.334   5.761   7.674  0.2617  0.5682  3.2391
  162SAPE  H11Y18240   1.181   5.842   7.720 -0.7663 -0.8099 -1.4791
  162SAPE  C31218241   1.342   5.980   7.679 -0.5185 -0.7648  0.3582
  162SAPE  H12X18242   1.284   6.069   7.648  2.8659  1.6635  0.3893
  162SAPE  H12Y18243   1.428   5.989   7.610 -0.0222  0.5053  1.0989
  162SAPE  C31318244   1.377   6.012   7.822 -0.1057 -0.0949 -0.3875
  162SAPE  H13X18245   1.288   6.038   7.883  0.2253 -0.5394  0.3049
  162SAPE  H13Y18246   1.440   6.103   7.823  0.3617 -0.4016  1.7053
  162SAPE  C31418247   1.456   5.901   7.888 -0.4949 -0.2980 -0.1129
  162SAPE  H14X18248   1.549   5.883   7.831 -0.6307  1.4820 -0.9461
  162SAPE  H14Y18249   1.397   5.807   7.902  0.7210 -1.1948 -0.8467
  162SAPE  C31518250   1.497   5.928   8.034 -0.1870 -0.3672 -0.4570
  162SAPE  H15X18251   1.573   6.008   8.041  1.9501 -2.4350  1.6154
  162SAPE  H15Y18252   1.543   5.839   8.081  1.9543  0.2468 -1.2807
  162SAPE  C31618253   1.384   5.964   8.130 -0.2632  0.0185 -0.1829
  162SAPE  H16X18254   1.351   6.067   8.104 -3.0190 -0.4235  1.1262
  162SAPE  H16Y18255   1.428   5.956   8.232  0.8304 -2.1073 -0.7743
  162SAPE  C31718256   1.262   5.877   8.116 -0.7118 -0.2453  0.3548
  162SAPE  H17X18257   1.231   5.872   8.009  0.1198  4.1817 -0.2523
  162SAPE  H17Y18258   1.177   5.925   8.170  0.9458 -0.2031  3.0727
  162SAPE  C31818259   1.285   5.738   8.174 -0.5412 -0.5827  0.2871
  162SAPE  H18X18260   1.353   5.745   8.261 -0.6736  0.9958  0.2809
  162SAPE  H18Y18261   1.344   5.669   8.110 -0.7667 -2.6806  2.1957
  162SAPE  H18Z18262   1.194   5.689   8.216 -0.7670  1.4700  2.3280
  163SAPE     N18263   5.651   5.119   6.243 -0.0840 -0.0733  0.0803
  163SAPE   HN118264   5.700   5.030   6.266 -1.1838 -0.3437  1.5304
  163SAPE   HN218265   5.612   5.116   6.147 -3.7675 -2.8283  1.4356
  163SAPE   HN318266   5.721   5.194   6.260 -0.6067 -0.0158  2.2987
  163SAPE   C1218267   5.531   5.142   6.331 -0.0720 -0.6138  1.3424
  163SAPE  H12A18268   5.462   5.056   6.315  0.2542 -1.0554  2.2350
  163SAPE  H12B18269   5.483   5.223   6.272 -0.5059 -1.6580  0.2285
  163SAPE   C1118270   5.558   5.161   6.478  0.4792  0.6535 -0.5127
  163SAPE  H11A18271   5.616   5.085   6.534 -0.1174  0.3554 -0.3034
  163SAPE  H11B18272   5.466   5.184   6.535 -0.6237 -1.2601 -1.4218
  163SAPE     P18273   5.594   5.425   6.510 -0.1929  0.0426  0.3896
  163SAPE   O1318274   5.710   5.517   6.521  0.0301 -0.0640  0.1109
  163SAPE   O1418275   5.490   5.463   6.417  0.2049  0.4001 -0.0110
  163SAPE   O1218276   5.646   5.276   6.483 -0.4014  0.2885 -0.3726
  163SAPE   O1118277   5.533   5.417   6.655 -0.4492  0.0100  0.3416
  163SAPE    C118278   5.586   5.331   6.754  0.0582  0.0277 -0.5678
  163SAPE    HA18279   5.506   5.259   6.783 -0.2147 -0.3278 -2.1319
  163SAPE    HB18280   5.680   5.275   6.735  0.2557  0.9838 -2.6465
  163SAPE    C218281   5.637   5.426   6.878 -0.3708 -0.2807  0.7984
  163SAPE    HS18282   5.673   5.367   6.966 -2.6075 -0.7143  1.4769
  163SAPE   O2118283   5.540   5.518   6.919  0.1024  0.1716 -0.1809
  163SAPE   C2118284   5.446   5.463   7.001  0.0638 -0.7144  0.1824
  163SAPE   O2218285   5.458   5.356   7.058  0.5185  0.2074  0.3026
  163SAPE   C2218286   5.329   5.562   7.013 -0.3192 -0.6749  0.0136
  163SAPE   H2R18287   5.374   5.647   7.069  0.7723 -1.6454  0.6602
  163SAPE   H2S18288   5.289   5.598   6.916 -1.3377 -1.4250  0.1371
  163SAPE    C318289   5.754   5.515   6.826 -0.0354 -0.4040  0.3740
  163SAPE    HX18290   5.714   5.588   6.752  1.5229 -0.5196 -0.6284
  163SAPE    HY18291   5.816   5.457   6.754 -0.5526 -0.5995  0.0689
  163SAPE   O3118292   5.820   5.580   6.931  0.1043 -0.2491 -0.0954
  163SAPE   C3118293   5.778   5.705   6.966 -0.6837 -0.5711  0.6324
  163SAPE   O3218294   5.685   5.767   6.917  0.0316  0.0020 -0.0274
  163SAPE   C3218295   5.872   5.754   7.081 -0.4967  0.8864 -0.2791
  163SAPE   H2X18296   5.971   5.776   7.035  0.4673  2.9409  2.5053
  163SAPE   H2Y18297   5.878   5.676   7.160 -0.1493  1.6016  0.4137
  163SAPE   C2318298   5.215   5.518   7.105  0.6694 -0.5152  0.9005
  163SAPE   H3R18299   5.216   5.408   7.115  0.6361 -0.5423  0.6196
  163SAPE   H3S18300   5.118   5.543   7.058  1.1609 -2.4738 -1.3054
  163SAPE   C2418301   5.216   5.587   7.242 -0.3903  0.5573  0.1530
  163SAPE   H4R18302   5.237   5.696   7.243 -1.8447  0.8689 -0.5674
  163SAPE   H4S18303   5.300   5.556   7.308 -2.1873  0.6467  2.6406
  163SAPE   C2518304   5.091   5.558   7.322  0.1716 -0.2518  0.7979
  163SAPE   H5R18305   5.015   5.506   7.262  0.9514 -0.1456 -0.3284
  163SAPE   C2618306   5.079   5.580   7.451  0.4303 -0.3682 -0.1884
  163SAPE   H6R18307   4.991   5.542   7.506  1.9291 -0.8764  2.0134
  163SAPE   C2718308   5.177   5.652   7.540 -0.8958 -0.0276  0.3551
  163SAPE   H7R18309   5.121   5.713   7.614  3.0190  0.6702  3.1197
  163SAPE   H7S18310   5.236   5.724   7.480 -0.5593  0.2875  1.0527
  163SAPE   C2818311   5.258   5.548   7.606 -0.7146 -0.3842 -0.2190
  163SAPE   H8R18312   5.310   5.480   7.537  0.2050 -0.9203  0.9563
  163SAPE   C2918313   5.261   5.532   7.741  0.0371 -1.1806 -0.6069
  163SAPE   H9R18314   5.331   5.460   7.787  2.9446  1.2893 -0.8293
  163SAPE  C21018315   5.186   5.606   7.849 -0.2840 -0.6594  0.5578
  163SAPE  H10R18316   5.128   5.538   7.914 -1.4271  1.5358  1.9589
  163SAPE  H10S18317   5.117   5.682   7.807 -0.3906 -0.4804  1.0459
  163SAPE  C21118318   5.282   5.674   7.940  0.1607 -0.3431  0.4899
  163SAPE  H11R18319   5.319   5.774   7.910  1.7397 -0.8472  0.6677
  163SAPE  C21218320   5.337   5.624   8.055 -0.1353 -0.1621 -0.8906
  163SAPE  H12R18321   5.398   5.696   8.112 -0.6836 -0.8412  0.6015
  163SAPE  C21318322   5.307   5.491   8.121 -0.1214  0.2616  0.1913
  163SAPE  H13R18323   5.218   5.442   8.078 -0.5519  0.7506  0.5081
  163SAPE  H13S18324   5.286   5.510   8.229 -0.7127 -0.1324  0.1505
  163SAPE  C21418325   5.425   5.389   8.109 -0.5026  0.4772  1.0417
  163SAPE  H14R18326   5.415   5.318   8.026 -1.0867  1.8759 -0.1382
  163SAPE  C21518327   5.524   5.369   8.189  0.9805  0.8088  0.0598
  163SAPE  H15R18328   5.590   5.285   8.163  0.3254 -0.1886  1.4833
  163SAPE  C21618329   5.574   5.451   8.306 -0.1100 -0.0121  0.0473
  163SAPE  H16R18330   5.498   5.526   8.337  0.5205  1.2277 -1.2594
  163SAPE  H16S18331   5.666   5.505   8.274 -1.3563  1.2223 -1.6512
  163SAPE  C21718332   5.602   5.363   8.432  0.4538 -0.3387 -0.0267
  163SAPE  H17R18333   5.512   5.307   8.462 -0.2632  1.2382  0.9117
  163SAPE  H17S18334   5.599   5.439   8.513 -2.2782  1.2043 -1.4400
  163SAPE  C21818335   5.726   5.279   8.430 -0.5199 -0.2548  0.1423
  163SAPE  H18R18336   5.815   5.339   8.401 -1.2370  0.2542 -1.0462
  163SAPE  H18S18337   5.722   5.199   8.353  2.0266  2.8538 -3.6098
  163SAPE  C21918338   5.756   5.221   8.572 -1.1484  0.1804 -0.3137
  163SAPE  H19R18339   5.665   5.168   8.607 -0.9751 -0.4829 -0.8162
  163SAPE  H19S18340   5.777   5.302   8.644 -1.0770  1.2879 -1.5411
  163SAPE  C22018341   5.877   5.126   8.580  0.1185 -0.3628 -0.6351
  163SAPE  H20R18342   5.905   5.129   8.687 -0.6743  0.2711 -0.4405
  163SAPE  H20S18343   5.957   5.162   8.512  0.0147 -0.7546 -0.9734
  163SAPE  H20T18344   5.853   5.019   8.559  1.1909 -1.6855  3.8748
  163SAPE   C3318345   5.828   5.892   7.147 -0.5429  0.2135  0.2911
  163SAPE   H3X18346   5.766   5.946   7.073 -0.2273 -0.5665 -0.5586
  163SAPE   H3Y18347   5.917   5.957   7.152 -2.2866  2.8227 -0.4161
  163SAPE   C3418348   5.768   5.878   7.288 -0.0844  0.0973 -0.1453
  163SAPE   H4X18349   5.698   5.792   7.290 -1.4954  1.2169  1.1543
  163SAPE   H4Y18350   5.695   5.957   7.315 -0.5445 -0.8603  1.5321
  163SAPE   C3518351   5.866   5.867   7.398  0.1988  0.3065 -0.0794
  163SAPE   H5X18352   5.932   5.956   7.396  1.9904 -0.9790 -0.6969
  163SAPE   H5Y18353   5.945   5.792   7.379  1.2566  0.9743  1.4515
  163SAPE   C3618354   5.791   5.860   7.534 -0.2647  0.5120 -0.6546
  163SAPE   H6X18355   5.707   5.789   7.544  1.1953 -0.9960  1.9249
  163SAPE   H6Y18356   5.743   5.956   7.563 -0.9409 -0.2279  0.7302
  163SAPE   C3718357   5.896   5.820   7.639 -0.7323  0.5017  0.3585
  163SAPE   H7X18358   5.983   5.887   7.623  0.6335 -0.6768  2.4408
  163SAPE   H7Y18359   5.921   5.713   7.622 -1.5534  0.5464 -1.2726
  163SAPE   C3818360   5.828   5.846   7.777  0.8021  0.0008 -0.8848
  163SAPE   H8X18361   5.751   5.768   7.794  1.0461  0.1845  1.4182
  163SAPE   H8Y18362   5.790   5.949   7.791  1.3633  0.0781  0.2065
  163SAPE   C3918363   5.933   5.822   7.886 -0.4897 -0.0466 -0.8708
  163SAPE   H9X18364   6.015   5.897   7.893 -0.0916 -0.5836  0.4958
  163SAPE   H9Y18365   5.980   5.721   7.887 -1.2394 -0.4375 -2.3523
  163SAPE  C31018366   5.861   5.837   8.021  0.3181 -0.1352 -0.1783
  163SAPE  H10X18367   5.789   5.754   8.039 -0.9954  0.9310 -0.3693
  163SAPE  H10Y18368   5.804   5.933   8.021  1.2366  0.4158 -0.5213
  163SAPE  C31118369   5.962   5.843   8.140  0.4665  0.0702  0.0321
  163SAPE  H11X18370   6.052   5.907   8.122 -1.8975  2.8699 -3.0742
  163SAPE  H11Y18371   6.016   5.746   8.143  1.2519  0.4138 -1.6521
  163SAPE  C31218372   5.878   5.870   8.271 -0.5672 -0.4010  0.5381
  163SAPE  H12X18373   5.792   5.800   8.276 -1.2573  0.1013 -2.5273
  163SAPE  H12Y18374   5.838   5.973   8.269 -0.4036 -0.3403  0.3713
  163SAPE  C31318375   5.965   5.862   8.398 -0.0215  0.4005  0.3935
  163SAPE  H13X18376   6.049   5.934   8.391  1.2706 -1.0707  0.0616
  163SAPE  H13Y18377   6.022   5.768   8.386 -3.3677 -1.4815 -3.6119
  163SAPE  C31418378   5.883   5.882   8.525  0.9107  0.9072 -0.2257
  163SAPE  H14X18379   5.790   5.823   8.508  2.2071 -1.4698  0.4537
  163SAPE  H14Y18380   5.862   5.991   8.528 -2.8377  0.3383 -0.7297
  163SAPE  C31518381   5.958   5.844   8.655 -0.1540 -0.0532 -0.4781
  163SAPE  H15X18382   5.906   5.893   8.739  2.5301 -0.7325  1.7377
  163SAPE  H15Y18383   6.051   5.904   8.664 -1.3014  1.5171  1.8911
  163SAPE  C31618384   5.988   5.692   8.669 -0.2274  0.6619 -0.0398
  163SAPE  H16X18385   6.043   5.661   8.577  1.3685 -0.3731  1.2034
  163SAPE  H16Y18386   5.893   5.636   8.663 -0.6014  1.0443  1.7499
  163SAPE  C31718387   6.069   5.646   8.789 -0.1856 -0.1171  0.9155
  163SAPE  H17X18388   5.998   5.651   8.875 -1.7076 -0.8706 -0.2652
  163SAPE  H17Y18389   6.156   5.714   8.799 -1.7230  2.4301 -1.5997
  163SAPE  C31818390   6.114   5.503   8.757  0.2535 -0.0493 -0.9239
  163SAPE  H18X18391   6.194   5.486   8.682  0.4539 -1.0084 -0.5017
  163SAPE  H18Y18392   6.029   5.442   8.721 -0.4016  0.6681 -0.6254
  163SAPE  H18Z18393   6.155   5.462   8.852  0.7319 -0.2805 -1.2269
  164SAPE     N18394   2.488   6.133   6.040  0.9157 -0.0369 -0.1027
  164SAPE   HN118395   2.534   6.047   6.076  2.3648 -0.3397 -2.4032
  164SAPE   HN218396   2.562   6.205   6.029  1.1891 -0.4848 -1.3643
  164SAPE   HN318397   2.429   6.167   6.118  1.1190  1.0438 -0.3996
  164SAPE   C1218398   2.394   6.124   5.924 -0.3578  0.0749  0.2195
  164SAPE  H12A18399   2.319   6.049   5.958 -0.9135 -0.0155 -1.1442
  164SAPE  H12B18400   2.448   6.092   5.832 -0.7337 -1.4756  0.5053
  164SAPE   C1118401   2.342   6.270   5.907 -0.1348  0.5139 -0.4989
  164SAPE  H11A18402   2.275   6.267   5.819 -0.4183 -0.8940 -0.2615
  164SAPE  H11B18403   2.431   6.334   5.890  0.8068 -0.5624  0.1536
  164SAPE     P18404   2.240   6.459   6.048  0.0863  0.1842  0.7393
  164SAPE   O1318405   2.229   6.533   5.920  0.5484  0.2158 -0.4547
  164SAPE   O1418406   2.122   6.480   6.140 -0.4896 -0.1499  0.0678
  164SAPE   O1218407   2.262   6.305   6.015 -0.3604 -0.2717  0.0120
  164SAPE   O1118408   2.378   6.486   6.120 -0.0082  0.5091  0.1653
  164SAPE    C118409   2.392   6.468   6.267 -1.3436  0.5839 -0.0835
  164SAPE    HA18410   2.320   6.398   6.313  1.6426 -1.5149  1.7552
  164SAPE    HB18411   2.493   6.437   6.301 -1.8812 -0.9483  0.1732
  164SAPE    C218412   2.380   6.605   6.339 -0.6558  0.1402  0.5212
  164SAPE    HS18413   2.274   6.639   6.336 -0.2019  1.5524 -1.2573
  164SAPE   O2118414   2.467   6.698   6.285  0.1044 -0.3057 -0.1069
  164SAPE   C2118415   2.430   6.825   6.280 -0.4126 -0.5357 -0.4547
  164SAPE   O2218416   2.319   6.867   6.306  0.0848 -0.0628  0.1169
  164SAPE   C2218417   2.540   6.915   6.234 -0.6158 -0.6630  0.2108
  164SAPE   H2R18418   2.639   6.864   6.232 -0.8083 -1.2384  2.4182
  164SAPE   H2S18419   2.521   6.954   6.132  0.1610 -0.4443  0.1410
  164SAPE    C318420   2.407   6.585   6.491  0.4721 -0.2506  0.0271
  164SAPE    HX18421   2.388   6.682   6.541 -1.8094 -0.7559  0.2313
  164SAPE    HY18422   2.513   6.562   6.515  0.3149 -0.6924  0.3063
  164SAPE   O3118423   2.323   6.489   6.557 -0.4679  0.2369  0.2988
  164SAPE   C3118424   2.199   6.538   6.593  0.1461  0.0276 -0.4440
  164SAPE   O3218425   2.163   6.650   6.569 -0.3029 -0.2750 -0.1593
  164SAPE   C3218426   2.114   6.436   6.660  0.3607  0.4115 -0.4112
  164SAPE   H2X18427   2.082   6.357   6.589  1.0056  0.8261 -1.1793
  164SAPE   H2Y18428   2.023   6.492   6.691 -0.7335 -1.0280 -0.9300
  164SAPE   C2318429   2.541   7.049   6.321  0.0035 -0.3420  0.8709
  164SAPE   H3R18430   2.439   7.091   6.338  0.3067  1.9865 -2.2553
  164SAPE   H3S18431   2.597   7.118   6.256  0.1004 -0.2926  1.0073
  164SAPE   C2418432   2.622   7.033   6.452  0.5215 -0.4115  0.4032
  164SAPE   H4R18433   2.731   7.030   6.433  0.5018 -0.8414  0.3442
  164SAPE   H4S18434   2.587   6.941   6.503 -1.1698  0.5972  1.1705
  164SAPE   C2518435   2.595   7.157   6.539 -0.2173 -0.0929  0.2631
  164SAPE   H5R18436   2.635   7.252   6.501  1.6659 -0.5430  1.0321
  164SAPE   C2618437   2.541   7.156   6.660 -0.0114 -0.2934 -0.5881
  164SAPE   H6R18438   2.549   7.248   6.719 -0.0130 -0.2840 -0.6031
  164SAPE   C2718439   2.489   7.034   6.732 -0.4262  0.5920 -0.0370
  164SAPE   H7R18440   2.410   6.982   6.674 -1.3339  0.5455  1.1964
  164SAPE   H7S18441   2.442   7.072   6.825  1.2960  0.6793  0.8255
  164SAPE   C2818442   2.606   6.940   6.775  0.2737  0.9349  0.0946
  164SAPE   H8R18443   2.668   6.898   6.694 -0.6543  1.8320 -1.1303
  164SAPE   C2918444   2.635   6.909   6.903  0.0045 -0.0027 -0.4449
  164SAPE   H9R18445   2.712   6.833   6.923  0.4760  0.1431 -1.6063
  164SAPE  C21018446   2.568   6.949   7.032  0.6883 -0.4832  0.3905
  164SAPE  H10R18447   2.511   7.041   7.011 -0.1962 -1.0726  0.1453
  164SAPE  H10S18448   2.643   6.984   7.106  0.3261 -4.6014  3.0828
  164SAPE  C21118449   2.502   6.835   7.106  0.7636 -0.0587  0.2127
  164SAPE  H11R18450   2.484   6.747   7.043 -1.5231 -0.2617  1.0353
  164SAPE  C21218451   2.469   6.829   7.236 -0.4847  0.7047  0.7357
  164SAPE  H12R18452   2.413   6.744   7.278 -0.2370 -0.3240 -0.9448
  164SAPE  C21318453   2.489   6.935   7.337  0.5308  0.3695 -0.4729
  164SAPE  H13R18454   2.400   6.962   7.398  2.4145  0.4846  2.4716
  164SAPE  H13S18455   2.515   7.026   7.279  0.2074  1.4370  0.9905
  164SAPE  C21418456   2.607   6.921   7.430  0.5318 -0.0994 -0.0985
  164SAPE  H14R18457   2.711   6.932   7.394  0.7382 -0.7571  0.2631
  164SAPE  C21518458   2.597   6.899   7.559  0.0652 -0.4276  0.3300
  164SAPE  H15R18459   2.690   6.909   7.616 -0.2601 -0.1315  0.8171
  164SAPE  C21618460   2.472   6.871   7.640 -0.3159 -0.0462  0.1195
  164SAPE  H16R18461   2.390   6.822   7.584  0.3884 -0.9160 -0.1728
  164SAPE  H16S18462   2.439   6.968   7.682 -0.1305 -0.7752  2.0384
  164SAPE  C21718463   2.502   6.782   7.758 -0.2013 -0.2073 -0.2136
  164SAPE  H17R18464   2.531   6.679   7.731 -1.6042 -0.6880 -0.0012
  164SAPE  H17S18465   2.404   6.770   7.809 -0.0889 -1.0085 -0.1722
  164SAPE  C21818466   2.596   6.832   7.871  0.2117  0.4314 -0.9410
  164SAPE  H18R18467   2.576   6.940   7.892 -1.5392 -0.2902  1.4522
  164SAPE  H18S18468   2.698   6.832   7.826  0.3586  0.1337 -0.6113
  164SAPE  C21918469   2.595   6.749   8.001 -0.4361  0.3143  0.8415
  164SAPE  H19R18470   2.625   6.646   7.971 -0.4077  0.5515  0.0337
  164SAPE  H19S18471   2.491   6.748   8.039 -1.3924 -0.4658 -1.6038
  164SAPE  C22018472   2.685   6.796   8.106 -0.2822 -0.1702  0.0427
  164SAPE  H20R18473   2.679   6.731   8.196  1.0662  2.2327  1.9842
  164SAPE  H20S18474   2.662   6.901   8.133  1.6291  0.5828 -1.0446
  164SAPE  H20T18475   2.793   6.794   8.082 -0.1709  0.4062  0.4841
  164SAPE   C3318476   2.191   6.356   6.771 -0.0900 -0.1152 -0.5565
  164SAPE   H3X18477   2.299   6.380   6.763 -0.2721  0.9508 -0.0145
  164SAPE   H3Y18478   2.177   6.248   6.753  0.5326 -0.0153 -1.6970
  164SAPE   C3418479   2.147   6.389   6.916  0.1521 -0.7283 -0.2050
  164SAPE   H4X18480   2.162   6.312   6.994  0.4807  1.5264  2.1069
  164SAPE   H4Y18481   2.038   6.408   6.914  0.4399  1.3517  0.9654
  164SAPE   C3518482   2.207   6.520   6.969  0.4761  0.0088 -0.7423
  164SAPE   H5X18483   2.158   6.603   6.914 -1.2795 -0.0416  0.6691
  164SAPE   H5Y18484   2.318   6.526   6.963  0.5483 -1.7855 -2.5250
  164SAPE   C3618485   2.164   6.545   7.115  0.2115  0.0177  0.1357
  164SAPE   H6X18486   2.063   6.502   7.133 -0.6829  1.6098 -0.8753
  164SAPE   H6Y18487   2.149   6.655   7.123  0.9600  0.2528 -1.3150
  164SAPE   C3718488   2.264   6.505   7.227 -0.7589 -0.6229 -0.7087
  164SAPE   H7X18489   2.368   6.534   7.202 -0.3767 -1.9691 -0.7813
  164SAPE   H7Y18490   2.276   6.394   7.222 -0.4293 -0.6002 -0.4929
  164SAPE   C3818491   2.214   6.542   7.372  0.0119  0.1271 -0.1502
  164SAPE   H8X18492   2.128   6.482   7.408  0.2933 -0.3581 -0.2889
  164SAPE   H8Y18493   2.169   6.643   7.388 -0.2451 -0.0568  0.3195
  164SAPE   C3918494   2.332   6.519   7.470  0.5531 -0.0817 -0.7537
  164SAPE   H9X18495   2.411   6.594   7.449  0.2039  0.7852  0.8999
  164SAPE   H9Y18496   2.376   6.420   7.445 -1.0662 -1.4755  1.4728
  164SAPE  C31018497   2.296   6.497   7.619  0.2073 -0.0404 -0.1756
  164SAPE  H10X18498   2.228   6.581   7.643  0.3289  1.2380 -3.6839
  164SAPE  H10Y18499   2.394   6.498   7.671  1.3287  0.0151 -2.1547
  164SAPE  C31118500   2.225   6.361   7.646 -0.3709  0.1030  0.0298
  164SAPE  H11X18501   2.300   6.281   7.625  0.9852  1.2313  0.4153
  164SAPE  H11Y18502   2.138   6.343   7.580 -0.9046  0.6145  0.5882
  164SAPE  C31218503   2.174   6.334   7.790 -0.2534  0.0771  0.0684
  164SAPE  H12X18504   2.085   6.401   7.789  0.8495  1.6515  1.2172
  164SAPE  H12Y18505   2.254   6.369   7.858 -0.4577 -0.2465  0.4802
  164SAPE  C31318506   2.144   6.183   7.826 -0.3892 -0.1052 -0.1331
  164SAPE  H13X18507   2.234   6.121   7.806 -0.2793  0.0858 -0.2398
  164SAPE  H13Y18508   2.062   6.143   7.763  1.5470 -0.7792 -2.3424
  164SAPE  C31418509   2.116   6.167   7.974 -0.1196  0.0220 -0.2740
  164SAPE  H14X18510   2.201   6.203   8.035 -0.3764 -1.7764  1.2223
  164SAPE  H14Y18511   2.102   6.059   7.995 -0.0711 -0.0252 -0.4807
  164SAPE  C31518512   1.997   6.247   8.022  0.0295 -0.1508 -0.2075
  164SAPE  H15X18513   1.905   6.220   7.966  0.0106  0.1799 -0.3345
  164SAPE  H15Y18514   2.021   6.353   8.002 -0.7478  0.2013  0.6432
  164SAPE  C31618515   1.976   6.211   8.162  0.7755  0.8769  0.1367
  164SAPE  H16X18516   2.057   6.253   8.226  0.4247  1.9268 -0.0949
  164SAPE  H16Y18517   1.973   6.100   8.168  1.2006  0.8178 -0.6713
  164SAPE  C31718518   1.841   6.266   8.216  0.1146 -0.2966 -0.5246
  164SAPE  H17X18519   1.754   6.223   8.164  0.0318 -1.4257  0.4952
  164SAPE  H17Y18520   1.829   6.376   8.213 -1.3917 -0.3957  0.6947
  164SAPE  C31818521   1.818   6.228   8.364  0.9379 -0.5715  0.4615
  164SAPE  H18X18522   1.729   6.272   8.414  1.1524  0.4801 -0.0547
  164SAPE  H18Y18523   1.906   6.262   8.424  0.5822  1.0052  0.1288
  164SAPE  H18Z18524   1.804   6.118   8.366  0.1133 -0.5727 -2.0677
  165SAPE     N18525   0.358   3.305   6.503  0.8710 -0.3827  0.0626
  165SAPE   HN118526   0.274   3.343   6.454  0.3652 -0.1947  1.0412
  165SAPE   HN218527   0.440   3.320   6.442  1.0160  2.1432  0.7395
  165SAPE   HN318528   0.340   3.203   6.515 -3.8445  0.3771  1.5984
  165SAPE   C1218529   0.392   3.387   6.626  0.0822  0.4566  0.3839
  165SAPE  H12A18530   0.500   3.363   6.643  0.0385 -1.5344 -1.6205
  165SAPE  H12B18531   0.335   3.344   6.711 -1.4857  0.1548 -0.7864
  165SAPE   C1118532   0.371   3.536   6.593 -0.3647 -0.2485  0.1137
  165SAPE  H11A18533   0.390   3.598   6.683 -0.7328  4.6121 -2.8238
  165SAPE  H11B18534   0.263   3.556   6.578 -0.0937  1.3196  0.1226
  165SAPE     P18535   0.553   3.696   6.492 -0.1205  0.3480  0.0666
  165SAPE   O1318536   0.653   3.649   6.588  0.0256 -0.1195  0.5117
  165SAPE   O1418537   0.589   3.755   6.358  0.1457  0.1864 -0.7142
  165SAPE   O1218538   0.447   3.577   6.477  0.2488 -0.2584 -0.1150
  165SAPE   O1118539   0.468   3.805   6.563 -0.4580 -0.0254  0.0292
  165SAPE    C118540   0.348   3.862   6.517  0.0894 -0.4122 -0.5135
  165SAPE    HA18541   0.380   3.923   6.430 -2.0712  1.8208  0.1541
  165SAPE    HB18542   0.275   3.780   6.500  0.8951 -0.9827 -1.3208
  165SAPE    C218543   0.286   3.962   6.621 -0.1518 -0.6999 -0.1673
  165SAPE    HS18544   0.358   4.046   6.614  0.1788 -1.0755 -1.8650
  165SAPE   O2118545   0.276   3.896   6.746 -0.3649 -0.5677 -0.9518
  165SAPE   C2118546   0.381   3.907   6.824 -1.0055 -0.3889 -0.4006
  165SAPE   O2218547   0.492   3.948   6.791 -0.3516  0.2997  0.5225
  165SAPE   C2218548   0.352   3.851   6.962  0.8004 -0.0870 -0.3732
  165SAPE   H2R18549   0.280   3.914   7.019 -1.1792 -0.2789 -2.5197
  165SAPE   H2S18550   0.321   3.748   6.933  0.1214 -0.5287  1.7438
  165SAPE    C318551   0.135   4.005   6.584  0.8888  0.2811  0.0789
  165SAPE    HX18552   0.078   3.910   6.570 -1.0627  1.1758  1.5100
  165SAPE    HY18553   0.120   4.048   6.482 -2.0230 -0.5415  0.0503
  165SAPE   O3118554   0.076   4.082   6.693 -0.0409  0.1917  0.9044
  165SAPE   C3118555   0.113   4.211   6.692 -0.4768  0.5261 -0.6151
  165SAPE   O3218556   0.178   4.262   6.603  0.6061 -0.1402 -0.2598
  165SAPE   C3218557   0.041   4.266   6.814  0.3869 -0.1717  0.0344
  165SAPE   H2X18558  -0.068   4.243   6.816  0.2377  0.4297 -0.8667
  165SAPE   H2Y18559   0.052   4.376   6.806 -0.4655 -0.0459  0.4258
  165SAPE   C2318560   0.469   3.832   7.064  0.0363 -0.8291  0.8769
  165SAPE   H3R18561   0.517   3.932   7.069 -2.0629  0.3545 -0.8412
  165SAPE   H3S18562   0.532   3.753   7.018  1.0006  0.8276 -0.8220
  165SAPE   C2418563   0.428   3.784   7.198  0.0016  0.4447 -0.2048
  165SAPE   H4R18564   0.401   3.676   7.200  0.1396  0.4159  0.0307
  165SAPE   H4S18565   0.338   3.845   7.224 -0.5515 -0.3733 -0.1579
  165SAPE   C2518566   0.528   3.812   7.307  0.0471  0.5816 -0.5159
  165SAPE   H5R18567   0.627   3.769   7.286  0.3503  1.2086 -0.4058
  165SAPE   C2618568   0.515   3.880   7.421  0.5832 -0.5079 -0.0700
  165SAPE   H6R18569   0.603   3.888   7.487  2.1605 -0.2944 -2.1117
  165SAPE   C2718570   0.400   3.954   7.481 -0.3079  0.8414  0.3650
  165SAPE   H7R18571   0.346   4.018   7.408  0.8699  0.3741 -0.9702
  165SAPE   H7S18572   0.451   4.027   7.547  0.0109  1.5458 -0.6431
  165SAPE   C2818573   0.297   3.874   7.558 -0.0593 -0.1106  0.2593
  165SAPE   H8R18574   0.218   3.829   7.496 -1.1127  2.7664 -0.6787
  165SAPE   C2918575   0.288   3.846   7.686 -0.1927  0.3125  0.0878
  165SAPE   H9R18576   0.193   3.796   7.710 -0.7545  1.1132 -0.4234
  165SAPE  C21018577   0.375   3.876   7.800 -1.1399 -0.5609  0.1908
  165SAPE  H10R18578   0.482   3.877   7.769 -0.6320  3.2413  1.5067
  165SAPE  H10S18579   0.361   3.795   7.874  3.2364 -1.1347  0.6957
  165SAPE  C21118580   0.366   4.018   7.863  0.5032  0.3513  0.5953
  165SAPE  H11R18581   0.334   4.098   7.793  0.2169 -0.0026  0.3212
  165SAPE  C21218582   0.391   4.049   7.988 -0.2706  0.8799 -0.4716
  165SAPE  H12R18583   0.403   4.151   8.026  0.1048 -0.3796  3.1905
  165SAPE  C21318584   0.424   3.938   8.095  0.4513 -0.7416 -0.4208
  165SAPE  H13R18585   0.510   3.983   8.150  0.1081 -0.2066 -0.3079
  165SAPE  H13S18586   0.467   3.847   8.049 -0.5109 -1.8175  0.7348
  165SAPE  C21418587   0.311   3.903   8.188 -0.4035 -0.6276  0.7076
  165SAPE  H14R18588   0.216   3.954   8.166  0.0368 -0.1156 -0.0763
  165SAPE  C21518589   0.312   3.813   8.292  0.1241 -0.3356 -0.2042
  165SAPE  H15R18590   0.219   3.796   8.349  0.4210  1.4900  0.8948
  165SAPE  C21618591   0.430   3.733   8.342  0.1789 -0.1683  0.4033
  165SAPE  H16R18592   0.524   3.753   8.287 -0.2842  2.0166  0.3092
  165SAPE  H16S18593   0.404   3.626   8.329 -0.4848 -0.4012  2.9992
  165SAPE  C21718594   0.464   3.747   8.491 -0.0971  0.8158  0.0506
  165SAPE  H17R18595   0.547   3.684   8.529 -2.2774 -2.3365 -0.0516
  165SAPE  H17S18596   0.366   3.732   8.541  0.1694  0.1527  0.3829
  165SAPE  C21818597   0.518   3.888   8.529 -0.4939 -0.0368 -0.0763
  165SAPE  H18R18598   0.444   3.968   8.509 -0.3255  1.1064  3.2762
  165SAPE  H18S18599   0.610   3.900   8.467 -0.3676  2.9559  0.5294
  165SAPE  C21918600   0.554   3.896   8.677  0.0137 -0.4752 -0.4949
  165SAPE  H19R18601   0.604   3.806   8.719  0.4437  0.3123  0.7095
  165SAPE  H19S18602   0.459   3.886   8.734  1.0010 -0.8819  1.1599
  165SAPE  C22018603   0.629   4.029   8.706 -0.3639 -0.6728 -0.7495
  165SAPE  H20R18604   0.705   4.049   8.627 -0.6970 -0.1514 -0.9433
  165SAPE  H20S18605   0.679   4.026   8.805 -1.7235  1.4768  0.0682
  165SAPE  H20T18606   0.555   4.112   8.711  0.5434  0.0875  3.1906
  165SAPE   C3318607   0.094   4.203   6.949  0.2454  0.1584 -0.1001
  165SAPE   H3X18608   0.119   4.097   6.926  2.2456  1.0318 -2.5465
  165SAPE   H3Y18609   0.010   4.211   7.021  1.2015  1.6684  0.9036
  165SAPE   C3418610   0.221   4.281   6.996  0.8952  0.3833  0.0695
  165SAPE   H4X18611   0.208   4.390   6.981 -5.1048  0.4819  2.9095
  165SAPE   H4Y18612   0.305   4.244   6.934  2.5283  2.0998  1.1586
  165SAPE   C3518613   0.258   4.250   7.138  0.6496 -0.2348  0.1407
  165SAPE   H5X18614   0.368   4.258   7.149  0.5802  0.8296  0.1851
  165SAPE   H5Y18615   0.241   4.141   7.148 -0.4318 -0.4585 -3.1664
  165SAPE   C3618616   0.165   4.313   7.241  0.2528  0.2099 -0.7035
  165SAPE   H6X18617   0.064   4.278   7.213  0.3221 -2.8808  2.1636
  165SAPE   H6Y18618   0.170   4.424   7.231 -0.8915  0.4599  1.0656
  165SAPE   C3718619   0.214   4.269   7.380  0.6747 -0.9334  0.3517
  165SAPE   H7X18620   0.320   4.236   7.372  0.4333 -1.7329  0.4318
  165SAPE   H7Y18621   0.160   4.184   7.426 -2.8223  0.4976 -0.7946
  165SAPE   C3818622   0.213   4.389   7.482 -0.6327  0.0434  0.7581
  165SAPE   H8X18623   0.109   4.426   7.490  0.0003  2.3971 -0.9057
  165SAPE   H8Y18624   0.266   4.474   7.435  1.0601 -1.2304  0.2594
  165SAPE   C3918625   0.278   4.354   7.609 -0.1683  0.1942  0.2262
  165SAPE   H9X18626   0.384   4.332   7.588 -0.5104 -0.5843 -0.7502
  165SAPE   H9Y18627   0.225   4.273   7.663 -0.2121  0.5604  0.7461
  165SAPE  C31018628   0.277   4.470   7.716 -0.0741 -0.4786 -0.5452
  165SAPE  H10X18629   0.172   4.501   7.736  0.2370  0.3590 -0.1852
  165SAPE  H10Y18630   0.330   4.557   7.671 -2.0748  0.2828 -1.5619
  165SAPE  C31118631   0.336   4.435   7.855  0.3852  0.3322 -0.5487
  165SAPE  H11X18632   0.446   4.419   7.857  0.0690 -2.8589  2.5617
  165SAPE  H11Y18633   0.307   4.330   7.876 -0.6784  0.4123 -1.5628
  165SAPE  C31218634   0.293   4.535   7.960  0.0681 -0.2946 -0.8736
  165SAPE  H12X18635   0.183   4.545   7.957 -0.0044 -0.4618  0.6651
  165SAPE  H12Y18636   0.344   4.631   7.937 -1.0985  0.0615 -2.0712
  165SAPE  C31318637   0.346   4.507   8.099  0.4818 -0.4511  0.2472
  165SAPE  H13X18638   0.340   4.594   8.169 -1.3102 -1.7579  1.7911
  165SAPE  H13Y18639   0.453   4.478   8.089  0.7694  1.0787 -1.6727
  165SAPE  C31418640   0.267   4.402   8.178 -0.1408  0.2069  0.7189
  165SAPE  H14X18641   0.229   4.328   8.104  0.9751  1.6053 -1.3383
  165SAPE  H14Y18642   0.172   4.446   8.216 -1.1738 -2.3574  1.3638
  165SAPE  C31518643   0.357   4.333   8.288  0.8207  0.3438  0.9158
  165SAPE  H15X18644   0.436   4.283   8.228  0.7335 -0.4534  1.4611
  165SAPE  H15Y18645   0.289   4.266   8.344  2.5715 -1.1793  1.3298
  165SAPE  C31618646   0.423   4.428   8.392 -0.1533  0.1112 -0.3068
  165SAPE  H16X18647   0.481   4.510   8.346 -3.1338  1.4828 -1.9186
  165SAPE  H16Y18648   0.491   4.371   8.458 -0.5462 -0.1994 -0.1604
  165SAPE  C31718649   0.317   4.494   8.484 -0.3566  0.6757  0.4436
  165SAPE  H17X18650   0.345   4.475   8.590  1.3694  0.5111 -0.0242
  165SAPE  H17Y18651   0.228   4.428   8.473  1.9631 -2.7113  0.7171
  165SAPE  C31818652   0.282   4.642   8.464 -0.5153 -0.2043 -0.4298
  165SAPE  H18X18653   0.281   4.668   8.356 -2.4842 -1.8844 -0.8813
  165SAPE  H18Y18654   0.357   4.707   8.515 -3.3857  3.3700 -0.3347
  165SAPE  H18Z18655   0.184   4.661   8.512 -1.2277 -2.1683 -1.0221
  166SAPE     N18656   2.952   5.919   6.023 -0.2174  1.2673 -0.3057
  166SAPE   HN118657   2.858   5.937   6.064  0.5375 -0.4594  2.3897
  166SAPE   HN218658   2.972   5.817   6.024  0.4672  1.3800  1.4980
  166SAPE   HN318659   3.016   5.960   6.094  1.5936 -0.7151 -0.7078
  166SAPE   C1218660   2.962   5.977   5.886 -0.5903  1.2458  0.1800
  166SAPE  H12A18661   2.881   5.938   5.820 -0.6820 -1.0356  1.5134
  166SAPE  H12B18662   3.058   5.944   5.840  0.0065 -0.0902  2.2747
  166SAPE   C1118663   2.972   6.128   5.882  0.0231  0.4307 -0.0913
  166SAPE  H11A18664   2.993   6.159   5.778  1.1021  0.4088  0.1063
  166SAPE  H11B18665   3.051   6.161   5.953 -0.5043 -1.9370  1.7238
  166SAPE     P18666   2.836   6.268   6.051  0.4604 -0.7644 -0.3013
  166SAPE   O1318667   2.931   6.379   6.053  0.0259 -0.7189  0.4301
  166SAPE   O1418668   2.697   6.311   6.063 -0.3743  0.6637 -0.3381
  166SAPE   O1218669   2.850   6.197   5.915 -0.2509  0.0323  0.5708
  166SAPE   O1118670   2.877   6.167   6.160  0.1107  0.1008 -0.1245
  166SAPE    C118671   2.930   6.198   6.292  1.2483 -0.1194  0.3504
  166SAPE    HA18672   2.996   6.116   6.327  0.2632  0.1070  2.9272
  166SAPE    HB18673   2.984   6.295   6.287 -1.4234  1.4659  0.5066
  166SAPE    C218674   2.812   6.224   6.385 -0.0489 -0.5486 -0.0524
  166SAPE    HS18675   2.738   6.296   6.344  0.2921 -1.0911 -1.7136
  166SAPE   O2118676   2.870   6.267   6.512 -0.4656  0.3313 -0.3440
  166SAPE   C2118677   2.873   6.399   6.524  0.1151 -0.1670  0.1184
  166SAPE   O2218678   2.847   6.475   6.432  0.2158 -0.7617  0.8835
  166SAPE   C2218679   2.897   6.440   6.669  0.3068  0.1240 -0.2246
  166SAPE   H2R18680   2.940   6.348   6.716  1.8143  0.6871 -0.4501
  166SAPE   H2S18681   2.975   6.518   6.680 -0.0950  0.4407  0.4237
  166SAPE    C318682   2.733   6.090   6.406 -0.2596 -1.1010 -0.0316
  166SAPE    HX18683   2.806   6.023   6.456  1.4273  0.3894 -0.4315
  166SAPE    HY18684   2.702   6.037   6.313 -1.7975  0.4236 -0.4400
  166SAPE   O3118685   2.614   6.104   6.492  0.0645 -0.6387  0.1068
  166SAPE   C3118686   2.500   6.136   6.431  0.1621 -0.8873  0.2583
  166SAPE   O3218687   2.496   6.164   6.313  0.1460 -0.9855  0.0829
  166SAPE   C3218688   2.385   6.139   6.532  0.0821  0.4751  0.2040
  166SAPE   H2X18689   2.314   6.220   6.505  0.8518  0.5655 -1.7496
  166SAPE   H2Y18690   2.421   6.152   6.636 -0.2033  0.5566  0.2936
  166SAPE   C2318691   2.773   6.482   6.746  0.2186 -0.8804  0.0529
  166SAPE   H3R18692   2.744   6.580   6.700  2.8836  0.4698  1.0413
  166SAPE   H3S18693   2.793   6.496   6.854 -1.4312  0.0348  0.2731
  166SAPE   C2418694   2.650   6.396   6.730 -0.4799 -0.5725  0.1481
  166SAPE   H4R18695   2.606   6.408   6.629  2.3273 -0.8953 -1.2291
  166SAPE   H4S18696   2.568   6.441   6.790 -1.1434 -1.2114 -0.2708
  166SAPE   C2518697   2.682   6.253   6.769 -0.6039  0.1165 -0.6492
  166SAPE   H5R18698   2.744   6.195   6.700  0.0843  0.0053  0.0446
  166SAPE   C2618699   2.641   6.189   6.882  0.0538  0.0270 -0.4370
  166SAPE   H6R18700   2.674   6.086   6.900 -0.4981 -0.0557  0.1453
  166SAPE   C2718701   2.558   6.238   7.000  0.0002  0.3725  1.0445
  166SAPE   H7R18702   2.463   6.181   7.005 -2.3372  3.8336 -0.0283
  166SAPE   H7S18703   2.530   6.344   6.982  2.8306  1.0898  0.2917
  166SAPE   C2818704   2.638   6.235   7.129  0.1620 -0.8221  0.3360
  166SAPE   H8R18705   2.738   6.280   7.122 -0.3959  0.3392 -0.6018
  166SAPE   C2918706   2.599   6.191   7.251  0.2792 -0.3361  0.3514
  166SAPE   H9R18707   2.669   6.200   7.335  0.2339  3.2492  0.1766
  166SAPE  C21018708   2.470   6.135   7.288  0.0450 -0.3168  0.4404
  166SAPE  H10R18709   2.407   6.143   7.197 -0.3446 -0.6068  0.6818
  166SAPE  H10S18710   2.415   6.198   7.361 -1.4472  0.1558 -1.0042
  166SAPE  C21118711   2.481   5.986   7.323  0.5305 -0.6363 -0.0347
  166SAPE  H11R18712   2.538   5.931   7.245  1.4415  0.7753 -0.3988
  166SAPE  C21218713   2.408   5.928   7.422 -0.1642 -0.0197  0.1203
  166SAPE  H12R18714   2.410   5.819   7.434  0.3654 -0.2129 -1.4204
  166SAPE  C21318715   2.314   5.998   7.512 -0.2927 -0.1606 -0.7325
  166SAPE  H13R18716   2.226   6.035   7.456 -0.7394 -1.7133 -1.1201
  166SAPE  H13S18717   2.358   6.083   7.568  0.7088 -0.7198 -0.6479
  166SAPE  C21418718   2.255   5.907   7.616 -0.3487  0.1939 -0.0463
  166SAPE  H14R18719   2.154   5.871   7.590  0.0049 -0.5993 -0.3435
  166SAPE  C21518720   2.316   5.877   7.738  0.0653  0.4492 -0.2102
  166SAPE  H15R18721   2.266   5.805   7.804 -1.4463  1.8029  0.1926
  166SAPE  C21618722   2.447   5.935   7.789  0.2716  0.4489 -0.2239
  166SAPE  H16R18723   2.441   6.046   7.786 -0.2821  0.3979 -1.0569
  166SAPE  H16S18724   2.532   5.916   7.720 -0.4347 -0.5872 -0.8239
  166SAPE  C21718725   2.480   5.892   7.932 -0.9685 -0.5517  0.9121
  166SAPE  H17R18726   2.577   5.942   7.953 -0.9197 -0.7681  1.2150
  166SAPE  H17S18727   2.494   5.782   7.940  2.4586 -0.1461  2.3672
  166SAPE  C21818728   2.385   5.953   8.034 -0.6916 -0.0204  0.5836
  166SAPE  H18R18729   2.279   5.946   8.001 -1.1069  2.0427  1.3094
  166SAPE  H18S18730   2.406   6.062   8.045  0.4524 -0.2634  1.0156
  166SAPE  C21918731   2.408   5.903   8.177  0.6347  0.0056  0.3076
  166SAPE  H19R18732   2.371   5.799   8.175 -1.0527  0.5807  0.2828
  166SAPE  H19S18733   2.339   5.958   8.245  2.2448 -0.2661  2.2879
  166SAPE  C22018734   2.549   5.898   8.234 -0.5737 -0.0398  0.3051
  166SAPE  H20R18735   2.530   5.851   8.333  1.0927  0.5682  0.9547
  166SAPE  H20S18736   2.580   6.005   8.227 -3.3930  0.9213  1.1249
  166SAPE  H20T18737   2.610   5.832   8.169  0.1863  1.8161 -0.9592
  166SAPE   C3318738   2.309   5.999   6.518  0.7341  0.4322  0.7354
  166SAPE   H3X18739   2.276   5.988   6.412  2.0964 -0.0215  0.3414
  166SAPE   H3Y18740   2.209   6.013   6.564  0.2849  0.9119 -0.3353
  166SAPE   C3418741   2.367   5.873   6.578  0.0452 -0.2920 -0.5311
  166SAPE   H4X18742   2.454   5.836   6.519 -1.4984 -3.1963 -1.1911
  166SAPE   H4Y18743   2.290   5.794   6.566  1.8159 -1.7612 -3.1594
  166SAPE   C3518744   2.400   5.882   6.732 -0.4699 -0.5523  0.0431
  166SAPE   H5X18745   2.494   5.940   6.737 -0.0951 -0.9183 -1.8869
  166SAPE   H5Y18746   2.438   5.782   6.759  0.4959  0.0152  0.8427
  166SAPE   C3618747   2.279   5.896   6.828 -0.2398 -0.2809 -0.4770
  166SAPE   H6X18748   2.200   5.818   6.818 -2.1626  0.8770  3.5159
  166SAPE   H6Y18749   2.233   5.995   6.807 -0.5718 -0.7394 -2.0261
  166SAPE   C3718750   2.330   5.895   6.977  0.5625  0.6547  0.1552
  166SAPE   H7X18751   2.400   5.980   6.994 -0.6617  2.2921 -2.3833
  166SAPE   H7Y18752   2.382   5.797   6.989 -2.4931 -0.9183  1.7091
  166SAPE   C3818753   2.219   5.890   7.080 -0.2512  0.2209  0.6034
  166SAPE   H8X18754   2.279   5.894   7.173  4.6791  0.5799 -2.2528
  166SAPE   H8Y18755   2.162   5.795   7.073 -1.6935  1.1978 -2.5257
  166SAPE   C3918756   2.123   6.009   7.083  0.8970  1.0346 -0.3426
  166SAPE   H9X18757   2.061   6.002   6.991  0.6681  1.4374 -0.2226
  166SAPE   H9Y18758   2.172   6.109   7.083  3.7326 -0.2377 -0.4336
  166SAPE  C31018759   2.022   5.999   7.202 -0.2060  0.1102  0.0551
  166SAPE  H10X18760   2.076   6.001   7.299  2.0402  2.6709 -1.1127
  166SAPE  H10Y18761   1.959   5.909   7.188  0.0280 -0.2085  0.9895
  166SAPE  C31118762   1.926   6.116   7.188  0.6816 -0.4584  0.1919
  166SAPE  H11X18763   1.896   6.109   7.081 -1.6568  1.5624  0.6136
  166SAPE  H11Y18764   1.977   6.214   7.193  4.5664 -2.1582 -2.0930
  166SAPE  C31218765   1.799   6.111   7.268 -0.7726  0.1735  0.2225
  166SAPE  H12X18766   1.767   6.004   7.264 -0.9235  0.2255 -0.0168
  166SAPE  H12Y18767   1.718   6.170   7.220 -0.3344 -0.0160 -0.7798
  166SAPE  C31318768   1.816   6.150   7.416  0.0360 -0.1116 -0.9935
  166SAPE  H13X18769   1.915   6.119   7.454 -0.4200  0.4477  0.7241
  166SAPE  H13Y18770   1.736   6.106   7.481 -1.4652  3.1641 -0.4259
  166SAPE  C31418771   1.811   6.305   7.439 -0.2206  0.3051  0.1921
  166SAPE  H14X18772   1.729   6.354   7.381  0.9877  0.5812 -1.3484
  166SAPE  H14Y18773   1.902   6.351   7.396  0.6327  0.2567  1.8518
  166SAPE  C31518774   1.797   6.356   7.584  0.0126  0.1791 -0.4250
  166SAPE  H15X18775   1.897   6.366   7.630 -0.3893  1.5524  0.2167
  166SAPE  H15Y18776   1.731   6.294   7.648  0.5515  0.4187  0.3831
  166SAPE  C31618777   1.749   6.501   7.583  0.2999 -0.8962  0.1567
  166SAPE  H16X18778   1.653   6.511   7.529  1.1365 -0.1342 -1.2516
  166SAPE  H16Y18779   1.812   6.565   7.518  2.2496 -2.8171  0.0300
  166SAPE  C31718780   1.722   6.555   7.720 -0.0752 -0.4043  0.0055
  166SAPE  H17X18781   1.701   6.471   7.790  0.1778 -1.3063 -0.9798
  166SAPE  H17Y18782   1.631   6.619   7.713  1.0050  1.0562 -1.5884
  166SAPE  C31818783   1.841   6.636   7.777 -0.4622 -0.3973 -0.2498
  166SAPE  H18X18784   1.847   6.734   7.725  1.2183 -0.3884 -0.0885
  166SAPE  H18Y18785   1.942   6.591   7.765 -0.2203 -0.0384  0.3863
  166SAPE  H18Z18786   1.829   6.652   7.887 -0.4746 -2.4520  0.0827
  167SAPE     N18787   5.414   0.359   6.155  0.0090  0.7989  0.0987
  167SAPE   HN118788   5.366   0.267   6.146  1.3776  0.1357 -1.0832
  167SAPE   HN218789   5.516   0.337   6.145  0.2864  1.8230  0.6088
  167SAPE   HN318790   5.392   0.381   6.254  0.9693 -1.5736  0.9335
  167SAPE   C1218791   5.369   0.470   6.063  0.2961  0.1553 -0.0280
  167SAPE  H12A18792   5.261   0.484   6.084 -0.0376  0.7382 -1.9318
  167SAPE  H12B18793   5.374   0.437   5.957 -3.2535  1.6170 -0.7920
  167SAPE   C1118794   5.455   0.596   6.089  0.7176 -0.7643  0.0179
  167SAPE  H11A18795   5.433   0.669   6.008 -4.2329 -0.1511  1.5646
  167SAPE  H11B18796   5.564   0.573   6.090  0.8766 -0.0938 -0.7695
  167SAPE     P18797   5.418   0.784   6.268 -0.1208  0.0180  0.0452
  167SAPE   O1318798   5.403   0.883   6.161 -0.0283  0.0937  0.3481
  167SAPE   O1418799   5.321   0.798   6.383  0.0638  0.3231  0.8113
  167SAPE   O1218800   5.403   0.639   6.214 -0.1450  0.3071  0.4560
  167SAPE   O1118801   5.569   0.791   6.318  0.4901  0.5910  0.3086
  167SAPE    C118802   5.635   0.675   6.376 -0.2316 -0.4376  0.2241
  167SAPE    HA18803   5.579   0.579   6.379 -0.9001 -0.1239 -1.0102
  167SAPE    HB18804   5.705   0.649   6.294 -0.3331 -0.2369  0.0701
  167SAPE    C218805   5.719   0.707   6.502 -0.5444 -0.1725  0.0698
  167SAPE    HS18806   5.784   0.620   6.529  0.7325  0.8536  0.4156
  167SAPE   O2118807   5.622   0.748   6.602 -0.1994  0.7331 -0.5196
  167SAPE   C2118808   5.550   0.649   6.652 -0.0436  0.6474  0.4593
  167SAPE   O2218809   5.567   0.529   6.629  0.4398  0.0448 -0.1268
  167SAPE   C2218810   5.444   0.710   6.735  0.9554 -0.6045  0.1491
  167SAPE   H2R18811   5.392   0.787   6.674  1.9655 -0.4216 -0.4936
  167SAPE   H2S18812   5.357   0.641   6.746 -0.8243  1.0970 -2.1216
  167SAPE    C318813   5.821   0.821   6.482  0.7087  0.0779 -0.4625
  167SAPE    HX18814   5.755   0.908   6.463 -2.6567 -2.1882  0.0468
  167SAPE    HY18815   5.873   0.816   6.383 -0.9377 -1.5827 -1.2919
  167SAPE   O3118816   5.904   0.842   6.602 -0.5115  0.2259 -0.2547
  167SAPE   C3118817   5.871   0.930   6.694 -0.4239  0.2223  1.3319
  167SAPE   O3218818   5.778   1.005   6.687 -0.1163 -0.1536 -0.3673
  167SAPE   C3218819   5.973   0.925   6.801  0.8286 -0.2259  0.0486
  167SAPE   H2X18820   6.061   0.984   6.766  2.1719 -1.8952  0.4916
  167SAPE   H2Y18821   6.000   0.819   6.820  1.0140 -0.0024  1.1190
  167SAPE   C2318822   5.487   0.777   6.868 -0.2101 -0.6036 -0.0087
  167SAPE   H3R18823   5.417   0.843   6.923  1.0684  0.1933  0.7273
  167SAPE   H3S18824   5.581   0.836   6.860  0.6850 -0.8938  4.8742
  167SAPE   C2418825   5.521   0.667   6.975  0.0644 -0.3534  0.0629
  167SAPE   H4R18826   5.423   0.623   7.006 -0.1448  1.6699  2.6180
  167SAPE   H4S18827   5.562   0.715   7.066  0.9917 -0.7146 -0.1503
  167SAPE   C2518828   5.626   0.562   6.935 -0.0312 -0.1547  0.0804
  167SAPE   H5R18829   5.597   0.480   6.867 -0.3411 -0.3531  0.4490
  167SAPE   C2618830   5.754   0.553   6.974 -0.6772  0.2885 -0.4597
  167SAPE   H6R18831   5.826   0.482   6.930 -0.1383 -1.6626  3.2294
  167SAPE   C2718832   5.829   0.652   7.054 -0.2589 -0.1071  0.1719
  167SAPE   H7R18833   5.766   0.741   7.074  0.1082  0.2564 -0.2850
  167SAPE   H7S18834   5.903   0.696   6.984  1.9221 -1.5988  1.4156
  167SAPE   C2818835   5.911   0.611   7.166 -0.2187 -1.2404 -0.4571
  167SAPE   H8R18836   6.010   0.579   7.129  1.8349  2.7365  1.0082
  167SAPE   C2918837   5.891   0.617   7.295  0.0137  0.1037  0.2314
  167SAPE   H9R18838   5.972   0.600   7.368  0.1366  1.1150  0.3438
  167SAPE  C21018839   5.769   0.677   7.358 -0.1425  0.2997  0.2533
  167SAPE  H10R18840   5.747   0.777   7.314 -1.1412  0.6112  1.4054
  167SAPE  H10S18841   5.787   0.696   7.466  3.3014  0.2750 -0.2101
  167SAPE  C21118842   5.658   0.580   7.341 -0.0805  0.2420  0.1271
  167SAPE  H11R18843   5.646   0.562   7.233  3.0036 -0.4038 -0.2158
  167SAPE  C21218844   5.604   0.502   7.435 -0.0246 -0.1437 -0.1293
  167SAPE  H12R18845   5.523   0.433   7.405 -0.7828  0.9544 -0.6770
  167SAPE  C21318846   5.632   0.496   7.587 -0.9390  0.9861  0.1173
  167SAPE  H13R18847   5.540   0.450   7.628 -0.2250  0.1539  0.8286
  167SAPE  H13S18848   5.635   0.597   7.632  2.6043  0.2388  1.9478
  167SAPE  C21418849   5.760   0.425   7.638  0.0453 -0.0330 -0.3126
  167SAPE  H14R18850   5.776   0.324   7.598 -1.8677 -0.1912 -0.7432
  167SAPE  C21518851   5.836   0.462   7.741 -0.4844  0.8747  0.0081
  167SAPE  H15R18852   5.924   0.397   7.752 -0.8610 -0.1599 -2.5270
  167SAPE  C21618853   5.832   0.585   7.835  0.6350  0.2869 -0.2545
  167SAPE  H16R18854   5.839   0.538   7.936  4.3837  2.5035  0.7325
  167SAPE  H16S18855   5.739   0.643   7.823 -0.7312 -1.2155  2.2325
  167SAPE  C21718856   5.955   0.686   7.815  0.2968  0.3872 -0.2238
  167SAPE  H17R18857   5.982   0.689   7.708  1.0404  1.2582 -0.0266
  167SAPE  H17S18858   6.040   0.637   7.867  0.2513  0.6508  0.1086
  167SAPE  C21818859   5.927   0.827   7.873 -0.2538 -0.3794 -0.3050
  167SAPE  H18R18860   5.893   0.807   7.977  0.8371 -2.5751 -0.3298
  167SAPE  H18S18861   5.839   0.866   7.817 -0.5828  0.4721  0.7754
  167SAPE  C21918862   6.037   0.932   7.851  0.6963 -0.9516  0.1958
  167SAPE  H19R18863   5.993   1.027   7.887 -0.1892 -2.0756  2.2176
  167SAPE  H19S18864   6.069   0.930   7.744  1.6590 -0.2811  0.4569
  167SAPE  C22018865   6.159   0.906   7.932 -0.1057 -0.0641  0.7395
  167SAPE  H20R18866   6.147   0.904   8.042  1.1825 -1.9553  0.8959
  167SAPE  H20S18867   6.235   0.981   7.901 -1.4927  0.2917 -2.1642
  167SAPE  H20T18868   6.205   0.807   7.910  2.3780  0.2198  3.9191
  167SAPE   C3318869   5.918   0.983   6.936 -0.2929  0.6699  0.2012
  167SAPE   H3X18870   5.815   0.959   6.969 -0.0105  0.3757  0.8958
  167SAPE   H3Y18871   5.916   1.092   6.916  1.8543  0.8245  0.6169
  167SAPE   C3418872   6.018   0.962   7.054  0.5810  0.5460 -0.1223
  167SAPE   H4X18873   6.113   1.015   7.029 -0.3843  1.5804 -1.8108
  167SAPE   H4Y18874   6.033   0.852   7.059  0.6997  0.5107 -1.0251
  167SAPE   C3518875   5.963   1.028   7.183  0.3009  0.0779 -0.0865
  167SAPE   H5X18876   5.871   0.970   7.205  0.7280 -0.6923 -0.3146
  167SAPE   H5Y18877   5.937   1.135   7.168 -1.9085  0.2069  3.5214
  167SAPE   C3618878   6.058   1.029   7.303 -0.3092  0.2628  0.7661
  167SAPE   H6X18879   6.163   1.060   7.283  0.9344 -2.1197  2.9714
  167SAPE   H6Y18880   6.059   0.923   7.338 -0.0149  0.5742  1.7441
  167SAPE   C3718881   6.015   1.118   7.413 -0.9874 -0.0924 -0.5994
  167SAPE   H7X18882   5.939   1.073   7.481  0.6029  0.9852  2.0554
  167SAPE   H7Y18883   5.967   1.208   7.369  0.5587  1.5236  0.8416
  167SAPE   C3818884   6.131   1.166   7.500 -0.1791 -0.1990 -0.2305
  167SAPE   H8X18885   6.209   1.224   7.445  3.0005 -2.8084  1.1721
  167SAPE   H8Y18886   6.192   1.078   7.530  0.4808  0.6507  0.9988
  167SAPE   C3918887   6.088   1.237   7.630  0.2499  0.4559 -0.0227
  167SAPE   H9X18888   6.013   1.166   7.671 -1.8386  2.8971  0.6760
  167SAPE   H9Y18889   6.018   1.321   7.611 -2.1299 -0.2140  4.5048
  167SAPE  C31018890   6.202   1.265   7.726 -0.7916 -0.1654  0.8941
  167SAPE  H10X18891   6.276   1.336   7.682 -0.1791 -1.5724 -0.4216
  167SAPE  H10Y18892   6.255   1.169   7.744  0.7471  0.6678  0.9166
  167SAPE  C31118893   6.157   1.293   7.872 -0.3767 -0.3346 -0.0751
  167SAPE  H11X18894   6.073   1.227   7.906 -1.0512  0.3805 -0.3146
  167SAPE  H11Y18895   6.117   1.397   7.870  1.1759  0.2818  0.1639
  167SAPE  C31218896   6.272   1.287   7.968 -0.3770  0.5212  0.5579
  167SAPE  H12X18897   6.347   1.361   7.934  1.0821 -1.1575 -0.0406
  167SAPE  H12Y18898   6.324   1.188   7.967 -2.4938 -0.6671  0.8516
  167SAPE  C31318899   6.225   1.309   8.108 -0.4455  0.1007 -0.6678
  167SAPE  H13X18900   6.179   1.220   8.157  1.2759  0.6498  2.2320
  167SAPE  H13Y18901   6.152   1.393   8.105 -0.8108 -0.1854 -0.1708
  167SAPE  C31418902   6.322   1.357   8.215 -1.1508 -0.8058 -0.9734
  167SAPE  H14X18903   6.335   1.463   8.182  1.5032  0.1947  2.6712
  167SAPE  H14Y18904   6.420   1.309   8.193 -0.6260 -0.0753 -0.3008
  167SAPE  C31518905   6.274   1.349   8.357 -0.5086 -0.2037  0.4871
  167SAPE  H15X18906   6.291   1.244   8.387 -1.8409 -0.5740  0.0487
  167SAPE  H15Y18907   6.162   1.350   8.357 -0.5237  1.5237  0.0606
  167SAPE  C31618908   6.333   1.450   8.453  0.0666 -0.4099 -0.8398
  167SAPE  H16X18909   6.440   1.429   8.471 -0.2461 -0.2714  1.5156
  167SAPE  H16Y18910   6.284   1.443   8.553  1.7307 -1.0718 -0.0402
  167SAPE  C31718911   6.308   1.602   8.414 -0.4036  0.5389 -0.8262
  167SAPE  H17X18912   6.199   1.625   8.417 -0.4796  0.3394 -1.8063
  167SAPE  H17Y18913   6.352   1.630   8.316  5.2052 -0.9082  0.9065
  167SAPE  C31818914   6.369   1.690   8.523 -0.2588  0.4384 -0.0428
  167SAPE  H18X18915   6.358   1.798   8.499  0.9690  0.1295 -2.2839
  167SAPE  H18Y18916   6.478   1.669   8.517 -0.3405  0.4325 -2.3081
  167SAPE  H18Z18917   6.326   1.663   8.622 -0.8120  1.6543  0.0570
  168SAPE     N18918   5.079   3.029   6.633  0.2982 -0.4626  0.6742
  168SAPE   HN118919   5.029   3.061   6.547 -0.7640 -0.8593  1.1221
  168SAPE   HN218920   5.122   3.115   6.672 -1.0014  0.1698  0.7830
  168SAPE   HN318921   5.151   2.960   6.605  0.5051 -0.0166  0.0886
  168SAPE   C1218922   4.998   2.976   6.745  0.3865 -0.6571  0.3716
  168SAPE  H12A18923   5.070   2.949   6.825  0.6493 -2.4297 -0.3993
  168SAPE  H12B18924   4.956   2.880   6.706  1.2802 -0.2475 -1.7675
  168SAPE   C1118925   4.898   3.078   6.802  0.4731  0.1979 -0.2608
  168SAPE  H11A18926   4.941   3.171   6.845 -2.2282  0.1198  3.0186
  168SAPE  H11B18927   4.848   3.039   6.893  0.0942  1.0335 -0.1054
  168SAPE     P18928   4.709   3.236   6.694 -0.2000  0.2332  0.0622
  168SAPE   O1318929   4.799   3.350   6.677  0.1958 -0.2968 -0.7372
  168SAPE   O1418930   4.592   3.215   6.600 -0.3476 -0.3373 -0.2530
  168SAPE   O1218931   4.798   3.107   6.697  0.8440 -0.6288 -0.0184
  168SAPE   O1118932   4.637   3.249   6.830  0.0623  0.3028 -0.3276
  168SAPE    C118933   4.637   3.369   6.914 -0.0526  0.9308  0.4189
  168SAPE    HA18934   4.718   3.438   6.882 -0.0030  0.9721  0.6334
  168SAPE    HB18935   4.538   3.417   6.899  0.6900  2.9746  1.6270
  168SAPE    C218936   4.668   3.335   7.061 -0.4991 -0.0979  0.2315
  168SAPE    HS18937   4.632   3.407   7.137 -2.0460  0.1835 -0.7299
  168SAPE   O2118938   4.809   3.310   7.070  0.2406  0.2438 -0.1022
  168SAPE   C2118939   4.895   3.407   7.111  0.2017 -0.5952 -0.1702
  168SAPE   O2218940   4.862   3.523   7.123  0.2586 -0.7472  0.2467
  168SAPE   C2218941   5.044   3.364   7.108  0.1230 -0.5979 -0.3739
  168SAPE   H2R18942   5.058   3.288   7.029 -1.9566 -0.9196 -0.5058
  168SAPE   H2S18943   5.094   3.460   7.083  1.3061 -1.2563 -0.5952
  168SAPE    C318944   4.595   3.198   7.108 -0.2714 -0.2747 -0.0475
  168SAPE    HX18945   4.635   3.114   7.047 -1.4909 -0.5630 -0.4840
  168SAPE    HY18946   4.488   3.204   7.078 -0.1709 -2.3081 -0.9475
  168SAPE   O3118947   4.629   3.160   7.249  0.7928  0.1540 -0.0358
  168SAPE   C3118948   4.539   3.209   7.334  0.9031  0.2089  1.1963
  168SAPE   O3218949   4.430   3.254   7.308  0.4930  0.3194 -0.4745
  168SAPE   C3218950   4.589   3.185   7.475  0.5203  0.5781 -0.4993
  168SAPE   H2X18951   4.699   3.178   7.467  0.7767 -0.7781  2.6990
  168SAPE   H2Y18952   4.554   3.083   7.503 -1.9431  1.6861  0.8402
  168SAPE   C2318953   5.094   3.312   7.252  0.3243 -0.9478 -0.1826
  168SAPE   H3R18954   5.204   3.321   7.261  0.2250  2.1902 -0.8683
  168SAPE   H3S18955   5.060   3.206   7.257 -0.2121 -0.8065 -0.7190
  168SAPE   C2418956   5.045   3.399   7.364  0.0898 -0.1073 -0.6624
  168SAPE   H4R18957   5.086   3.353   7.456  1.7931  1.3219 -0.6548
  168SAPE   H4S18958   4.934   3.397   7.362  0.0908 -1.1344 -3.0895
  168SAPE   C2518959   5.079   3.542   7.362  0.1120 -1.2086 -0.8129
  168SAPE   H5R18960   5.057   3.604   7.274 -0.5828  0.4634  0.4912
  168SAPE   C2618961   5.141   3.613   7.455  0.3944 -0.3788  0.0325
  168SAPE   H6R18962   5.161   3.716   7.422 -1.3591  0.2536  0.8320
  168SAPE   C2718963   5.198   3.560   7.586 -0.8220  0.2514 -0.3747
  168SAPE   H7R18964   5.300   3.601   7.598 -2.0604  3.1413  1.1115
  168SAPE   H7S18965   5.199   3.449   7.594  1.7056  0.2567  0.0070
  168SAPE   C2818966   5.112   3.603   7.709 -0.4303 -0.4429  0.1821
  168SAPE   H8R18967   5.016   3.655   7.695 -0.9468 -0.9701  1.6541
  168SAPE   C2918968   5.149   3.573   7.835  0.6004  0.1734  0.5828
  168SAPE   H9R18969   5.085   3.615   7.913 -2.4949  3.1129 -3.1864
  168SAPE  C21018970   5.269   3.492   7.877  0.8960  0.2322 -0.0692
  168SAPE  H10R18971   5.291   3.429   7.788 -0.8763  3.1950 -2.7817
  168SAPE  H10S18972   5.242   3.431   7.966 -0.4833  0.9230  0.0103
  168SAPE  C21118973   5.389   3.580   7.910  0.5062  0.5173 -0.1118
  168SAPE  H11R18974   5.425   3.642   7.827 -0.4417  0.2461 -0.7504
  168SAPE  C21218975   5.450   3.580   8.029 -0.1599 -0.3065  0.7293
  168SAPE  H12R18976   5.536   3.649   8.037 -1.6007  1.5987  0.3887
  168SAPE  C21318977   5.428   3.506   8.153  0.3666  0.1127  0.1831
  168SAPE  H13R18978   5.321   3.489   8.177  0.5584  0.6313  1.5328
  168SAPE  H13S18979   5.453   3.577   8.236  0.3441 -0.9189  1.0955
  168SAPE  C21418980   5.491   3.366   8.148  0.4295 -0.4658  0.3013
  168SAPE  H14R18981   5.519   3.324   8.050 -1.3551 -2.3944  0.5510
  168SAPE  C21518982   5.504   3.294   8.265  0.0146 -0.2540  0.6384
  168SAPE  H15R18983   5.567   3.205   8.254  1.0582  0.4225  0.9180
  168SAPE  C21618984   5.463   3.332   8.405 -0.2531 -0.1787 -0.0211
  168SAPE  H16R18985   5.454   3.442   8.400  1.0009 -0.1252 -2.0377
  168SAPE  H16S18986   5.543   3.312   8.480 -0.0807 -0.4633 -0.2794
  168SAPE  C21718987   5.330   3.276   8.462 -0.2364 -0.5262  0.3410
  168SAPE  H17R18988   5.342   3.259   8.571  2.1013  0.4433  0.2757
  168SAPE  H17S18989   5.309   3.174   8.422  0.8674  0.6661 -3.6942
  168SAPE  C21818990   5.209   3.373   8.443  0.3891 -0.0136  0.3642
  168SAPE  H18R18991   5.191   3.378   8.333  0.5150  0.1172  0.3505
  168SAPE  H18S18992   5.252   3.472   8.469  0.8724 -0.2855  0.5973
  168SAPE  C21918993   5.073   3.320   8.502 -0.1294  0.1814  0.1149
  168SAPE  H19R18994   4.994   3.390   8.467 -0.7613 -0.6362 -0.1131
  168SAPE  H19S18995   5.082   3.321   8.613  0.7879 -1.8275  0.1056
  168SAPE  C22018996   5.036   3.176   8.471  0.1182 -0.0110 -0.1506
  168SAPE  H20R18997   5.038   3.163   8.361 -1.3708  1.4426 -0.4004
  168SAPE  H20S18998   4.927   3.168   8.494 -0.3161 -1.7791 -2.5028
  168SAPE  H20T18999   5.105   3.107   8.523 -0.5508 -0.5128  0.0881
  168SAPE   C3319000   4.519   3.286   7.572 -0.9086 -0.3142 -0.6992
  168SAPE   H3X19001   4.411   3.262   7.582 -1.2863  0.2979 -2.8194
  168SAPE   H3Y19002   4.522   3.390   7.532 -0.6011 -0.2280 -0.4602
  168SAPE   C3419003   4.593   3.289   7.713  0.1931 -0.1804  0.9022
  168SAPE   H4X19004   4.701   3.304   7.689  0.1622 -2.2962 -0.9017
  168SAPE   H4Y19005   4.589   3.188   7.757  0.2026 -0.4881  0.2099
  168SAPE   C3519006   4.527   3.386   7.817 -0.4401 -0.2194 -0.6667
  168SAPE   H5X19007   4.428   3.345   7.846  0.5922 -1.7062  0.9521
  168SAPE   H5Y19008   4.502   3.483   7.768  1.6521  1.5947  1.6075
  168SAPE   C3619009   4.619   3.417   7.942 -0.2401 -0.4876 -0.3812
  168SAPE   H6X19010   4.561   3.481   8.011 -1.6540 -1.1219 -0.9488
  168SAPE   H6Y19011   4.709   3.474   7.912 -0.2874  0.5667  1.3284
  168SAPE   C3719012   4.659   3.298   8.026  0.0243  0.0662 -0.9586
  168SAPE   H7X19013   4.737   3.240   7.971  0.6358  0.5025 -0.5497
  168SAPE   H7Y19014   4.577   3.222   8.028 -0.4803  0.6110  1.2295
  168SAPE   C3819015   4.708   3.320   8.174  0.4310  0.0457  0.8109
  168SAPE   H8X19016   4.624   3.361   8.235 -0.1315 -0.8802  0.6779
  168SAPE   H8Y19017   4.791   3.394   8.177 -0.1211  0.6594  3.4614
  168SAPE   C3919018   4.758   3.193   8.246 -0.3052 -0.6262  0.5675
  168SAPE   H9X19019   4.766   3.214   8.355 -1.6283 -0.8122  0.7188
  168SAPE   H9Y19020   4.860   3.178   8.204 -0.9569  0.0290 -1.3916
  168SAPE  C31019021   4.684   3.067   8.215  0.2509  0.0995  0.1681
  168SAPE  H10X19022   4.705   3.044   8.108  0.8127  0.1577  0.2644
  168SAPE  H10Y19023   4.576   3.085   8.237  0.2627  1.7392 -0.9638
  168SAPE  C31119024   4.726   2.944   8.299  0.0258  0.3191 -0.0869
  168SAPE  H11X19025   4.836   2.931   8.294  0.2649  1.7254  0.8679
  168SAPE  H11Y19026   4.675   2.849   8.270 -0.2536  0.1059  1.0337
  168SAPE  C31219027   4.698   2.964   8.453 -0.3373 -0.3598 -0.0815
  168SAPE  H12X19028   4.593   2.999   8.465 -0.1239 -0.1732  1.4051
  168SAPE  H12Y19029   4.750   3.049   8.502 -3.0290 -0.4674  3.2829
  168SAPE  C31319030   4.721   2.837   8.533  0.7600 -0.5648 -0.1196
  168SAPE  H13X19031   4.657   2.758   8.487 -1.8507  2.4056 -2.0856
  168SAPE  H13Y19032   4.693   2.859   8.638  0.9585 -2.5290  0.3939
  168SAPE  C31419033   4.864   2.793   8.527 -0.2873 -0.2767  0.5286
  168SAPE  H14X19034   4.918   2.888   8.511 -0.5982 -0.2819 -0.6358
  168SAPE  H14Y19035   4.890   2.741   8.432 -1.7233  1.5637 -0.9317
  168SAPE  C31519036   4.908   2.705   8.651  0.4549  0.4530  0.2518
  168SAPE  H15X19037   4.883   2.757   8.746 -0.7664  1.3808 -0.5397
  168SAPE  H15Y19038   5.019   2.709   8.646  0.3987  1.4075 -0.6469
  168SAPE  C31619039   4.862   2.561   8.627 -0.2195  0.8917 -0.0180
  168SAPE  H16X19040   4.767   2.568   8.570 -1.4469  0.3110  1.8452
  168SAPE  H16Y19041   4.832   2.523   8.727  1.2627 -1.2666 -0.3148
  168SAPE  C31719042   4.972   2.466   8.582  0.0240  0.0030 -0.4590
  168SAPE  H17X19043   5.060   2.481   8.647 -1.1729  2.7608  0.6623
  168SAPE  H17Y19044   5.002   2.487   8.477 -0.9605  0.9449 -0.5710
  168SAPE  C31819045   4.934   2.324   8.606  0.1081 -0.3741 -0.7207
  168SAPE  H18X19046   4.957   2.295   8.711 -1.4769 -2.4674 -0.8972
  168SAPE  H18Y19047   4.989   2.245   8.551  0.4117  0.0992 -1.1125
  168SAPE  H18Z19048   4.827   2.308   8.584  0.2909 -1.8695 -0.5982
  169SAPE     N19049   2.380   2.233   6.454  0.6139 -0.2596  0.1977
  169SAPE   HN119050   2.380   2.242   6.557 -2.1753  0.6621  0.2017
  169SAPE   HN219051   2.463   2.176   6.428  0.7598 -0.9077  1.9938
  169SAPE   HN319052   2.385   2.332   6.423  0.8908 -0.6657 -1.1282
  169SAPE   C1219053   2.254   2.163   6.416  0.3136 -0.7184  0.0328
  169SAPE  H12A19054   2.271   2.057   6.443  0.2623 -0.0930  2.9107
  169SAPE  H12B19055   2.227   2.200   6.315 -0.6197  1.3290  0.9582
  169SAPE   C1119056   2.133   2.211   6.503 -0.9721 -0.3184  0.2622
  169SAPE  H11A19057   2.175   2.194   6.605 -0.8104  1.0116  0.4337
  169SAPE  H11B19058   2.043   2.146   6.498  0.0772 -1.7019 -1.7843
  169SAPE     P19059   2.021   2.400   6.373 -0.2248 -0.3742  0.7434
  169SAPE   O1319060   2.007   2.548   6.373 -0.1979 -0.5703  0.1520
  169SAPE   O1419061   2.078   2.343   6.248 -1.2787 -0.2228 -0.1309
  169SAPE   O1219062   2.122   2.358   6.481  0.6508 -0.4168  0.4017
  169SAPE   O1119063   1.884   2.334   6.411  0.3333 -0.5269 -0.8970
  169SAPE    C119064   1.808   2.385   6.526  0.7727  0.4857 -0.5077
  169SAPE    HA19065   1.856   2.473   6.572  1.0178  0.6435 -1.0563
  169SAPE    HB19066   1.705   2.416   6.498  0.6650  1.5129  0.9236
  169SAPE    C219067   1.780   2.267   6.618  0.5565  0.1392 -0.4150
  169SAPE    HS19068   1.702   2.300   6.690  1.0128  0.0669  0.1151
  169SAPE   O2119069   1.899   2.229   6.686 -0.1238 -0.4139  0.4458
  169SAPE   C2119070   1.944   2.319   6.771 -0.2050  1.4511 -0.1384
  169SAPE   O2219071   1.907   2.431   6.795 -0.1603 -0.1940  0.3731
  169SAPE   C2219072   2.069   2.264   6.842 -0.0455  0.2381  0.0307
  169SAPE   H2R19073   2.100   2.164   6.803  0.8475 -0.2632  1.8947
  169SAPE   H2S19074   2.155   2.333   6.824  0.6805  0.4536  3.5898
  169SAPE    C319075   1.726   2.148   6.538 -0.3941 -0.4680  0.0798
  169SAPE    HX19076   1.797   2.149   6.453 -1.4581  0.4447 -0.8273
  169SAPE    HY19077   1.627   2.177   6.498 -0.3004 -0.8703 -0.4588
  169SAPE   O3119078   1.731   2.017   6.609  0.0852  0.2941  0.4745
  169SAPE   C3119079   1.811   1.927   6.562 -0.6478 -0.4318  0.1171
  169SAPE   O3219080   1.885   1.948   6.470  0.2687 -0.3167  0.7300
  169SAPE   C3219081   1.834   1.822   6.673 -0.3357  0.2126 -0.4014
  169SAPE   H2X19082   1.909   1.751   6.630  0.0996  0.2491  0.2802
  169SAPE   H2Y19083   1.736   1.772   6.686 -1.0416  1.6546  0.0395
  169SAPE   C2319084   2.052   2.251   6.990  0.2380 -0.2025  0.4705
  169SAPE   H3R19085   2.133   2.189   7.035  0.9995  0.3309 -0.1223
  169SAPE   H3S19086   1.957   2.200   7.014 -0.1818  0.5674  0.4883
  169SAPE   C2419087   2.056   2.389   7.072  0.1235  0.9201  0.7848
  169SAPE   H4R19088   1.986   2.384   7.158  0.5105  2.3087  1.2083
  169SAPE   H4S19089   2.019   2.474   7.010  0.7116  1.3509  1.0124
  169SAPE   C2519090   2.198   2.418   7.109 -0.2230 -0.3638 -0.5996
  169SAPE   H5R19091   2.280   2.390   7.041  0.4431 -1.6348  0.6566
  169SAPE   C2619092   2.236   2.463   7.233  0.4452 -0.8012 -0.7703
  169SAPE   H6R19093   2.341   2.489   7.254  0.7908 -1.8333 -1.1926
  169SAPE   C2719094   2.154   2.507   7.349 -0.0864 -0.5601 -0.1239
  169SAPE   H7R19095   2.076   2.578   7.313  0.8457  1.1209  1.0639
  169SAPE   H7S19096   2.203   2.578   7.418 -0.3095  0.2460 -0.7710
  169SAPE   C2819097   2.099   2.391   7.428  0.6580 -0.0178  0.3125
  169SAPE   H8R19098   2.113   2.294   7.377  2.3417 -0.4125  1.4446
  169SAPE   C2919099   2.038   2.387   7.547 -0.0691  0.1883 -0.5090
  169SAPE   H9R19100   2.012   2.291   7.593  0.9419  0.1399 -0.0000
  169SAPE  C21019101   2.010   2.512   7.629  0.1202  0.1539 -0.0021
  169SAPE  H10R19102   1.997   2.599   7.561  3.4078  0.3644 -0.5553
  169SAPE  H10S19103   2.098   2.538   7.691 -0.2706  0.4854  0.4147
  169SAPE  C21119104   1.894   2.493   7.724 -0.3907  0.1359  0.4220
  169SAPE  H11R19105   1.794   2.492   7.679 -1.0447 -0.4788  1.8101
  169SAPE  C21219106   1.885   2.487   7.859 -0.4559 -0.4943  0.2455
  169SAPE  H12R19107   1.786   2.473   7.906 -0.6349  1.0618  0.3624
  169SAPE  C21319108   1.996   2.509   7.955 -0.1922  0.9045  0.9675
  169SAPE  H13R19109   1.994   2.612   7.995  0.7431  1.6830 -0.8806
  169SAPE  H13S19110   2.094   2.483   7.909  0.3301 -0.5722  2.8083
  169SAPE  C21419111   1.977   2.412   8.072  0.1589 -0.6227  0.5078
  169SAPE  H14R19112   1.967   2.304   8.051  1.2338 -0.8695  1.1929
  169SAPE  C21519113   1.960   2.444   8.202  0.4629  0.5316 -0.0584
  169SAPE  H15R19114   1.953   2.354   8.266  0.2925 -0.3788 -1.3261
  169SAPE  C21619115   1.971   2.574   8.276  0.2078 -0.1455  1.1308
  169SAPE  H16R19116   1.894   2.583   8.355 -0.3704 -1.6160  0.7809
  169SAPE  H16S19117   1.936   2.654   8.208 -1.4750 -0.2138  1.8765
  169SAPE  C21719118   2.113   2.601   8.326  0.2217  0.8799 -0.3233
  169SAPE  H17R19119   2.191   2.594   8.246  0.7062  2.1083  0.0088
  169SAPE  H17S19120   2.130   2.531   8.411 -0.9030 -0.3361 -1.0709
  169SAPE  C21819121   2.124   2.742   8.390  0.3866  0.4614  1.5079
  169SAPE  H18R19122   2.092   2.814   8.312  1.7423 -2.2989 -1.8919
  169SAPE  H18S19123   2.229   2.770   8.409  0.8226  0.0053 -0.0867
  169SAPE  C21919124   2.036   2.761   8.515 -0.1321  0.1686  0.3808
  169SAPE  H19R19125   1.927   2.755   8.492 -0.0696 -0.3747  0.2210
  169SAPE  H19S19126   2.043   2.870   8.535 -3.0013  0.2692  1.2249
  169SAPE  C22019127   2.069   2.674   8.631 -0.0062 -0.0498  0.1352
  169SAPE  H20R19128   2.035   2.573   8.601  0.6586 -0.1835 -0.1824
  169SAPE  H20S19129   2.024   2.711   8.726 -2.6133  1.8199 -1.6839
  169SAPE  H20T19130   2.178   2.668   8.654  0.2702 -0.2639 -1.1792
  169SAPE   C3319131   1.891   1.885   6.808  0.2060  0.3873  0.4908
  169SAPE   H3X19132   1.814   1.957   6.844 -2.4576 -1.1120 -1.7691
  169SAPE   H3Y19133   1.987   1.936   6.785 -0.1303  1.9649  2.3217
  169SAPE   C3419134   1.909   1.779   6.921 -1.0788 -0.1995  0.6686
  169SAPE   H4X19135   1.957   1.830   7.007  0.1890  1.5591 -0.9923
  169SAPE   H4Y19136   1.989   1.710   6.887  1.1683  1.8907  1.4427
  169SAPE   C3519137   1.790   1.708   6.973  0.1908 -0.0078  0.0068
  169SAPE   H5X19138   1.751   1.659   6.881 -2.4649  1.4592  0.2350
  169SAPE   H5Y19139   1.717   1.788   6.998 -0.9876 -0.4556 -1.8103
  169SAPE   C3619140   1.818   1.624   7.094  0.2609  0.3008 -0.1092
  169SAPE   H6X19141   1.920   1.582   7.085  0.5011  0.8954 -0.1837
  169SAPE   H6Y19142   1.752   1.536   7.110  1.0700  0.1612  3.0536
  169SAPE   C3719143   1.818   1.703   7.230  0.0906  0.2690  0.5193
  169SAPE   H7X19144   1.727   1.767   7.234  0.3126  0.6286 -0.1232
  169SAPE   H7Y19145   1.903   1.773   7.238  0.8344 -0.7396  1.9436
  169SAPE   C3819146   1.811   1.610   7.355  0.4396 -0.0433  1.2151
  169SAPE   H8X19147   1.910   1.560   7.366  0.2033 -0.2282  2.7050
  169SAPE   H8Y19148   1.737   1.529   7.336 -0.5822  1.2047 -0.3596
  169SAPE   C3919149   1.766   1.691   7.476 -0.3029  0.0666  0.0506
  169SAPE   H9X19150   1.664   1.734   7.481  0.8646  3.1614 -0.2213
  169SAPE   H9Y19151   1.830   1.778   7.503 -0.4909  0.6331 -1.2589
  169SAPE  C31019152   1.768   1.599   7.605 -0.4548 -0.7949  0.2917
  169SAPE  H10X19153   1.864   1.548   7.626  0.9659  2.0173  1.1884
  169SAPE  H10Y19154   1.682   1.530   7.592 -0.5377 -0.8087  0.8627
  169SAPE  C31119155   1.752   1.686   7.732 -0.1615  0.2783 -0.4048
  169SAPE  H11X19156   1.662   1.747   7.709  0.7364  2.0754  0.6688
  169SAPE  H11Y19157   1.836   1.758   7.734 -1.9094  2.3943  0.4349
  169SAPE  C31219158   1.746   1.622   7.874 -0.2011  1.1434  0.1467
  169SAPE  H12X19159   1.651   1.564   7.876 -1.2459  2.7981  1.3163
  169SAPE  H12Y19160   1.736   1.699   7.954  2.1725  0.6228  1.0479
  169SAPE  C31319161   1.861   1.526   7.914  0.5867  0.0647  0.6243
  169SAPE  H13X19162   1.948   1.596   7.911 -0.2483  1.3345  3.2214
  169SAPE  H13Y19163   1.864   1.445   7.838 -1.6290  1.5087 -1.1281
  169SAPE  C31419164   1.858   1.452   8.049 -0.0392  0.1362  0.6814
  169SAPE  H14X19165   1.956   1.413   8.084  0.0005 -0.5035 -0.0992
  169SAPE  H14Y19166   1.793   1.363   8.033  1.6718 -0.9092 -0.8397
  169SAPE  C31519167   1.810   1.542   8.155 -0.4594 -0.0550 -0.1226
  169SAPE  H15X19168   1.704   1.572   8.139  0.1609  2.1080 -0.5769
  169SAPE  H15Y19169   1.865   1.638   8.158 -1.0887  0.3174 -0.2219
  169SAPE  C31619170   1.807   1.465   8.283  0.4879 -0.0909 -0.2057
  169SAPE  H16X19171   1.906   1.458   8.332  0.4372  0.4551 -0.0270
  169SAPE  H16Y19172   1.773   1.361   8.261  1.1057 -0.5279  0.8226
  169SAPE  C31719173   1.714   1.522   8.384 -0.2092  0.4657 -1.0974
  169SAPE  H17X19174   1.606   1.530   8.359 -1.0903  1.2412  2.4916
  169SAPE  H17Y19175   1.741   1.626   8.413 -1.4246  1.0687 -2.0417
  169SAPE  C31819176   1.721   1.434   8.513  0.1960  0.3603  0.5795
  169SAPE  H18X19177   1.828   1.423   8.539  0.4207 -1.3429 -0.8317
  169SAPE  H18Y19178   1.670   1.337   8.493 -0.6192  1.0966 -1.1764
  169SAPE  H18Z19179   1.659   1.486   8.588 -0.5352  0.3465 -0.0006
  170SAPE     N19180   4.355   0.072   6.284  0.7122  0.0995  1.0097
  170SAPE   HN119181   4.299   0.101   6.366  0.7755  0.8994  0.7794
  170SAPE   HN219182   4.353  -0.030   6.263 -1.0329  0.0961  1.0693
  170SAPE   HN319183   4.456   0.093   6.301  0.8392  2.2356 -1.6030
  170SAPE   C1219184   4.316   0.141   6.155  0.0573  0.5762  0.2031
  170SAPE  H12A19185   4.209   0.112   6.143 -0.1265 -0.1504  2.9143
  170SAPE  H12B19186   4.381   0.087   6.084  0.2423  0.1915  0.6646
  170SAPE   C1119187   4.326   0.289   6.163  0.2190 -0.0499 -0.1667
  170SAPE  H11A19188   4.284   0.332   6.257  1.2801  0.2554  0.1838
  170SAPE  H11B19189   4.265   0.334   6.082  0.6451 -0.3128 -0.6389
  170SAPE     P19190   4.520   0.464   6.162  0.2528 -0.1273 -0.4530
  170SAPE   O1319191   4.662   0.461   6.109 -0.0810  0.5576  0.6326
  170SAPE   O1419192   4.430   0.562   6.101 -0.2657  0.2981 -0.0782
  170SAPE   O1219193   4.464   0.312   6.158 -0.7927  0.4558  0.5775
  170SAPE   O1119194   4.517   0.486   6.320  0.1298  0.3095 -0.0412
  170SAPE    C119195   4.589   0.395   6.407  0.3015 -0.3149  0.3313
  170SAPE    HA19196   4.631   0.306   6.354 -0.5983 -0.8589  0.5182
  170SAPE    HB19197   4.678   0.443   6.452 -1.1041  0.3228  2.5651
  170SAPE    C219198   4.492   0.342   6.523 -0.6180 -0.2274  0.1126
  170SAPE    HS19199   4.403   0.300   6.471 -0.0329 -1.9703  0.4303
  170SAPE   O2119200   4.451   0.449   6.606 -0.3732 -0.6763 -0.3226
  170SAPE   C2119201   4.317   0.470   6.610  1.0110  0.5810  0.4511
  170SAPE   O2219202   4.231   0.399   6.562 -0.8529 -0.7378  0.3091
  170SAPE   C2219203   4.291   0.599   6.671  0.0928 -0.0881 -0.7136
  170SAPE   H2R19204   4.350   0.688   6.640 -2.1079  1.2008 -1.4446
  170SAPE   H2S19205   4.193   0.628   6.627 -0.5228 -1.9113 -0.6102
  170SAPE    C319206   4.569   0.243   6.613  0.4806  0.2470  0.8540
  170SAPE    HX19207   4.643   0.308   6.665  2.7218 -0.5294 -1.1810
  170SAPE    HY19208   4.626   0.164   6.559 -0.1318  1.2316 -1.3267
  170SAPE   O3119209   4.477   0.183   6.706 -0.0181  0.5026  0.0041
  170SAPE   C3119210   4.417   0.068   6.666 -0.5649  0.0585  0.5390
  170SAPE   O3219211   4.435   0.011   6.557 -0.1727  0.2902 -0.5361
  170SAPE   C3219212   4.325   0.014   6.774 -0.6409  0.4759 -0.4281
  170SAPE   H2X19213   4.293  -0.089   6.745  1.6107 -1.3651  2.8916
  170SAPE   H2Y19214   4.231   0.071   6.790 -0.0680  1.1939  0.4498
  170SAPE   C2319215   4.286   0.575   6.827 -0.2637 -0.0917 -0.0974
  170SAPE   H3R19216   4.390   0.556   6.861 -0.0810  1.2438  0.1438
  170SAPE   H3S19217   4.227   0.484   6.852 -1.2478  0.7677  0.8176
  170SAPE   C2419218   4.239   0.693   6.909 -0.1573  0.3339  0.1097
  170SAPE   H4R19219   4.252   0.668   7.017 -1.7400  1.4995  0.6179
  170SAPE   H4S19220   4.129   0.701   6.892 -0.4374 -0.8184  1.2088
  170SAPE   C2519221   4.304   0.823   6.864 -0.4641 -0.5379 -0.5409
  170SAPE   H5R19222   4.277   0.848   6.760 -1.9252 -3.3323 -0.9239
  170SAPE   C2619223   4.372   0.907   6.945  0.2891  0.0184 -0.2918
  170SAPE   H6R19224   4.431   0.985   6.893  1.1107  1.5891  2.7221
  170SAPE   C2719225   4.392   0.899   7.093 -0.2239  0.0474 -0.4886
  170SAPE   H7R19226   4.399   0.791   7.117  1.1946 -0.0802 -1.3677
  170SAPE   H7S19227   4.303   0.948   7.139 -0.7916 -0.1796 -1.3268
  170SAPE   C2819228   4.512   0.985   7.138  0.1901 -0.6285  0.1393
  170SAPE   H8R19229   4.560   1.054   7.068  0.5276  0.3650  1.3131
  170SAPE   C2919230   4.562   0.976   7.264  0.0813 -0.2009 -0.1214
  170SAPE   H9R19231   4.648   1.041   7.286 -0.5737  0.0755  1.8264
  170SAPE  C21019232   4.498   0.890   7.369 -0.4091 -0.0279 -0.0728
  170SAPE  H10R19233   4.511   0.782   7.348  1.2211 -0.2307  1.7762
  170SAPE  H10S19234   4.387   0.899   7.365 -0.4567 -0.3530  0.4455
  170SAPE  C21119235   4.539   0.928   7.508  0.1481  0.3500 -0.4892
  170SAPE  H11R19236   4.474   0.993   7.568  2.3400  0.4296  1.9668
  170SAPE  C21219237   4.650   0.872   7.562  0.4068  0.1299  0.1428
  170SAPE  H12R19238   4.662   0.894   7.669  0.8006  1.0829 -0.0833
  170SAPE  C21319239   4.746   0.777   7.506  0.3807 -0.1395  1.4288
  170SAPE  H13R19240   4.844   0.818   7.472  0.3399 -0.9867  0.2266
  170SAPE  H13S19241   4.720   0.731   7.408  1.2690 -0.2749  1.2426
  170SAPE  C21419242   4.769   0.657   7.602  0.0491 -0.3662  0.0685
  170SAPE  H14R19243   4.686   0.627   7.668  1.5744  0.1132  2.3123
  170SAPE  C21519244   4.875   0.580   7.590  0.0429  0.1439 -0.2188
  170SAPE  H15R19245   4.880   0.495   7.659 -0.2454  0.7054  0.5004
  170SAPE  C21619246   4.987   0.583   7.497 -0.0196  0.4260  0.4293
  170SAPE  H16R19247   4.947   0.610   7.397 -1.2321  0.5676  0.9338
  170SAPE  H16S19248   5.025   0.479   7.487 -0.7994  0.2830 -1.6993
  170SAPE  C21719249   5.105   0.670   7.551  0.3696  0.6283 -0.2441
  170SAPE  H17R19250   5.155   0.626   7.639  0.4303  0.5540 -0.3152
  170SAPE  H17S19251   5.073   0.772   7.579  0.7996  0.5205  0.6605
  170SAPE  C21819252   5.230   0.675   7.462  0.8483 -0.3381  0.2067
  170SAPE  H18R19253   5.256   0.570   7.438  0.0781 -0.6801  0.8159
  170SAPE  H18S19254   5.319   0.720   7.510  2.5612 -1.5627 -1.6399
  170SAPE  C21919255   5.209   0.782   7.350  0.0572  0.1136 -1.1773
  170SAPE  H19R19256   5.222   0.882   7.399  0.9433 -0.4921 -0.1290
  170SAPE  H19S19257   5.101   0.773   7.327  0.0881 -2.3551 -0.5568
  170SAPE  C22019258   5.291   0.773   7.228  0.2362  0.1285 -0.2154
  170SAPE  H20R19259   5.268   0.858   7.160  0.5652 -0.2147 -0.7586
  170SAPE  H20S19260   5.268   0.687   7.162 -2.4861  1.5220 -1.2265
  170SAPE  H20T19261   5.399   0.780   7.253 -0.0308 -1.0413  1.3844
  170SAPE   C3319262   4.403   0.004   6.911 -0.3983 -0.4318  0.6642
  170SAPE   H3X19263   4.473   0.087   6.937 -1.0407  0.8074 -1.3137
  170SAPE   H3Y19264   4.467  -0.087   6.907  1.2168  0.6980 -1.6784
  170SAPE   C3419265   4.310  -0.016   7.033  0.4882  0.2333  0.5148
  170SAPE   H4X19266   4.241  -0.101   7.014  0.5946  0.0297  1.0433
  170SAPE   H4Y19267   4.248   0.075   7.049 -0.9234 -0.6882  0.5194
  170SAPE   C3519268   4.385  -0.048   7.165 -0.2198  0.2549  0.2816
  170SAPE   H5X19269   4.463   0.030   7.175  3.0086 -2.5354 -1.3671
  170SAPE   H5Y19270   4.441  -0.143   7.165 -1.1366 -0.3106 -0.5795
  170SAPE   C3619271   4.289  -0.044   7.295  0.0734 -0.8434  0.2806
  170SAPE   H6X19272   4.217  -0.123   7.265  0.8130 -1.2118 -0.5712
  170SAPE   H6Y19273   4.235   0.054   7.296  0.3635 -0.6369 -1.3987
  170SAPE   C3719274   4.367  -0.060   7.425 -0.2476  0.1748 -0.8021
  170SAPE   H7X19275   4.409   0.033   7.467 -2.3084 -0.4887  3.2186
  170SAPE   H7Y19276   4.436  -0.145   7.408  0.7887  1.0768 -1.1783
  170SAPE   C3819277   4.281  -0.099   7.546 -0.4449 -0.1514 -0.3509
  170SAPE   H8X19278   4.230  -0.193   7.515 -0.4568 -0.3675  0.3193
  170SAPE   H8Y19279   4.205  -0.019   7.561 -0.2505 -0.2218  1.0814
  170SAPE   C3919280   4.347  -0.132   7.684  0.6292 -0.5392  0.4295
  170SAPE   H9X19281   4.265  -0.158   7.753 -0.1592  0.7434  0.0259
  170SAPE   H9Y19282   4.389  -0.032   7.709  1.4923 -0.5064 -0.9971
  170SAPE  C31019283   4.456  -0.233   7.690  0.1037 -0.7133 -0.8398
  170SAPE  H10X19284   4.535  -0.203   7.618  1.4692 -1.5718  0.2380
  170SAPE  H10Y19285   4.427  -0.338   7.664 -1.2772 -0.7041  0.5358
  170SAPE  C31119286   4.527  -0.232   7.826 -0.3484  0.3199  0.1462
  170SAPE  H11X19287   4.456  -0.260   7.906 -0.3488 -3.6132 -1.0165
  170SAPE  H11Y19288   4.579  -0.135   7.838  0.3126  0.1240 -0.9336
  170SAPE  C31219289   4.634  -0.338   7.838 -0.0581  0.0262 -0.8323
  170SAPE  H12X19290   4.724  -0.321   7.775 -0.1628  1.4054 -0.6402
  170SAPE  H12Y19291   4.591  -0.438   7.816 -0.2577 -0.0747 -0.0120
  170SAPE  C31319292   4.690  -0.321   7.981 -0.4582 -0.5528 -0.4793
  170SAPE  H13X19293   4.606  -0.333   8.054 -1.6105  1.9146 -1.3036
  170SAPE  H13Y19294   4.724  -0.218   8.004 -0.4663 -0.4080 -1.1221
  170SAPE  C31419295   4.801  -0.419   8.017  0.6407 -0.0133  0.5562
  170SAPE  H14X19296   4.884  -0.424   7.944  2.2235 -0.3268  2.3138
  170SAPE  H14Y19297   4.757  -0.519   7.998  0.6517  0.3079 -1.3463
  170SAPE  C31519298   4.860  -0.403   8.162  0.8379  1.0747  0.1445
  170SAPE  H15X19299   4.886  -0.298   8.188 -1.0818  1.0876  2.2992
  170SAPE  H15Y19300   4.956  -0.459   8.158  0.9013  0.7447  3.5266
  170SAPE  C31619301   4.773  -0.472   8.271 -0.3684 -0.1757  1.4532
  170SAPE  H16X19302   4.749  -0.578   8.244 -0.0897 -0.2678  1.5680
  170SAPE  H16Y19303   4.682  -0.408   8.269 -0.6767 -0.5895 -0.8316
  170SAPE  C31719304   4.838  -0.465   8.411  0.4579 -0.4323  1.3433
  170SAPE  H17X19305   4.757  -0.498   8.480 -0.9235 -0.4685 -0.2225
  170SAPE  H17Y19306   4.863  -0.363   8.446 -0.1250  0.3768 -0.4517
  170SAPE  C31819307   4.968  -0.552   8.418  0.9082 -0.2970 -0.1710
  170SAPE  H18X19308   4.976  -0.636   8.346 -2.0819 -0.9339  0.1002
  170SAPE  H18Y19309   4.976  -0.576   8.526  0.0829  1.8627  0.4265
  170SAPE  H18Z19310   5.055  -0.487   8.394 -0.0833  2.7492  3.4202
  171SAPE     N19311   6.463   3.563   6.185  0.4905 -0.4826 -1.3191
  171SAPE   HN119312   6.479   3.501   6.104  1.2319 -1.3094 -0.5606
  171SAPE   HN219313   6.374   3.617   6.183  1.2844  1.1977  1.8448
  171SAPE   HN319314   6.549   3.622   6.192 -1.4645  2.3348  2.0782
  171SAPE   C1219315   6.452   3.475   6.304  0.5304  0.1939 -0.5327
  171SAPE  H12A19316   6.357   3.420   6.287 -0.1137  0.8799  0.6708
  171SAPE  H12B19317   6.446   3.535   6.397 -0.2304 -0.3880 -0.1946
  171SAPE   C1119318   6.566   3.375   6.305 -0.7509  0.1333 -0.2111
  171SAPE  H11A19319   6.557   3.302   6.222  0.6887  0.3068 -0.5497
  171SAPE  H11B19320   6.558   3.297   6.383  0.4982  0.6441  0.4473
  171SAPE     P19321   6.787   3.451   6.420  0.0805  0.2071  0.3879
  171SAPE   O1319322   6.866   3.330   6.444 -0.5628  0.8024 -0.2435
  171SAPE   O1419323   6.858   3.579   6.399 -0.1194  0.0502 -0.1203
  171SAPE   O1219324   6.700   3.434   6.296 -0.6072 -0.1232  0.0762
  171SAPE   O1119325   6.689   3.471   6.535  0.2154  0.6996  0.3502
  171SAPE    C119326   6.681   3.598   6.606  0.3474  0.7954  0.6517
  171SAPE    HA19327   6.689   3.691   6.546 -1.6064  0.1604 -0.7124
  171SAPE    HB19328   6.576   3.610   6.641  0.4655  0.6811  1.0424
  171SAPE    C219329   6.773   3.616   6.730  0.2318  0.0999 -0.0338
  171SAPE    HS19330   6.872   3.650   6.695  0.1974  1.8148  1.4095
  171SAPE   O2119331   6.793   3.485   6.782  0.5746 -0.2861 -0.0537
  171SAPE   C2119332   6.904   3.453   6.849  0.1724  0.1547 -0.0738
  171SAPE   O2219333   6.999   3.527   6.854 -0.6424 -0.3509 -0.5425
  171SAPE   C2219334   6.902   3.311   6.908 -0.2267  0.2865  0.6447
  171SAPE   H2R19335   6.805   3.287   6.956 -0.7574 -3.2169 -1.7962
  171SAPE   H2S19336   6.906   3.240   6.822 -3.8739 -0.3218  0.7908
  171SAPE    C319337   6.720   3.710   6.840 -0.2207 -1.0144 -0.2303
  171SAPE    HX19338   6.729   3.810   6.792  0.3221 -0.3195  1.2482
  171SAPE    HY19339   6.785   3.703   6.930  0.5229  1.4016 -0.4998
  171SAPE   O3119340   6.577   3.684   6.875 -0.3968  0.1134 -0.0361
  171SAPE   C3119341   6.557   3.589   6.971  0.5082  0.2324  0.4370
  171SAPE   O3219342   6.646   3.543   7.033  0.2799  0.1527  0.1928
  171SAPE   C3219343   6.410   3.546   6.965 -0.2019 -0.3777 -0.2119
  171SAPE   H2X19344   6.396   3.463   6.893  1.1257 -0.0809 -0.8479
  171SAPE   H2Y19345   6.353   3.637   6.938 -1.0024 -0.3119  1.5708
  171SAPE   C2319346   7.002   3.275   7.020 -0.6445 -0.5142 -0.1958
  171SAPE   H3R19347   7.102   3.308   6.987 -0.6380 -1.6055 -1.3510
  171SAPE   H3S19348   7.018   3.166   7.034  0.0739 -0.3098  0.6663
  171SAPE   C2419349   6.966   3.336   7.158  0.1006 -0.2492 -0.0778
  171SAPE   H4R19350   7.038   3.306   7.237 -1.8421 -0.9374  1.5216
  171SAPE   H4S19351   6.870   3.291   7.193  0.7868 -0.3914  1.7400
  171SAPE   C2519352   6.967   3.490   7.171  0.3122  0.5296  0.3063
  171SAPE   H5R19353   7.008   3.540   7.082  1.2000 -0.4488  0.1341
  171SAPE   C2619354   6.927   3.563   7.270  0.5614  0.1953 -0.2600
  171SAPE   H6R19355   6.921   3.672   7.258  2.1706  0.2407 -0.8609
  171SAPE   C2719356   6.870   3.500   7.400  0.5761  0.1450 -0.5564
  171SAPE   H7R19357   6.932   3.514   7.492 -0.3938 -1.8100  0.4765
  171SAPE   H7S19358   6.877   3.389   7.402 -1.2878  0.0044  0.3455
  171SAPE   C2819359   6.724   3.550   7.440 -0.6655  0.0075 -0.1936
  171SAPE   H8R19360   6.650   3.551   7.359 -0.4185  2.1510 -0.4567
  171SAPE   C2919361   6.682   3.585   7.563  0.4594  0.1496  0.2861
  171SAPE   H9R19362   6.573   3.602   7.559  0.2905 -1.0356 -1.8307
  171SAPE  C21019363   6.758   3.567   7.692  0.3285 -0.0962 -0.2645
  171SAPE  H10R19364   6.867   3.591   7.698  0.0676  0.8642  1.0259
  171SAPE  H10S19365   6.748   3.457   7.705 -2.0862 -0.0475 -1.3842
  171SAPE  C21119366   6.686   3.648   7.800 -0.6909 -0.0236  0.3922
  171SAPE  H11R19367   6.623   3.731   7.764  0.4249  1.5908  1.9824
  171SAPE  C21219368   6.715   3.635   7.926  0.1299 -0.3515  0.3618
  171SAPE  H12R19369   6.659   3.698   7.995 -1.1088  0.3285 -1.2016
  171SAPE  C21319370   6.798   3.527   7.991 -0.0070 -0.0593 -0.0012
  171SAPE  H13R19371   6.869   3.480   7.919 -0.6791  1.1349 -1.4915
  171SAPE  H13S19372   6.728   3.445   8.018  1.8652 -1.3557  1.2038
  171SAPE  C21419373   6.868   3.565   8.113 -0.4367 -0.7322 -0.1678
  171SAPE  H14R19374   6.892   3.673   8.113 -0.5522 -0.5740 -3.9207
  171SAPE  C21519375   6.894   3.483   8.213  0.5499  0.0020 -0.0523
  171SAPE  H15R19376   6.952   3.518   8.300 -0.0820  0.9505 -0.0003
  171SAPE  C21619377   6.873   3.338   8.220  0.5736 -0.1620  0.1749
  171SAPE  H16R19378   6.976   3.299   8.238  0.9180  1.1229  1.1511
  171SAPE  H16S19379   6.842   3.308   8.118  1.6872  0.0306 -0.2306
  171SAPE  C21719380   6.759   3.302   8.322  0.0021 -0.2790  0.3079
  171SAPE  H17R19381   6.736   3.193   8.315 -0.4687 -0.1356 -0.5084
  171SAPE  H17S19382   6.664   3.357   8.309 -0.6312 -0.4714  3.3173
  171SAPE  C21819383   6.794   3.348   8.467  0.0455  0.0710 -0.5262
  171SAPE  H18R19384   6.719   3.304   8.536  0.1571 -1.0651 -1.1106
  171SAPE  H18S19385   6.797   3.459   8.473 -0.7503  0.1158 -0.8814
  171SAPE  C21919386   6.933   3.304   8.518  0.2295 -0.6250  0.2121
  171SAPE  H19R19387   7.016   3.309   8.444 -0.8050 -0.5578 -0.9616
  171SAPE  H19S19388   6.926   3.196   8.545  0.2440 -0.1842  2.1167
  171SAPE  C22019389   6.971   3.377   8.647  0.4704  0.9840 -0.7581
  171SAPE  H20R19390   7.071   3.337   8.677 -0.9982 -0.9510  2.0599
  171SAPE  H20S19391   6.907   3.344   8.731  1.1639  0.4562 -0.4200
  171SAPE  H20T19392   6.959   3.487   8.649 -0.9401  0.8654  2.2200
  171SAPE   C3319393   6.365   3.495   7.102 -0.3283  0.1692  0.5962
  171SAPE   H3X19394   6.417   3.401   7.133  0.9987  0.0587 -1.6782
  171SAPE   H3Y19395   6.256   3.477   7.106 -0.2221 -1.4625 -1.7768
  171SAPE   C3419396   6.393   3.600   7.215  0.6821  0.6524 -0.1399
  171SAPE   H4X19397   6.334   3.685   7.175 -2.1666 -1.7021 -1.3748
  171SAPE   H4Y19398   6.498   3.629   7.233  0.4926  0.6222  1.0891
  171SAPE   C3519399   6.336   3.559   7.350  0.4787 -0.0212  0.2660
  171SAPE   H5X19400   6.401   3.494   7.413  0.1057  0.8511  1.6046
  171SAPE   H5Y19401   6.248   3.492   7.338  0.6075 -0.3568  1.1320
  171SAPE   C3619402   6.299   3.681   7.437 -0.2715 -0.5957  0.0386
  171SAPE   H6X19403   6.221   3.739   7.384  0.5616  0.5332  0.0169
  171SAPE   H6Y19404   6.383   3.750   7.459 -1.9871  1.7151 -0.2708
  171SAPE   C3719405   6.255   3.634   7.570  0.4869  0.4501 -0.4330
  171SAPE   H7X19406   6.323   3.558   7.613 -0.0705  0.3338  0.2582
  171SAPE   H7Y19407   6.159   3.579   7.558  0.3382  0.5033  0.4379
  171SAPE   C3819408   6.244   3.756   7.663  0.3244 -0.0182 -0.7248
  171SAPE   H8X19409   6.171   3.830   7.621 -0.1754  0.0234  0.1825
  171SAPE   H8Y19410   6.344   3.804   7.666  0.3678 -0.1321 -0.1552
  171SAPE   C3919411   6.201   3.715   7.805 -0.3477 -0.0789  0.4294
  171SAPE   H9X19412   6.123   3.637   7.798 -1.1253  0.6122  1.1585
  171SAPE   H9Y19413   6.153   3.796   7.864 -0.2299  1.3525 -1.3611
  171SAPE  C31019414   6.317   3.666   7.883 -0.3093  0.0165 -0.2585
  171SAPE  H10X19415   6.399   3.738   7.862 -0.8370  0.6880 -0.0265
  171SAPE  H10Y19416   6.352   3.565   7.851  0.7088  0.5566 -0.9227
  171SAPE  C31119417   6.282   3.640   8.032  0.0382 -0.2243  0.6064
  171SAPE  H11X19418   6.196   3.570   8.041 -0.3048  0.3504  2.0776
  171SAPE  H11Y19419   6.240   3.738   8.062  1.6740  0.9807 -0.7974
  171SAPE  C31219420   6.395   3.601   8.126 -0.3439 -0.5204 -0.4634
  171SAPE  H12X19421   6.477   3.675   8.113 -0.0027 -0.8983 -0.4858
  171SAPE  H12Y19422   6.438   3.500   8.109 -0.5535 -0.7636  0.4268
  171SAPE  C31319423   6.350   3.623   8.276  0.3333 -0.1689 -0.3104
  171SAPE  H13X19424   6.270   3.551   8.303 -0.0768  0.8337  1.3379
  171SAPE  H13Y19425   6.300   3.722   8.266  1.1668  0.0995 -2.3640
  171SAPE  C31419426   6.459   3.628   8.388  0.8537 -0.2363 -0.2463
  171SAPE  H14X19427   6.530   3.707   8.357 -0.5382  1.2204  0.1879
  171SAPE  H14Y19428   6.513   3.531   8.397  1.7940  0.2947  0.0242
  171SAPE  C31519429   6.393   3.657   8.521 -0.3191  0.0672  0.8357
  171SAPE  H15X19430   6.287   3.626   8.507 -1.1965  3.0989 -0.0028
  171SAPE  H15Y19431   6.390   3.768   8.534 -0.6595 -0.1978  3.9539
  171SAPE  C31619432   6.463   3.604   8.644 -0.4250  0.9412 -0.7557
  171SAPE  H16X19433   6.534   3.522   8.621 -0.5613  0.4732  0.4150
  171SAPE  H16Y19434   6.381   3.566   8.709 -0.9891  1.0343 -1.3997
  171SAPE  C31719435   6.549   3.710   8.718 -0.5899 -0.0969 -0.2908
  171SAPE  H17X19436   6.576   3.672   8.819 -2.0458  0.9685  0.5461
  171SAPE  H17Y19437   6.494   3.806   8.722  0.7198  0.9257 -3.6490
  171SAPE  C31819438   6.681   3.739   8.644  0.2316  0.0773  0.1522
  171SAPE  H18X19439   6.728   3.837   8.669  2.8680 -0.1098 -3.2439
  171SAPE  H18Y19440   6.664   3.749   8.535 -0.5489  2.1819  0.4303
  171SAPE  H18Z19441   6.752   3.654   8.655 -1.0271 -0.9202  0.8474
  172SAPE     N19442   4.708   6.421   6.278  0.0057  0.3881  0.0685
  172SAPE   HN119443   4.667   6.325   6.286  1.3521 -0.1041  1.7676
  172SAPE   HN219444   4.679   6.468   6.190  0.0801  0.6658  0.1915
  172SAPE   HN319445   4.811   6.411   6.269 -0.2431 -0.9158 -2.1541
  172SAPE   C1219446   4.672   6.486   6.406  0.0587  0.0590 -0.2192
  172SAPE  H12A19447   4.670   6.406   6.484 -3.2269 -0.8602 -1.1005
  172SAPE  H12B19448   4.568   6.523   6.395  0.5673  0.9493 -2.3474
  172SAPE   C1119449   4.770   6.597   6.449  0.1312  0.0377  0.4698
  172SAPE  H11A19450   4.843   6.532   6.502 -1.6550 -3.9523 -1.4504
  172SAPE  H11B19451   4.719   6.654   6.529  1.3109  0.7775  0.7115
  172SAPE     P19452   4.761   6.804   6.295 -0.3234 -0.1915  0.1140
  172SAPE   O1319453   4.812   6.813   6.155  0.5603 -0.1593  0.0507
  172SAPE   O1419454   4.614   6.796   6.315 -0.7720  0.3434 -0.0192
  172SAPE   O1219455   4.827   6.671   6.342  0.0581 -0.2907 -0.3577
  172SAPE   O1119456   4.828   6.923   6.380  0.3630 -0.5855 -0.0431
  172SAPE    C119457   4.969   6.921   6.406 -0.5115 -0.2303 -0.2639
  172SAPE    HA19458   5.023   6.836   6.358  0.4755  0.1458  0.1475
  172SAPE    HB19459   5.003   7.015   6.356 -1.5546  0.0057 -0.5593
  172SAPE    C219460   5.009   6.925   6.558  0.2123 -0.3792 -0.0507
  172SAPE    HS19461   5.107   6.873   6.560  1.5102  1.9458  0.1976
  172SAPE   O2119462   4.905   6.865   6.640 -0.5532  0.2730  0.1968
  172SAPE   C2119463   4.950   6.795   6.742  0.0758  0.8596  0.4600
  172SAPE   O2219464   5.070   6.781   6.774 -0.4459  0.1767  0.1881
  172SAPE   C2219465   4.840   6.726   6.819  0.2952  0.0052  0.0990
  172SAPE   H2R19466   4.774   6.666   6.752 -0.3758 -0.6722  1.3303
  172SAPE   H2S19467   4.878   6.657   6.897  0.5056  1.2848  1.1392
  172SAPE    C319468   5.034   7.068   6.609 -0.0719 -0.6732 -0.0956
  172SAPE    HX19469   4.939   7.122   6.593  1.4363  2.7631  1.4696
  172SAPE    HY19470   5.097   7.124   6.536  1.0481 -0.9863  0.6061
  172SAPE   O3119471   5.061   7.085   6.751 -1.0957  0.3655  0.5323
  172SAPE   C3119472   5.190   7.054   6.787  0.0127  0.0066  0.2279
  172SAPE   O3219473   5.279   7.030   6.709  0.4849 -0.4327  0.3303
  172SAPE   C3219474   5.192   7.037   6.941  0.0626  0.1159  0.2229
  172SAPE   H2X19475   5.249   6.945   6.965  1.2746  0.7282 -0.2099
  172SAPE   H2Y19476   5.088   7.034   6.981 -0.0453  0.2860 -0.0416
  172SAPE   C2319477   4.757   6.823   6.909 -0.2158 -0.1997 -0.0677
  172SAPE   H3R19478   4.684   6.765   6.969 -1.2369  0.3886 -0.7011
  172SAPE   H3S19479   4.694   6.883   6.840 -0.1400 -0.5727 -0.4663
  172SAPE   C2419480   4.825   6.918   7.009 -0.2915  0.3219 -0.2154
  172SAPE   H4R19481   4.745   6.965   7.069  0.5666 -0.3250  1.5147
  172SAPE   H4S19482   4.875   6.994   6.946 -1.0444  0.3034 -0.8455
  172SAPE   C2519483   4.920   6.847   7.104 -0.2782  0.0032  0.4898
  172SAPE   H5R19484   5.019   6.831   7.059 -1.0125 -0.1304 -1.1579
  172SAPE   C2619485   4.898   6.800   7.232 -0.0617  0.1329 -0.4709
  172SAPE   H6R19486   4.985   6.768   7.291 -0.7910  1.7488  1.6342
  172SAPE   C2719487   4.760   6.804   7.299 -0.2385  0.4146 -0.3909
  172SAPE   H7R19488   4.768   6.717   7.369  1.5640  1.2177  0.4615
  172SAPE   H7S19489   4.681   6.797   7.221 -1.3596  2.7510  0.4386
  172SAPE   C2819490   4.744   6.936   7.370  0.6995  0.4579  0.0612
  172SAPE   H8R19491   4.763   7.022   7.305 -2.4682  2.0785  1.0735
  172SAPE   C2919492   4.700   6.964   7.495  0.9647  0.5691  0.6017
  172SAPE   H9R19493   4.702   7.066   7.536 -0.9499  0.3022  1.4525
  172SAPE  C21019494   4.651   6.859   7.594  0.3555  0.4281  0.4644
  172SAPE  H10R19495   4.629   6.768   7.534  1.9590  0.1498  0.2506
  172SAPE  H10S19496   4.556   6.896   7.637 -0.4508 -0.7032 -0.2740
  172SAPE  C21119497   4.754   6.849   7.706  0.5405  0.0079 -0.8161
  172SAPE  H11R19498   4.840   6.783   7.686  1.2062  1.2213 -2.2420
  172SAPE  C21219499   4.729   6.901   7.832 -0.3988  0.0596  0.0901
  172SAPE  H12R19500   4.802   6.883   7.912  1.0282  0.0003 -1.2020
  172SAPE  C21319501   4.607   6.985   7.876 -0.2075 -0.3812  0.7025
  172SAPE  H13R19502   4.533   6.920   7.926 -1.9646  0.6923 -0.4154
  172SAPE  H13S19503   4.560   7.026   7.784  1.5022  0.7710  0.2939
  172SAPE  C21419504   4.662   7.100   7.963  0.4445 -0.0591  0.3648
  172SAPE  H14R19505   4.740   7.163   7.919  0.6588 -0.6347 -0.0867
  172SAPE  C21519506   4.637   7.119   8.093  0.4888 -0.6043  0.3748
  172SAPE  H15R19507   4.680   7.206   8.145 -0.0465  0.3103 -0.6785
  172SAPE  C21619508   4.555   7.018   8.173  0.1001 -0.3626 -0.2323
  172SAPE  H16R19509   4.471   6.976   8.115 -1.3215  0.9036  0.8288
  172SAPE  H16S19510   4.507   7.076   8.256  1.4942  1.3821 -0.5681
  172SAPE  C21719511   4.644   6.907   8.232  0.0743 -0.5204  0.4705
  172SAPE  H17R19512   4.724   6.955   8.292 -2.0926  2.0218  1.5256
  172SAPE  H17S19513   4.697   6.845   8.157  0.6829  0.5044  0.0279
  172SAPE  C21819514   4.564   6.814   8.317 -1.0907  0.0993  0.1094
  172SAPE  H18R19515   4.481   6.771   8.257  0.3422 -2.0764 -0.4284
  172SAPE  H18S19516   4.516   6.852   8.410 -1.4637  0.6532 -0.2979
  172SAPE  C21919517   4.650   6.692   8.359 -0.2785 -0.0807  0.5338
  172SAPE  H19R19518   4.745   6.720   8.411  0.6552 -1.6592 -0.2422
  172SAPE  H19S19519   4.665   6.641   8.262 -0.0141 -1.1148  1.1046
  172SAPE  C22019520   4.578   6.601   8.453 -0.2108  0.1629 -0.2730
  172SAPE  H20R19521   4.540   6.656   8.542  0.1442  0.9548 -0.5972
  172SAPE  H20S19522   4.637   6.514   8.488 -0.0766  0.6430  0.7467
  172SAPE  H20T19523   4.477   6.573   8.416 -0.9834  1.1684  0.9778
  172SAPE   C3319524   5.269   7.153   7.012 -0.9093 -0.0274  0.1830
  172SAPE   H3X19525   5.210   7.247   7.020  0.2637  0.5995  2.1939
  172SAPE   H3Y19526   5.354   7.173   6.944 -0.9615  0.0575  0.1416
  172SAPE   C3419527   5.315   7.106   7.155 -0.1478  0.2386 -0.4407
  172SAPE   H4X19528   5.386   7.181   7.197  0.8127 -0.3114 -1.0497
  172SAPE   H4Y19529   5.378   7.016   7.139  0.9076  1.0367 -0.9151
  172SAPE   C3519530   5.195   7.081   7.252 -0.4953  0.1764  0.2163
  172SAPE   H5X19531   5.121   7.012   7.206 -1.8620 -1.8098  4.8004
  172SAPE   H5Y19532   5.150   7.182   7.266 -3.5378 -1.0618  0.2594
  172SAPE   C3619533   5.240   7.016   7.387 -0.0923  0.4076 -0.4019
  172SAPE   H6X19534   5.306   7.087   7.443  0.2405  0.5534 -0.9710
  172SAPE   H6Y19535   5.296   6.921   7.372 -0.8719 -0.1310  0.0172
  172SAPE   C3719536   5.128   6.974   7.481 -0.1486 -0.2519  0.7595
  172SAPE   H7X19537   5.040   6.940   7.423 -0.3912  0.3160  0.7837
  172SAPE   H7Y19538   5.088   7.062   7.536 -0.8253  0.3650 -0.6654
  172SAPE   C3819539   5.171   6.871   7.586  0.1727 -0.4682  0.1568
  172SAPE   H8X19540   5.212   6.782   7.532  1.7503 -1.4051  2.7090
  172SAPE   H8Y19541   5.085   6.832   7.644  0.0947 -1.5608 -0.6491
  172SAPE   C3919542   5.280   6.922   7.678 -0.7308 -0.0259  0.3821
  172SAPE   H9X19543   5.382   6.924   7.634 -1.7235 -0.6095 -2.1385
  172SAPE   H9Y19544   5.295   6.841   7.753 -2.4163  0.4185  1.2532
  172SAPE  C31019545   5.263   7.058   7.745  0.2935  0.2821 -0.6608
  172SAPE  H10X19546   5.160   7.064   7.786  0.2541  0.4140 -0.7786
  172SAPE  H10Y19547   5.277   7.140   7.672  2.4716  0.3935 -0.1964
  172SAPE  C31119548   5.381   7.088   7.837  0.4238  0.0267  0.2913
  172SAPE  H11X19549   5.473   7.094   7.775  0.7085 -0.1224  0.6950
  172SAPE  H11Y19550   5.392   7.006   7.911  1.3180 -0.3317 -0.2304
  172SAPE  C31219551   5.366   7.221   7.916 -0.1214  0.1326  0.2464
  172SAPE  H12X19552   5.275   7.206   7.978 -2.1828 -1.6303 -2.9842
  172SAPE  H12Y19553   5.333   7.298   7.842  0.5864  1.2706  1.0682
  172SAPE  C31319554   5.494   7.262   7.995  0.2350  0.0516  0.0878
  172SAPE  H13X19555   5.480   7.360   8.046  0.6540 -0.3300  0.9669
  172SAPE  H13Y19556   5.578   7.280   7.924  0.5189  1.2281  0.6967
  172SAPE  C31419557   5.542   7.159   8.105  0.0593  0.0755  0.3214
  172SAPE  H14X19558   5.581   7.061   8.070  0.1873 -1.2756  3.8819
  172SAPE  H14Y19559   5.450   7.138   8.163 -0.3260 -0.3392 -0.4223
  172SAPE  C31519560   5.653   7.211   8.196 -0.3613 -0.6602  0.3863
  172SAPE  H15X19561   5.640   7.317   8.225 -0.7377 -0.3284 -0.9266
  172SAPE  H15Y19562   5.749   7.192   8.142  0.8459 -1.0004  2.5103
  172SAPE  C31619563   5.662   7.131   8.333 -0.2006  0.2156  0.0267
  172SAPE  H16X19564   5.634   7.024   8.317 -1.0748  0.5579 -0.8366
  172SAPE  H16Y19565   5.584   7.162   8.406 -0.2927  0.1950 -0.0617
  172SAPE  C31719566   5.792   7.152   8.402  0.1711  0.5484 -0.3709
  172SAPE  H17X19567   5.786   7.114   8.507 -0.7412 -1.9456 -1.2495
  172SAPE  H17Y19568   5.809   7.261   8.411 -0.4090  0.5739  0.5521
  172SAPE  C31819569   5.912   7.093   8.340 -0.4750  0.4458  0.8196
  172SAPE  H18X19570   6.001   7.118   8.401  0.9203  3.4316 -2.1025
  172SAPE  H18Y19571   5.926   7.143   8.241  0.2605  2.1726  1.7575
  172SAPE  H18Z19572   5.897   6.984   8.328 -1.1468  0.5146  0.9899
  173SOPE     N19573   1.692   3.701  11.064 -0.2693 -0.5286  0.9580
  173SOPE   HN119574   1.634   3.700  10.978  0.2883  1.1884  0.5138
  173SOPE   HN219575   1.685   3.789  11.119  0.0515 -0.2275  0.5302
  173SOPE   HN319576   1.792   3.681  11.040 -0.1667 -0.1885  1.0981
  173SOPE   C1219577   1.638   3.600  11.152  0.9084  0.2757 -0.2132
  173SOPE  H12A19578   1.542   3.646  11.184 -0.6663 -1.2969 -2.4047
  173SOPE  H12B19579   1.716   3.592  11.231  2.0846  0.5150 -1.3248
  173SOPE   C1119580   1.612   3.465  11.078 -0.4825  0.6087 -0.1793
  173SOPE  H11A19581   1.551   3.482  10.986  0.1613  0.5574 -0.6195
  173SOPE  H11B19582   1.557   3.390  11.139  0.6186 -1.0569 -1.1393
  173SOPE     P19583   1.739   3.247  11.012 -0.1248 -0.1745 -0.0650
  173SOPE   O1319584   1.601   3.205  11.037 -0.7070 -0.4850 -0.4915
  173SOPE   O1419585   1.839   3.175  11.088  0.4614  0.3019 -0.0449
  173SOPE   O1219586   1.745   3.408  11.049 -0.0070 -0.1342  0.1216
  173SOPE   O1119587   1.757   3.245  10.852 -0.5993 -0.3117 -0.1982
  173SOPE    C119588   1.854   3.332  10.789 -0.0138  0.8378 -0.4419
  173SOPE    HA19589   1.902   3.272  10.708 -1.6802  1.2563 -1.7933
  173SOPE    HB19590   1.937   3.362  10.856 -1.8272  2.4384  1.1905
  173SOPE    C219591   1.800   3.461  10.728  0.1136  0.0572  0.3088
  173SOPE    HS19592   1.733   3.497  10.809 -1.0074 -0.3933 -0.3920
  173SOPE   O2119593   1.715   3.426  10.615  0.4384 -0.6872  0.2655
  173SOPE   C2119594   1.627   3.514  10.572  0.5669  0.3109 -0.3349
  173SOPE   O2219595   1.594   3.613  10.636 -0.1414  0.4310 -0.0853
  173SOPE   C2219596   1.585   3.474  10.429 -0.5303 -0.3434  0.0648
  173SOPE   H2R19597   1.632   3.377  10.400 -2.7963 -0.8915 -2.1286
  173SOPE   H2S19598   1.628   3.546  10.357  1.5718 -0.8820  0.7135
  173SOPE    C319599   1.900   3.575  10.700 -0.3723  0.8223  0.1153
  173SOPE    HX19600   1.969   3.579  10.787 -0.5242 -0.6480  0.3227
  173SOPE    HY19601   1.857   3.677  10.689  1.5850  1.4909 -1.9124
  173SOPE   O3119602   1.980   3.535  10.590 -0.1486  0.2462 -0.4612
  173SOPE   C3119603   1.959   3.590  10.470  0.3452  0.6709 -0.2567
  173SOPE   O3219604   1.890   3.692  10.449 -0.8079  0.0338 -0.0065
  173SOPE   C3219605   2.010   3.494  10.357 -0.5992  0.3740 -0.1629
  173SOPE   H2X19606   1.959   3.396  10.350 -2.7600  1.3335  1.0698
  173SOPE   H2Y19607   2.116   3.474  10.384 -1.1854 -2.1460  0.5099
  173SOPE   C2319608   1.437   3.438  10.413 -0.0772 -0.3302  0.5580
  173SOPE   H3R19609   1.382   3.533  10.428 -1.8785 -1.1423 -0.5909
  173SOPE   H3S19610   1.395   3.374  10.494 -2.4153 -0.9837 -1.0686
  173SOPE   C2419611   1.406   3.365  10.271  0.1344 -0.6969  0.3394
  173SOPE   H4R19612   1.469   3.421  10.199  1.4517 -1.6831  0.6730
  173SOPE   H4S19613   1.446   3.262  10.281 -0.5727 -0.8931  1.3100
  173SOPE   C2519614   1.259   3.365  10.232  0.8902 -0.1341  0.3143
  173SOPE   H5R19615   1.214   3.279  10.287  1.0042 -0.5720 -0.2734
  173SOPE   H5S19616   1.204   3.459  10.254  0.3675 -0.5846  0.9965
  173SOPE   C2619617   1.226   3.327  10.085  0.4033  0.2972 -0.7721
  173SOPE   H6R19618   1.248   3.219  10.066  0.8967  0.4658 -1.1610
  173SOPE   H6S19619   1.116   3.340  10.076 -0.0237 -1.9154  0.4410
  173SOPE   C2719620   1.300   3.422   9.988 -0.0135 -0.1806  0.4751
  173SOPE   H7R19621   1.288   3.523  10.032 -1.6646  0.6822 -1.7547
  173SOPE   H7S19622   1.409   3.404   9.978  0.0776  1.3862 -2.5331
  173SOPE   C2819623   1.238   3.422   9.847  0.0354 -0.7756  0.3286
  173SOPE   H8R19624   1.239   3.314   9.818  0.0936 -0.3666 -1.2816
  173SOPE   H8S19625   1.134   3.452   9.870  0.3964  0.4393  0.4552
  173SOPE   C2919626   1.303   3.505   9.735  0.2790  0.1495 -0.1976
  173SOPE   H9119627   1.252   3.597   9.701  0.0948 -0.0747 -0.5291
  173SOPE  C21019628   1.412   3.469   9.669 -0.3164 -0.4453 -0.2459
  173SOPE  H10119629   1.461   3.535   9.595 -1.5433 -0.5277 -1.1525
  173SOPE  C21119630   1.494   3.342   9.701  0.1188  0.1619  0.2187
  173SOPE  H11R19631   1.439   3.283   9.778 -1.0205  0.3991 -0.3789
  173SOPE  H11S19632   1.590   3.364   9.751  0.3053  0.0944 -0.1089
  173SOPE  C21219633   1.499   3.242   9.579 -0.2353  0.3467 -0.0206
  173SOPE  H12R19634   1.397   3.219   9.543 -0.3887  2.7057 -1.2459
  173SOPE  H12S19635   1.527   3.141   9.618 -0.7430  0.9797  2.0922
  173SOPE  C21319636   1.586   3.284   9.464  0.0481 -0.0298  0.4201
  173SOPE  H13R19637   1.689   3.316   9.491  1.1319 -2.7459 -0.1451
  173SOPE  H13S19638   1.540   3.377   9.423  0.4449 -0.1831 -0.3854
  173SOPE  C21419639   1.592   3.183   9.344  0.7755 -0.8802 -0.6868
  173SOPE  H14R19640   1.501   3.121   9.348 -0.6480  1.0523 -1.4758
  173SOPE  H14S19641   1.676   3.111   9.355  1.7225 -0.3565 -3.5796
  173SOPE  C21519642   1.614   3.241   9.206  0.3680  0.0863  0.3408
  173SOPE  H15R19643   1.692   3.320   9.211 -1.8307  2.3953  0.3010
  173SOPE  H15S19644   1.523   3.288   9.161  0.4383 -1.0203 -1.0378
  173SOPE  C21619645   1.647   3.112   9.111 -0.4600 -0.2269  0.2988
  173SOPE  H16R19646   1.557   3.046   9.116 -1.9035  1.6917  1.2013
  173SOPE  H16S19647   1.739   3.063   9.146  0.0413  0.3080 -0.2359
  173SOPE  C21719648   1.670   3.147   8.961  0.6233 -0.0764 -0.4045
  173SOPE  H17R19649   1.568   3.147   8.916  0.5550  3.3751 -0.5650
  173SOPE  H17S19650   1.738   3.075   8.911  1.2439  1.6790 -2.2212
  173SOPE  C21819651   1.735   3.284   8.929  0.4361 -0.2681 -1.0361
  173SOPE  H18R19652   1.781   3.288   8.828  0.1957  2.2876 -1.1298
  173SOPE  H18S19653   1.819   3.312   8.997  0.7246 -1.1012 -1.0403
  173SOPE  H18T19654   1.663   3.366   8.950  1.1381  0.2141 -0.4086
  173SOPE   C3319655   2.002   3.571  10.221  0.2279  0.3639 -0.5373
  173SOPE   H3X19656   2.052   3.670  10.222 -0.5690  0.7741 -0.1519
  173SOPE   H3Y19657   1.898   3.587  10.186 -0.4583  0.9333  1.5977
  173SOPE   C3419658   2.065   3.486  10.104 -0.0552 -0.4255 -0.4574
  173SOPE   H4X19659   2.042   3.377  10.102  0.7524 -0.6319  0.8021
  173SOPE   H4Y19660   2.175   3.486  10.115  0.0860  0.7496 -1.6155
  173SOPE   C3519661   2.027   3.540   9.968  0.0974 -0.0213  0.7543
  173SOPE   H5X19662   2.088   3.631   9.950  0.2833 -0.1496  0.7259
  173SOPE   H5Y19663   1.922   3.574   9.960  0.4906  0.7234 -2.6768
  173SOPE   C3619664   2.061   3.443   9.850 -0.1666 -0.7709 -0.6602
  173SOPE   H6X19665   2.120   3.360   9.896 -3.0415 -2.2655  0.5980
  173SOPE   H6Y19666   2.124   3.494   9.774  1.4302  0.5550  1.4494
  173SOPE   C3719667   1.928   3.383   9.786 -0.0748  0.0233 -0.1533
  173SOPE   H7X19668   1.859   3.460   9.747 -0.6541 -0.4614 -0.0988
  173SOPE   H7Y19669   1.870   3.335   9.868  1.3634 -0.2974  0.7186
  173SOPE   C3819670   1.956   3.288   9.671 -0.4315 -0.9171 -0.7390
  173SOPE   H8X19671   1.865   3.224   9.661 -1.2549  0.2824 -1.2073
  173SOPE   H8Y19672   2.041   3.226   9.705  0.4441  1.1829  1.2341
  173SOPE   C3919673   1.998   3.368   9.549 -0.1725 -0.2945 -0.1584
  173SOPE   H9X19674   2.081   3.437   9.578 -1.2767  2.0848 -2.2570
  173SOPE   H9Y19675   1.907   3.430   9.534 -1.3770 -1.6076  1.3978
  173SOPE  C31019676   2.028   3.287   9.418  0.0781 -0.0338 -1.0855
  173SOPE  H10X19677   1.943   3.216   9.412  0.9732 -1.3317  0.5017
  173SOPE  H10Y19678   2.116   3.221   9.433  1.3846  1.8007 -0.2568
  173SOPE  C31119679   2.037   3.379   9.297 -0.1899  1.1260  0.1313
  173SOPE  H11X19680   2.086   3.474   9.329 -2.4729  2.1425  0.8609
  173SOPE  H11Y19681   1.932   3.412   9.280 -0.7217  0.2403  1.4988
  173SOPE  C31219682   2.101   3.326   9.171  0.4138  0.4836 -0.2992
  173SOPE  H12X19683   2.206   3.314   9.204 -0.1333  0.6249  1.6383
  173SOPE  H12Y19684   2.091   3.395   9.085  0.6782  0.4684 -0.3431
  173SOPE  C31319685   2.053   3.178   9.138 -0.4750 -0.2259  0.7142
  173SOPE  H13X19686   1.943   3.166   9.140 -0.7605  2.0441  0.7474
  173SOPE  H13Y19687   2.095   3.102   9.207  0.5136 -0.0208  0.3561
  173SOPE  C31419688   2.118   3.128   9.007  0.2586  0.4546 -0.8565
  173SOPE  H14X19689   2.109   3.017   9.009  0.2975  0.4559  0.3898
  173SOPE  H14Y19690   2.225   3.156   9.007  0.0443  1.3135 -0.0913
  173SOPE  C31519691   2.051   3.180   8.883  0.0300  0.8774 -0.6798
  173SOPE  H15X19692   2.058   3.290   8.869  2.4396  0.9821  0.7177
  173SOPE  H15Y19693   1.947   3.142   8.881 -0.5812  2.4244 -0.1458
  173SOPE  C31619694   2.115   3.136   8.751 -0.8868  0.2131  0.2072
  173SOPE  H16X19695   2.104   3.029   8.726 -1.2664  0.4757 -0.7606
  173SOPE  H16Y19696   2.221   3.161   8.774 -0.3936 -2.0029  0.5369
  173SOPE  C31719697   2.067   3.212   8.625 -0.0467 -0.1371  0.3409
  173SOPE  H17X19698   2.067   3.321   8.648  0.1376 -0.3201  1.2117
  173SOPE  H17Y19699   1.962   3.180   8.605  0.5260 -1.5183 -0.6727
  173SOPE  C31819700   2.153   3.177   8.508  0.6620 -0.3749 -0.2847
  173SOPE  H18X19701   2.109   3.212   8.412  1.0927  2.1006  0.3454
  173SOPE  H18Y19702   2.162   3.067   8.506  0.3032 -0.4273  0.7392
  173SOPE  H18Z19703   2.248   3.235   8.518 -0.4113  1.0860  2.4523
  174SOPE     N19704   5.464   3.934  10.698 -0.0359 -0.0013 -0.0105
  174SOPE   HN119705   5.403   3.855  10.725  0.5686 -0.7302 -0.7309
  174SOPE   HN219706   5.404   4.019  10.689  0.0620 -0.0255 -1.0448
  174SOPE   HN319707   5.511   3.902  10.611  0.1828  1.1250 -0.3273
  174SOPE   C1219708   5.556   3.972  10.807 -0.0691 -0.2998 -0.0849
  174SOPE  H12A19709   5.626   4.053  10.775  0.8817 -1.0348  0.0849
  174SOPE  H12B19710   5.622   3.884  10.820  1.6552  0.7459 -1.3377
  174SOPE   C1119711   5.480   3.982  10.938 -0.1859 -0.9199 -0.1224
  174SOPE  H11A19712   5.548   4.015  11.020 -2.8242  1.4271  1.2923
  174SOPE  H11B19713   5.449   3.879  10.964  0.2226 -0.8658  0.6222
  174SOPE     P19714   5.342   4.204  10.910  0.2370 -0.1552  0.0323
  174SOPE   O1319715   5.434   4.279  11.005 -0.7266 -0.0280  0.3308
  174SOPE   O1419716   5.201   4.249  10.918  0.3006  0.1047 -0.1396
  174SOPE   O1219717   5.359   4.057  10.943  0.0180  0.9771  0.3736
  174SOPE   O1119718   5.405   4.214  10.766  0.5450  0.1974 -0.5437
  174SOPE    C119719   5.467   4.336  10.719 -0.8048  0.1924  0.3900
  174SOPE    HA19720   5.578   4.333  10.725 -0.7665  2.0724  1.0897
  174SOPE    HB19721   5.442   4.426  10.779  2.7918  1.1392  0.7138
  174SOPE    C219722   5.424   4.377  10.571  0.1223 -0.2268 -0.5411
  174SOPE    HS19723   5.466   4.479  10.557 -0.2270 -0.1445 -1.0339
  174SOPE   O2119724   5.284   4.383  10.565  0.3694 -0.3548  0.3356
  174SOPE   C2119725   5.203   4.470  10.630 -0.5814  0.4125 -0.0621
  174SOPE   O2219726   5.243   4.564  10.693 -0.3431  0.4179 -0.2216
  174SOPE   C2219727   5.058   4.430  10.612 -0.1474 -0.8028  0.0443
  174SOPE   H2R19728   5.018   4.408  10.714 -1.7015 -0.0330 -0.3567
  174SOPE   H2S19729   5.048   4.335  10.554 -0.7071 -0.1708 -0.9331
  174SOPE    C319730   5.468   4.280  10.468 -0.4719  0.1104  0.2084
  174SOPE    HX19731   5.441   4.173  10.472 -0.3837  0.1097  3.4450
  174SOPE    HY19732   5.577   4.263  10.479 -0.5442 -2.7679 -2.1832
  174SOPE   O3119733   5.435   4.334  10.341  0.2700  0.0423  0.2013
  174SOPE   C3119734   5.321   4.287  10.300  0.7546  0.9341  0.0122
  174SOPE   O3219735   5.254   4.195  10.352  0.5640 -0.1255  0.1376
  174SOPE   C3219736   5.275   4.349  10.176 -0.0374 -0.7410  0.2375
  174SOPE   H2X19737   5.355   4.397  10.115 -1.4387  0.6499 -0.6058
  174SOPE   H2Y19738   5.195   4.423  10.201  0.2572 -0.8494  1.5774
  174SOPE   C2319739   4.971   4.538  10.532  0.1111 -0.0899 -0.1023
  174SOPE   H3R19740   4.995   4.639  10.572  0.2652 -0.7003  1.4186
  174SOPE   H3S19741   4.861   4.530  10.546  0.3364  0.2309  2.5814
  174SOPE   C2419742   5.001   4.533  10.376 -0.0425 -0.2368  0.5877
  174SOPE   H4R19743   5.108   4.520  10.349 -0.3748 -0.9686 -0.4532
  174SOPE   H4S19744   4.950   4.441  10.341  0.4642 -0.8541  1.4362
  174SOPE   C2519745   4.967   4.666  10.308  0.8169 -0.0449 -0.2186
  174SOPE   H5R19746   4.862   4.694  10.333  0.2099 -2.3203  0.0099
  174SOPE   H5S19747   5.046   4.742  10.326 -1.1659  2.1494 -0.3323
  174SOPE   C2619748   4.971   4.639  10.157  0.1965  0.3822  0.6495
  174SOPE   H6R19749   5.073   4.604  10.128  0.3605 -1.5915  3.2756
  174SOPE   H6S19750   4.909   4.549  10.138  1.5873 -0.7456  1.2002
  174SOPE   C2719751   4.938   4.750  10.061  0.2524  0.4745 -0.3318
  174SOPE   H7R19752   4.833   4.786  10.070  0.0246 -0.6440  2.2261
  174SOPE   H7S19753   5.003   4.836  10.088  0.9753  0.3634 -1.6318
  174SOPE   C2819754   4.964   4.717   9.912  0.2213 -0.4362  0.1362
  174SOPE   H8R19755   4.958   4.811   9.853 -0.8516 -0.8807 -0.4825
  174SOPE   H8S19756   5.069   4.682   9.906 -0.1398 -1.3096 -1.7078
  174SOPE   C2919757   4.880   4.609   9.843 -0.5766 -0.1513 -1.0907
  174SOPE   H9119758   4.844   4.534   9.915 -0.4158 -0.6146 -1.4848
  174SOPE  C21019759   4.828   4.601   9.720 -0.0626  0.4702  0.1776
  174SOPE  H10119760   4.754   4.524   9.696  0.4257 -0.6595  2.0737
  174SOPE  C21119761   4.841   4.709   9.618 -0.1672 -0.5789  1.1254
  174SOPE  H11R19762   4.899   4.796   9.656 -0.8735  0.6750 -0.5187
  174SOPE  H11S19763   4.745   4.751   9.580  0.1299  0.1281  1.1290
  174SOPE  C21219764   4.917   4.673   9.488 -0.5258  0.7338  0.2763
  174SOPE  H12R19765   5.013   4.631   9.525 -0.1844  0.9748 -0.3302
  174SOPE  H12S19766   4.953   4.757   9.425 -0.1568 -0.0580 -0.5796
  174SOPE  C21319767   4.836   4.577   9.397 -0.7171 -0.2596 -0.1242
  174SOPE  H13R19768   4.728   4.602   9.410 -0.7943 -1.2328  1.3204
  174SOPE  H13S19769   4.861   4.484   9.452  0.1803  1.1154  1.9291
  174SOPE  C21419770   4.882   4.568   9.247 -0.0939 -0.8054 -0.9350
  174SOPE  H14R19771   4.987   4.530   9.245 -0.0983 -0.8618 -0.3434
  174SOPE  H14S19772   4.870   4.667   9.197  1.0931 -0.3880 -0.4485
  174SOPE  C21519773   4.794   4.474   9.159 -0.5117  0.4046  0.1307
  174SOPE  H15R19774   4.686   4.483   9.181 -0.6021 -0.5388  0.1145
  174SOPE  H15S19775   4.818   4.373   9.198 -1.8666  0.0480  0.0897
  174SOPE  C21619776   4.813   4.485   9.010 -0.4018  0.4938  0.4743
  174SOPE  H16R19777   4.924   4.496   9.007 -0.5733  2.9559  1.2509
  174SOPE  H16S19778   4.781   4.584   8.970 -0.0632  0.8254  1.0154
  174SOPE  C21719779   4.750   4.378   8.918 -0.1815  0.1413 -0.5394
  174SOPE  H17R19780   4.762   4.286   8.978  0.6150 -0.7946 -2.0901
  174SOPE  H17S19781   4.823   4.369   8.835 -0.9770 -1.4217 -1.1080
  174SOPE  C21819782   4.607   4.392   8.871  0.0406 -0.1842 -0.1911
  174SOPE  H18R19783   4.609   4.478   8.800 -3.2317  3.0504  3.2281
  174SOPE  H18S19784   4.548   4.421   8.960  1.6921  2.9194  0.0572
  174SOPE  H18T19785   4.575   4.295   8.829  1.5490 -0.4465 -0.7956
  174SOPE   C3319786   5.203   4.253  10.073 -0.2860  0.1207 -0.0368
  174SOPE   H3X19787   5.114   4.220  10.132 -0.8552  1.8323  0.1296
  174SOPE   H3Y19788   5.260   4.162  10.047 -0.7784 -0.1000 -0.3634
  174SOPE   C3419789   5.146   4.326   9.951  0.3578  0.1997  0.8965
  174SOPE   H4X19790   5.239   4.371   9.909 -1.5739  3.0446 -0.6497
  174SOPE   H4Y19791   5.082   4.408   9.991  0.9141  1.4581 -0.6691
  174SOPE   C3519792   5.064   4.237   9.853  0.5130 -0.6676  0.5313
  174SOPE   H5X19793   4.957   4.224   9.883  0.2388  0.7855  0.2737
  174SOPE   H5Y19794   5.109   4.136   9.846 -0.9917 -1.2602 -1.4263
  174SOPE   C3619795   5.071   4.294   9.708  0.4733  0.6032 -0.3657
  174SOPE   H6X19796   5.180   4.309   9.689  0.2498  3.6758  0.2420
  174SOPE   H6Y19797   5.028   4.396   9.710 -1.4684 -0.1833  1.0922
  174SOPE   C3719798   5.024   4.208   9.591  0.3174 -1.2202  0.5638
  174SOPE   H7X19799   4.913   4.203   9.601  0.0328 -0.4351 -1.6593
  174SOPE   H7Y19800   5.061   4.104   9.602 -0.2583 -1.5890 -0.7518
  174SOPE   C3819801   5.077   4.260   9.455  0.0554 -0.0593 -0.3780
  174SOPE   H8X19802   5.186   4.238   9.449  1.3529  3.9909  3.4162
  174SOPE   H8Y19803   5.075   4.369   9.439 -2.4075 -0.0041 -0.0951
  174SOPE   C3919804   5.014   4.194   9.335 -0.6271  0.5528 -0.4229
  174SOPE   H9X19805   4.904   4.199   9.321 -0.7573  2.2124  0.8985
  174SOPE   H9Y19806   5.040   4.087   9.351  0.9190  0.6209 -2.0451
  174SOPE  C31019807   5.084   4.232   9.203  0.1006 -0.2487 -0.9240
  174SOPE  H10X19808   5.195   4.237   9.202  0.1713 -1.3728 -2.7577
  174SOPE  H10Y19809   5.073   4.341   9.190  1.0263  0.0640  0.6464
  174SOPE  C31119810   5.044   4.146   9.085 -0.4220  0.1316 -0.3349
  174SOPE  H11X19811   4.934   4.157   9.071 -0.5182 -0.7627 -0.3255
  174SOPE  H11Y19812   5.065   4.039   9.106 -1.3508  0.1425  0.7766
  174SOPE  C31219813   5.111   4.180   8.956  0.0686 -0.2665  0.3287
  174SOPE  H12X19814   5.219   4.153   8.965  0.4341  1.4210  1.6862
  174SOPE  H12Y19815   5.113   4.290   8.941 -0.7253 -0.4386 -1.1362
  174SOPE  C31319816   5.053   4.102   8.840  0.2264 -0.2595 -0.2668
  174SOPE  H13X19817   5.094   4.152   8.749 -1.3308 -1.4048 -1.6608
  174SOPE  H13Y19818   4.942   4.098   8.844  0.2105 -2.2741 -1.5005
  174SOPE  C31419819   5.109   3.959   8.839 -0.3118 -0.0993  0.4422
  174SOPE  H14X19820   5.096   3.915   8.941 -2.1968  0.0490  0.3042
  174SOPE  H14Y19821   5.219   3.959   8.830 -0.0917 -0.5019  2.4543
  174SOPE  C31519822   5.039   3.873   8.740 -0.4522 -0.2317  0.0364
  174SOPE  H15X19823   5.107   3.794   8.703 -1.7359  0.3083 -3.9598
  174SOPE  H15Y19824   5.009   3.938   8.655  0.0292 -0.3272 -0.2120
  174SOPE  C31619825   4.915   3.804   8.791  0.4245  0.3952 -0.1154
  174SOPE  H16X19826   4.821   3.861   8.777  0.0654 -0.0774  0.3117
  174SOPE  H16Y19827   4.928   3.768   8.895  0.6242  0.8404  0.0146
  174SOPE  C31719828   4.889   3.678   8.711 -0.1062  0.4014  0.6375
  174SOPE  H17X19829   4.795   3.625   8.740 -0.1687  1.0543  1.6974
  174SOPE  H17Y19830   4.969   3.606   8.735  0.2226  0.1718 -1.0406
  174SOPE  C31819831   4.898   3.699   8.565 -0.6151  0.0732 -0.3879
  174SOPE  H18X19832   4.850   3.792   8.529  2.9488  2.3558  0.2813
  174SOPE  H18Y19833   4.862   3.612   8.506 -1.1743  2.0032 -3.0717
  174SOPE  H18Z19834   5.007   3.705   8.540 -0.7280 -2.1060 -1.7494
  175SOPE     N19835   1.718   6.258  10.854  0.2547  0.1207  0.3929
  175SOPE   HN119836   1.734   6.219  10.949  0.1366 -0.0224  0.3541
  175SOPE   HN219837   1.802   6.239  10.797 -1.0831 -1.6609 -1.0937
  175SOPE   HN319838   1.710   6.362  10.861  1.5498  0.1656  1.6697
  175SOPE   C1219839   1.612   6.175  10.798  0.2918 -0.6755 -0.3541
  175SOPE  H12A19840   1.587   6.223  10.701 -0.8632 -1.0665 -0.2685
  175SOPE  H12B19841   1.520   6.170  10.860  0.4151 -1.8088 -0.2386
  175SOPE   C1119842   1.665   6.035  10.774 -0.1477  0.1614  0.1586
  175SOPE  H11A19843   1.584   5.971  10.731  2.8014 -4.1899  0.4153
  175SOPE  H11B19844   1.693   5.978  10.865 -0.2037  0.5198  0.4000
  175SOPE     P19845   1.857   5.923  10.642 -0.3128 -0.2169 -0.3719
  175SOPE   O1319846   1.904   5.842  10.761  0.2450 -0.7145 -0.4872
  175SOPE   O1419847   1.959   5.960  10.547  0.0001  0.4162 -0.3393
  175SOPE   O1219848   1.780   6.048  10.691 -0.1123 -0.3253  0.4532
  175SOPE   O1119849   1.736   5.847  10.568 -0.4966 -0.1859 -0.0862
  175SOPE    C119850   1.681   5.898  10.451  0.4193 -0.1869  0.5314
  175SOPE    HA19851   1.750   5.887  10.365  1.1319  1.7852  0.7802
  175SOPE    HB19852   1.640   6.002  10.454  1.2761  0.4284 -3.7255
  175SOPE    C219853   1.559   5.811  10.401 -0.0132 -0.5871  0.3228
  175SOPE    HS19854   1.468   5.848  10.453  0.1201  1.6728 -0.9133
  175SOPE   O2119855   1.582   5.672  10.405 -0.1129  0.0702  0.8049
  175SOPE   C2119856   1.465   5.606  10.435 -0.8578  0.4434 -0.3487
  175SOPE   O2219857   1.356   5.658  10.457  0.0190  0.3027 -0.1067
  175SOPE   C2219858   1.499   5.461  10.453 -0.7369 -0.4644 -0.2456
  175SOPE   H2R19859   1.416   5.406  10.502  1.0005 -0.9700  2.3298
  175SOPE   H2S19860   1.578   5.448  10.530 -3.0810 -0.9197  2.2642
  175SOPE    C319861   1.534   5.852  10.252  0.0742 -0.4647  0.2521
  175SOPE    HX19862   1.618   5.824  10.186  0.2643 -0.1817  0.3694
  175SOPE    HY19863   1.527   5.963  10.241 -1.2153 -0.4945  0.5973
  175SOPE   O3119864   1.409   5.794  10.205 -0.2778  0.1902 -0.1626
  175SOPE   C3119865   1.301   5.863  10.227 -0.4281 -0.4598  0.1843
  175SOPE   O3219866   1.289   5.971  10.291 -0.2934 -0.2337  0.3722
  175SOPE   C3219867   1.177   5.789  10.167  0.3187  0.5889 -0.2044
  175SOPE   H2X19868   1.102   5.871  10.156  0.1100  0.4753  0.3163
  175SOPE   H2Y19869   1.149   5.712  10.242 -1.7528  0.9193 -0.5608
  175SOPE   C2319870   1.520   5.384  10.318  0.0670 -0.0356  0.4906
  175SOPE   H3R19871   1.502   5.276  10.334  0.1853  0.1923  2.3832
  175SOPE   H3S19872   1.626   5.385  10.284 -0.1363  0.5045 -0.1517
  175SOPE   C2419873   1.433   5.438  10.204 -0.4764  0.3815  0.4757
  175SOPE   H4R19874   1.325   5.451  10.226 -0.6655  0.2447 -0.3410
  175SOPE   H4S19875   1.466   5.534  10.160 -2.6096  0.3447 -1.4354
  175SOPE   C2519876   1.422   5.341  10.088  0.4299  0.5754  0.5369
  175SOPE   H5R19877   1.391   5.243  10.130 -0.1438  0.1219 -0.8546
  175SOPE   H5S19878   1.337   5.387  10.031  0.2707  0.7467  0.9094
  175SOPE   C2619879   1.541   5.333   9.993  0.2298 -0.0234  1.4273
  175SOPE   H6R19880   1.562   5.429   9.942  0.0488 -1.8312 -2.4837
  175SOPE   H6S19881   1.629   5.305  10.054  1.7948 -0.3927 -0.8477
  175SOPE   C2719882   1.524   5.243   9.869  0.4118 -0.1652 -0.4439
  175SOPE   H7R19883   1.502   5.144   9.915  4.4659 -1.1021 -0.2016
  175SOPE   H7S19884   1.442   5.267   9.798 -1.6371 -5.0044 -0.0700
  175SOPE   C2819885   1.661   5.237   9.797 -0.0257  0.0417  0.6079
  175SOPE   H8R19886   1.738   5.222   9.875 -0.1257 -0.0700  0.6848
  175SOPE   H8S19887   1.675   5.149   9.731  1.5977  0.4429  0.3842
  175SOPE   C2919888   1.686   5.365   9.721  0.0367 -0.1048  0.2653
  175SOPE   H9119889   1.752   5.441   9.764  1.2236 -0.1550 -1.3677
  175SOPE  C21019890   1.645   5.387   9.596  0.2891  0.9337 -0.6100
  175SOPE  H10119891   1.648   5.491   9.561 -0.2165  1.4739  0.8950
  175SOPE  C21119892   1.562   5.295   9.511  0.5044 -0.1455  0.7218
  175SOPE  H11R19893   1.455   5.325   9.512  1.0351  2.1876 -1.4772
  175SOPE  H11S19894   1.565   5.192   9.554  0.6751 -0.2434  0.4785
  175SOPE  C21219895   1.604   5.305   9.364 -0.2648  0.2559  0.7451
  175SOPE  H12R19896   1.572   5.209   9.318 -0.2642  1.0055 -0.8962
  175SOPE  H12S19897   1.715   5.317   9.359 -0.4101  1.8678  0.9218
  175SOPE  C21319898   1.534   5.415   9.288 -0.0650 -0.4738 -0.0662
  175SOPE  H13R19899   1.539   5.508   9.348  0.1101 -1.4081  1.4230
  175SOPE  H13S19900   1.425   5.389   9.284 -0.5050  0.5988  2.8060
  175SOPE  C21419901   1.577   5.430   9.147 -0.1217  0.3043 -0.0491
  175SOPE  H14R19902   1.600   5.331   9.103  0.1157  0.9692 -1.4918
  175SOPE  H14S19903   1.679   5.474   9.149  0.8870 -1.8625  3.0033
  175SOPE  C21519904   1.489   5.514   9.061 -0.1940 -0.1490  0.1734
  175SOPE  H15R19905   1.480   5.616   9.103  1.7438  0.0422  0.2374
  175SOPE  H15S19906   1.391   5.462   9.058  0.4239 -1.3431 -0.1806
  175SOPE  C21619907   1.524   5.512   8.908 -0.0383  0.7055  0.3109
  175SOPE  H16R19908   1.455   5.576   8.850 -1.1462 -1.7892 -1.2904
  175SOPE  H16S19909   1.497   5.414   8.863 -0.5020  1.3615 -0.8656
  175SOPE  C21719910   1.668   5.545   8.873 -0.2343 -0.1412  0.4706
  175SOPE  H17R19911   1.733   5.461   8.907  0.0581  0.3150  1.0575
  175SOPE  H17S19912   1.690   5.644   8.919 -0.3812  0.3317 -0.4615
  175SOPE  C21819913   1.679   5.568   8.721 -1.0137 -0.1921  0.0318
  175SOPE  H18R19914   1.598   5.642   8.705  1.3320  3.0719  1.9038
  175SOPE  H18S19915   1.652   5.472   8.673  1.3804 -2.3359  2.6058
  175SOPE  H18T19916   1.783   5.599   8.695 -0.2719 -0.6685  2.2042
  175SOPE   C3319917   1.197   5.728  10.023  0.0869  0.3864 -0.7419
  175SOPE   H3X19918   1.100   5.683   9.993 -0.9013  0.3169  2.2575
  175SOPE   H3Y19919   1.272   5.646  10.023  1.0562  1.2477 -0.5421
  175SOPE   C3419920   1.243   5.836   9.921  0.3803  0.6213 -0.0483
  175SOPE   H4X19921   1.349   5.858   9.947  0.6284  1.2851 -1.4864
  175SOPE   H4Y19922   1.191   5.933   9.934 -0.5819 -0.1784  2.7166
  175SOPE   C3519923   1.244   5.791   9.772 -0.2595  0.2288 -0.1572
  175SOPE   H5X19924   1.285   5.886   9.731  0.8674  0.7418  1.9917
  175SOPE   H5Y19925   1.143   5.771   9.731  0.4337 -0.4343 -1.6309
  175SOPE   C3619926   1.343   5.679   9.746 -0.3161  0.5995 -0.1571
  175SOPE   H6X19927   1.303   5.592   9.803 -0.2385 -0.1027 -1.1313
  175SOPE   H6Y19928   1.444   5.693   9.789 -0.3396 -3.3986  1.5968
  175SOPE   C3719929   1.343   5.638   9.601 -0.2327  0.4050  0.5978
  175SOPE   H7X19930   1.242   5.614   9.563  0.1258  0.7766 -0.6308
  175SOPE   H7Y19931   1.398   5.543   9.580 -0.2247  0.4967  0.2016
  175SOPE   C3819932   1.394   5.743   9.499 -0.0135  0.0305  0.3357
  175SOPE   H8X19933   1.505   5.729   9.499 -0.1713 -1.5477  1.5082
  175SOPE   H8Y19934   1.359   5.846   9.518  0.1515  0.8555 -3.2182
  175SOPE   C3919935   1.340   5.700   9.361 -0.1858 -0.3126  0.6882
  175SOPE   H9X19936   1.321   5.591   9.352  0.5036 -0.2672 -2.2598
  175SOPE   H9Y19937   1.423   5.720   9.290  0.0812 -0.6097  0.9129
  175SOPE  C31019938   1.225   5.779   9.300 -0.2280  0.4157  0.9150
  175SOPE  H10X19939   1.229   5.890   9.295 -2.1091  0.7294  3.8228
  175SOPE  H10Y19940   1.144   5.774   9.376 -1.4285  0.6500 -0.3206
  175SOPE  C31119941   1.194   5.719   9.159 -0.1057  0.1565 -0.3137
  175SOPE  H11X19942   1.149   5.618   9.168  1.7676 -0.6791  0.2431
  175SOPE  H11Y19943   1.288   5.710   9.101 -0.1201 -1.1591 -0.1493
  175SOPE  C31219944   1.101   5.815   9.088  0.2745 -0.0661 -0.2711
  175SOPE  H12X19945   1.138   5.919   9.075 -0.2986  0.4108  1.5650
  175SOPE  H12Y19946   1.019   5.823   9.163  2.9653 -1.4168  3.0761
  175SOPE  C31319947   1.062   5.759   8.950  0.3891 -1.0714 -0.0026
  175SOPE  H13X19948   0.978   5.817   8.905  2.5743  1.9017 -0.5707
  175SOPE  H13Y19949   1.003   5.671   8.983 -1.9775  0.2316 -0.4836
  175SOPE  C31419950   1.172   5.740   8.847 -0.1292  0.0531 -0.2872
  175SOPE  H14X19951   1.261   5.700   8.901  1.5775  0.2851 -2.7790
  175SOPE  H14Y19952   1.199   5.843   8.813  2.8617  0.0532  1.7152
  175SOPE  C31519953   1.140   5.649   8.730 -0.0193 -0.3168  0.2686
  175SOPE  H15X19954   1.088   5.555   8.758 -0.4910 -0.0719  0.2200
  175SOPE  H15Y19955   1.239   5.619   8.691 -1.2941  1.3185 -5.0314
  175SOPE  C31619956   1.060   5.733   8.633 -0.0164 -1.0312 -0.6292
  175SOPE  H16X19957   1.092   5.839   8.642  0.0599 -0.9864 -1.3961
  175SOPE  H16Y19958   0.953   5.742   8.659  0.3652  1.4108  0.3951
  175SOPE  C31719959   1.091   5.698   8.490  0.4600  0.0479 -0.2544
  175SOPE  H17X19960   1.199   5.722   8.478  0.4313  1.1096  1.3212
  175SOPE  H17Y19961   1.029   5.752   8.416  2.4000  2.5018 -0.2309
  175SOPE  C31819962   1.073   5.552   8.449 -0.0992  0.1004 -0.2840
  175SOPE  H18X19963   0.965   5.526   8.437 -1.1396  3.4082  0.7004
  175SOPE  H18Y19964   1.126   5.484   8.519  0.5287 -1.9308 -2.6063
  175SOPE  H18Z19965   1.121   5.525   8.353 -1.0829 -1.1190 -0.4641
  176SOPE     N19966   0.121   4.318  10.984  0.0973 -0.4741 -0.1832
  176SOPE   HN119967   0.171   4.403  10.954 -1.7585  1.1583  1.0263
  176SOPE   HN219968   0.025   4.360  10.982  0.1528 -0.3239 -2.7404
  176SOPE   HN319969   0.142   4.296  11.084  0.1437 -0.0875 -0.1045
  176SOPE   C1219970   0.161   4.204  10.893  0.2742  0.0775  0.4998
  176SOPE  H12A19971   0.125   4.224  10.790  1.1672  0.0158  0.1639
  176SOPE  H12B19972   0.100   4.118  10.928 -1.1033  0.0824 -1.7447
  176SOPE   C1119973   0.306   4.169  10.909  0.0453 -0.0240 -0.3148
  176SOPE  H11A19974   0.368   4.257  10.883 -0.1608  0.5284  0.9560
  176SOPE  H11B19975   0.316   4.077  10.848 -0.8296  1.0471 -2.1668
  176SOPE     P19976   0.475   4.168  11.122  0.1833 -0.3035  0.3925
  176SOPE   O1319977   0.509   4.050  11.207  0.1253  0.0932 -0.4173
  176SOPE   O1419978   0.472   4.306  11.187  0.4744  0.4315  0.2306
  176SOPE   O1219979   0.335   4.136  11.048  0.2786 -0.3377 -0.7694
  176SOPE   O1119980   0.583   4.190  11.005  0.2583 -0.2845  1.1901
  176SOPE    C119981   0.632   4.073  10.933 -0.0546  0.5230  0.5799
  176SOPE    HA19982   0.563   4.032  10.857  1.4165  0.4911 -0.7842
  176SOPE    HB19983   0.670   3.998  11.005 -4.2728  0.6932  3.3086
  176SOPE    C219984   0.761   4.113  10.851 -0.4899 -0.0022 -0.0113
  176SOPE    HS19985   0.820   4.190  10.905 -1.2585  0.7801 -0.2698
  176SOPE   O2119986   0.725   4.158  10.715 -0.4677  0.2786 -0.1601
  176SOPE   C2119987   0.798   4.260  10.672  0.2788 -0.4656  0.5137
  176SOPE   O2219988   0.867   4.332  10.736 -0.6453  0.6260  0.3527
  176SOPE   C2219989   0.774   4.273  10.527  0.3655  0.2008 -0.1383
  176SOPE   H2R19990   0.689   4.211  10.492 -1.1925  1.5284  1.1074
  176SOPE   H2S19991   0.870   4.246  10.477  0.7838  1.7839 -0.2691
  176SOPE    C319992   0.854   3.986  10.830  0.4779 -0.4948 -0.3688
  176SOPE    HX19993   0.792   3.909  10.779  1.6962 -0.1502 -2.5014
  176SOPE    HY19994   0.890   3.946  10.927 -2.7043  0.6522  1.4107
  176SOPE   O3119995   0.972   4.024  10.758  0.2961  0.3052 -0.3129
  176SOPE   C3119996   1.064   3.928  10.747  0.2575  0.3859  0.2534
  176SOPE   O3219997   1.046   3.813  10.787 -0.0211  0.0748  0.1180
  176SOPE   C3219998   1.193   3.986  10.696  0.0543 -0.1405 -0.3337
  176SOPE   H2X19999   1.247   4.006  10.791  0.1193 -1.9824  0.0571
  176SOPE   H2Y20000   1.172   4.078  10.637 -0.5801 -1.1415 -1.7259
  176SOPE   C2320001   0.754   4.422  10.497 -0.4559 -0.4596  0.3722
  176SOPE   H3R20002   0.843   4.483  10.523 -0.3308 -0.1873 -0.6450
  176SOPE   H3S20003   0.665   4.468  10.545 -0.8351  1.4694 -2.0076
  176SOPE   C2420004   0.737   4.426  10.343 -0.1102 -0.1089 -0.6901
  176SOPE   H4R20005   0.834   4.398  10.296  0.7223  1.8773 -0.2510
  176SOPE   H4S20006   0.666   4.345  10.314 -0.9414  0.0862  0.7025
  176SOPE   C2520007   0.678   4.558  10.292  0.5742  0.2547 -0.2305
  176SOPE   H5R20008   0.568   4.558  10.311  0.8848 -0.6332  1.9494
  176SOPE   H5S20009   0.726   4.640  10.350  0.0893  1.2096 -1.1581
  176SOPE   C2620010   0.703   4.570  10.139 -0.7997 -0.4856 -0.4345
  176SOPE   H6R20011   0.678   4.675  10.111 -0.6501  0.9198  3.9400
  176SOPE   H6S20012   0.810   4.545  10.121 -0.3687 -0.8693  2.2393
  176SOPE   C2720013   0.609   4.484  10.054  0.2775  0.5159 -0.5616
  176SOPE   H7R20014   0.626   4.376  10.073 -0.0091  0.9299  2.7254
  176SOPE   H7S20015   0.506   4.516  10.083  1.2600  1.8946  1.6802
  176SOPE   C2820016   0.612   4.512   9.901  0.1851 -0.0253 -0.6946
  176SOPE   H8R20017   0.530   4.458   9.850  0.1475 -1.8423  1.1616
  176SOPE   H8S20018   0.585   4.620   9.893  1.0383  0.4938  2.3487
  176SOPE   C2920019   0.746   4.477   9.844 -0.1116  0.4964 -0.4437
  176SOPE   H9120020   0.768   4.371   9.824 -0.5378  0.4456 -0.6751
  176SOPE  C21020021   0.826   4.566   9.784  0.6765 -0.0507 -0.3011
  176SOPE  H10120022   0.924   4.521   9.765  1.4005  0.6943  1.4420
  176SOPE  C21120023   0.831   4.717   9.765  0.0863 -0.2693  0.5058
  176SOPE  H11R20024   0.932   4.753   9.795 -0.1757  0.1609  0.8861
  176SOPE  H11S20025   0.757   4.779   9.820  1.9588  1.7902  0.8063
  176SOPE  C21220026   0.813   4.755   9.614 -0.4048 -0.1985 -0.0219
  176SOPE  H12R20027   0.789   4.863   9.607 -0.0679 -0.0116  1.4225
  176SOPE  H12S20028   0.733   4.697   9.564  0.8759 -2.4403  0.3877
  176SOPE  C21320029   0.935   4.737   9.532  0.1715 -1.1917  0.7340
  176SOPE  H13R20030   0.969   4.632   9.529  2.0037 -0.6356  0.8806
  176SOPE  H13S20031   1.024   4.792   9.570  0.5527  0.6030 -2.3923
  176SOPE  C21420032   0.917   4.777   9.385 -0.1205  0.1022  0.5559
  176SOPE  H14R20033   0.903   4.883   9.354 -0.7928 -0.3777 -0.8810
  176SOPE  H14S20034   0.831   4.723   9.342 -1.0850  2.2611 -0.3933
  176SOPE  C21520035   1.043   4.732   9.308 -0.2486 -0.4985 -0.8555
  176SOPE  H15R20036   1.049   4.623   9.329  1.7214 -0.8562 -2.8431
  176SOPE  H15S20037   1.135   4.782   9.348 -1.2954  0.0718  0.9563
  176SOPE  C21620038   1.041   4.757   9.159 -0.6451  0.7905  0.5204
  176SOPE  H16R20039   1.004   4.857   9.128 -2.9718 -0.7690 -2.3208
  176SOPE  H16S20040   0.970   4.677   9.127  1.9234 -2.0851  1.4888
  176SOPE  C21720041   1.160   4.719   9.077 -0.1192 -0.6185 -0.2955
  176SOPE  H17R20042   1.130   4.726   8.971  3.1999  0.1975 -1.3023
  176SOPE  H17S20043   1.199   4.618   9.102 -0.9239 -1.1261 -1.0350
  176SOPE  C21820044   1.286   4.811   9.115 -0.3951 -0.0052  1.0100
  176SOPE  H18R20045   1.334   4.772   9.207  0.8611  1.8180  1.1891
  176SOPE  H18S20046   1.264   4.918   9.136  1.0120  0.1445  1.8537
  176SOPE  H18T20047   1.364   4.804   9.037  2.9339 -0.1810  4.1142
  176SOPE   C3320048   1.272   3.900  10.595 -0.2742  0.1573  0.6776
  176SOPE   H3X20049   1.298   3.803  10.643 -1.8541 -0.2935  0.6751
  176SOPE   H3Y20050   1.365   3.959  10.584  1.0139 -1.7974  0.4549
  176SOPE   C3420051   1.210   3.895  10.458  0.8326 -0.3405 -0.2291
  176SOPE   H4X20052   1.292   3.903  10.384 -0.0191 -1.2296 -1.3004
  176SOPE   H4Y20053   1.143   3.984  10.453  0.2732 -0.7644 -0.4032
  176SOPE   C3520054   1.130   3.767  10.435  0.3377  0.3989 -0.1760
  176SOPE   H5X20055   1.046   3.754  10.507 -0.7300  2.1823 -1.0332
  176SOPE   H5Y20056   1.188   3.674  10.452 -0.4094  0.0906  0.8066
  176SOPE   C3620057   1.068   3.765  10.297 -0.3808  0.2885  0.2475
  176SOPE   H6X20058   0.973   3.821  10.288 -0.2190  0.3925 -1.0884
  176SOPE   H6Y20059   1.064   3.663  10.254  2.1406  0.2273 -0.0124
  176SOPE   C3720060   1.156   3.827  10.180  0.3424  0.1322  0.1144
  176SOPE   H7X20061   1.257   3.782  10.175  0.6616  0.7836 -5.1084
  176SOPE   H7Y20062   1.167   3.931  10.216 -1.2684 -0.7582  3.7116
  176SOPE   C3820063   1.099   3.817  10.034  0.9705  0.0189  0.0893
  176SOPE   H8X20064   1.031   3.906  10.038  0.6698 -0.1031 -1.7931
  176SOPE   H8Y20065   1.047   3.719  10.032 -1.5858  1.2981 -0.6960
  176SOPE   C3920066   1.214   3.831   9.933  0.0191 -0.1276  0.3671
  176SOPE   H9X20067   1.248   3.725   9.922  1.6194  0.5680 -2.7148
  176SOPE   H9Y20068   1.294   3.891   9.982 -0.5723 -1.5603  3.3103
  176SOPE  C31020069   1.170   3.888   9.795 -0.1011  0.3939  0.0570
  176SOPE  H10X20070   1.116   3.985   9.805 -0.0089  0.3445  1.1267
  176SOPE  H10Y20071   1.093   3.819   9.756  1.6365 -0.4621 -2.0398
  176SOPE  C31120072   1.281   3.908   9.689 -0.0369 -0.1818 -0.6649
  176SOPE  H11X20073   1.334   3.811   9.672  1.0046  0.6542 -2.6285
  176SOPE  H11Y20074   1.364   3.970   9.728  1.0796 -1.9745 -0.0791
  176SOPE  C31220075   1.230   3.986   9.567  0.1776 -0.5238  0.6181
  176SOPE  H12X20076   1.175   4.081   9.585 -0.4891 -0.4908 -1.3302
  176SOPE  H12Y20077   1.150   3.922   9.524 -0.6004  1.2992 -0.8000
  176SOPE  C31320078   1.341   4.016   9.456 -0.5627  0.6403 -0.7222
  176SOPE  H13X20079   1.405   3.927   9.439  1.9694  2.5429 -1.7502
  176SOPE  H13Y20080   1.410   4.095   9.491 -0.9908  0.0453  1.6426
  176SOPE  C31420081   1.272   4.065   9.326  0.5868 -0.0070  0.5469
  176SOPE  H14X20082   1.225   4.165   9.336  0.7100  0.0483  0.5758
  176SOPE  H14Y20083   1.186   3.996   9.309  3.2939 -3.7257  0.5989
  176SOPE  C31520084   1.354   4.062   9.193  0.8321  0.5417  0.2196
  176SOPE  H15X20085   1.384   3.955   9.182  2.7356  0.9658  0.7756
  176SOPE  H15Y20086   1.445   4.121   9.217  1.4058 -0.7958  1.5283
  176SOPE  C31620087   1.280   4.121   9.068 -0.4042  0.0591 -0.6250
  176SOPE  H16X20088   1.214   4.204   9.099 -1.2304  0.3086 -2.9139
  176SOPE  H16Y20089   1.213   4.048   9.017  1.0595 -1.8589  0.0322
  176SOPE  C31720090   1.379   4.175   8.966 -1.1086 -0.2698  0.8061
  176SOPE  H17X20091   1.429   4.095   8.907 -0.5065  0.5580  0.1781
  176SOPE  H17Y20092   1.462   4.228   9.017  1.4038  0.0208 -3.1464
  176SOPE  C31820093   1.305   4.262   8.866 -1.2142  0.0418 -0.1673
  176SOPE  H18X20094   1.214   4.209   8.832 -1.1033 -0.1700 -0.1333
  176SOPE  H18Y20095   1.357   4.293   8.772  0.1397 -0.2608  0.4615
  176SOPE  H18Z20096   1.282   4.361   8.911 -0.1261  1.9761 -3.4436
  177SOPE     N20097   0.316   1.037  10.627 -0.0109 -0.3231 -0.2389
  177SOPE   HN120098   0.244   1.112  10.622  1.6922  1.6951  2.5324
  177SOPE   HN220099   0.391   1.054  10.556  0.6677 -1.7558  0.0951
  177SOPE   HN320100   0.270   0.945  10.616  0.9764 -0.9220  0.4533
  177SOPE   C1220101   0.382   1.049  10.762  0.4850 -0.1735 -0.1534
  177SOPE  H12A20102   0.411   1.156  10.772  1.0420  0.0308 -3.1421
  177SOPE  H12B20103   0.480   0.996  10.764 -0.4380 -2.1363 -2.2331
  177SOPE   C1120104   0.280   1.004  10.874  0.2315  0.2978 -0.0445
  177SOPE  H11A20105   0.336   0.961  10.959 -0.7475  1.8314  1.4337
  177SOPE  H11B20106   0.223   0.912  10.849  2.5398 -1.1882 -0.1378
  177SOPE     P20107   0.050   1.122  10.877 -0.4519  0.2745 -0.3947
  177SOPE   O1320108   0.002   1.264  10.880  0.1915  0.0395  0.1722
  177SOPE   O1420109  -0.025   1.028  10.957  0.0081  0.4311  0.0423
  177SOPE   O1220110   0.196   1.107  10.925  0.0923 -0.2541  0.0260
  177SOPE   O1120111   0.059   1.078  10.729 -0.1425 -0.4990 -0.0858
  177SOPE    C120112  -0.051   1.065  10.638  0.6587  0.2613 -0.3066
  177SOPE    HA20113  -0.149   1.082  10.687  1.6008  2.9497  0.8315
  177SOPE    HB20114  -0.068   0.956  10.624 -0.4266  0.3293  0.3756
  177SOPE    C220115  -0.040   1.133  10.509  0.3060  0.4399  0.0016
  177SOPE    HS20116   0.050   1.099  10.453  1.0033  0.9693  0.7705
  177SOPE   O2120117  -0.041   1.271  10.532 -0.0715  0.1200  0.7803
  177SOPE   C2120118   0.079   1.331  10.527  0.8129 -0.9291  0.0904
  177SOPE   O2220119   0.181   1.271  10.512 -0.8400 -0.1844 -0.5972
  177SOPE   C2220120   0.064   1.485  10.554  0.3348 -0.3328 -0.3024
  177SOPE   H2R20121   0.168   1.523  10.565  0.4929 -0.7624 -0.2987
  177SOPE   H2S20122   0.006   1.508  10.646 -1.4425  0.0388 -1.4729
  177SOPE    C320123  -0.166   1.108  10.427  0.5685  0.0892  1.1400
  177SOPE    HX20124  -0.252   1.148  10.485  1.0115 -0.5149  2.2679
  177SOPE    HY20125  -0.174   0.997  10.426 -0.0675  0.1330  1.2389
  177SOPE   O3120126  -0.159   1.165  10.291 -0.2885  0.0859 -0.3505
  177SOPE   C3120127  -0.224   1.282  10.273  0.5949  0.2083 -0.6537
  177SOPE   O3220128  -0.289   1.345  10.353  0.3700 -0.2014  1.1863
  177SOPE   C3220129  -0.183   1.331  10.134 -0.6619  0.8819 -0.6106
  177SOPE   H2X20130  -0.224   1.249  10.072 -0.7690 -1.2079  2.0759
  177SOPE   H2Y20131  -0.072   1.334  10.124 -0.8834  1.4007 -4.6288
  177SOPE   C2320132  -0.001   1.562  10.440 -0.5654 -0.1696 -0.2082
  177SOPE   H3R20133  -0.010   1.667  10.475 -1.9764 -0.6371  0.9090
  177SOPE   H3S20134  -0.100   1.522  10.406  0.0092 -0.1943 -1.9838
  177SOPE   C2420135   0.085   1.568  10.312 -0.1210  0.5035 -0.6443
  177SOPE   H4R20136   0.183   1.517  10.326  0.0933  1.3454  1.1952
  177SOPE   H4S20137   0.031   1.521  10.227 -0.8090 -0.4647  0.3056
  177SOPE   C2520138   0.132   1.711  10.271  0.0262  0.2682 -0.1205
  177SOPE   H5R20139   0.169   1.763  10.362 -1.3927  1.0188  0.0699
  177SOPE   H5S20140   0.218   1.695  10.204  1.4881  2.8677  0.9903
  177SOPE   C2620141   0.020   1.797  10.202  0.8445  0.0506 -0.1618
  177SOPE   H6R20142  -0.028   1.733  10.125  2.1088 -1.7529  0.4967
  177SOPE   H6S20143  -0.061   1.834  10.268 -0.5017  0.0028 -1.7131
  177SOPE   C2720144   0.061   1.922  10.128 -0.0184  0.3202  0.0886
  177SOPE   H7R20145  -0.023   1.986  10.093 -0.1071  0.3045  0.2738
  177SOPE   H7S20146   0.134   1.980  10.188 -0.2146 -0.5937  1.2434
  177SOPE   C2820147   0.151   1.883  10.007 -0.5785 -0.0699  0.0250
  177SOPE   H8R20148   0.226   1.809  10.041  0.2012  1.0290  0.8065
  177SOPE   H8S20149   0.094   1.819   9.937 -0.1210  0.0125 -0.4342
  177SOPE   C2920150   0.224   2.004   9.943  0.0751 -0.5266  0.0083
  177SOPE   H9120151   0.282   2.068  10.012  2.2335  0.0205 -2.1598
  177SOPE  C21020152   0.206   2.033   9.810 -0.2568 -0.1216  0.1369
  177SOPE  H10120153   0.260   2.123   9.778  0.7180 -0.2355  1.3519
  177SOPE  C21120154   0.112   1.954   9.720 -0.5809 -0.1858  0.2166
  177SOPE  H11R20155   0.010   1.954   9.765 -2.4599  0.4684 -3.5707
  177SOPE  H11S20156   0.138   1.848   9.698  2.5455  0.7407 -1.0360
  177SOPE  C21220157   0.102   2.012   9.571 -0.4440 -0.5553 -0.4287
  177SOPE  H12R20158   0.165   2.103   9.562  1.0495 -1.3772  1.1622
  177SOPE  H12S20159  -0.002   2.050   9.560 -0.8819 -0.5557  2.7195
  177SOPE  C21320160   0.136   1.927   9.452 -0.3780 -0.1523 -0.5708
  177SOPE  H13R20161   0.112   1.821   9.473  1.3181 -0.1168  1.9859
  177SOPE  H13S20162   0.246   1.936   9.450  0.1820 -2.0555  4.7530
  177SOPE  C21420163   0.057   1.982   9.326 -0.3566  0.1823 -0.1622
  177SOPE  H14R20164   0.085   2.088   9.311  1.5054 -0.3714 -0.8536
  177SOPE  H14S20165  -0.053   1.978   9.343 -0.4925  1.3281 -0.6833
  177SOPE  C21520166   0.083   1.899   9.195  0.7932  0.0788 -0.2987
  177SOPE  H15R20167   0.074   1.794   9.230  1.7978  0.3404  0.8124
  177SOPE  H15S20168   0.184   1.924   9.157 -0.1544  4.6515 -0.3796
  177SOPE  C21620169  -0.025   1.927   9.091 -0.0069 -0.7317  0.4664
  177SOPE  H16R20170  -0.121   1.928   9.147  0.0261 -2.4787  0.5969
  177SOPE  H16S20171  -0.028   1.851   9.011 -0.0050  0.5310 -0.7676
  177SOPE  C21720172   0.005   2.064   9.019  0.6997  0.1779  0.0747
  177SOPE  H17R20173   0.097   2.049   8.958  1.1982  1.6781  0.4266
  177SOPE  H17S20174   0.018   2.150   9.088  1.7615 -0.3861  0.6019
  177SOPE  C21820175  -0.122   2.093   8.927 -0.3552 -0.2431 -1.0896
  177SOPE  H18R20176  -0.093   2.172   8.855  0.2678  0.3186 -0.2421
  177SOPE  H18S20177  -0.215   2.120   8.981  0.6734 -0.7402  1.0679
  177SOPE  H18T20178  -0.152   2.007   8.862 -1.7798  0.7265 -1.7657
  177SOPE   C3320179  -0.219   1.474  10.084  0.0796  0.2031 -0.2902
  177SOPE   H3X20180  -0.194   1.544  10.167  0.0538 -0.5392  0.3506
  177SOPE   H3Y20181  -0.330   1.476  10.074 -0.1299 -3.0852  0.4627
  177SOPE   C3420182  -0.146   1.500   9.949 -0.0373 -0.0979 -0.5731
  177SOPE   H4X20183  -0.038   1.485   9.972  0.1786  0.8934 -0.8622
  177SOPE   H4Y20184  -0.166   1.607   9.928 -2.4159 -0.3893 -0.0558
  177SOPE   C3520185  -0.194   1.415   9.829 -0.1524 -0.6890  0.2417
  177SOPE   H5X20186  -0.295   1.447   9.796  0.1334 -0.9234 -0.9248
  177SOPE   H5Y20187  -0.192   1.308   9.859 -0.9065 -0.0080  3.0416
  177SOPE   C3620188  -0.105   1.451   9.709  0.1414  0.1216  0.3103
  177SOPE   H6X20189  -0.015   1.385   9.712 -0.7999 -1.2422 -0.5079
  177SOPE   H6Y20190  -0.064   1.554   9.713  1.0256 -0.1021 -1.5810
  177SOPE   C3720191  -0.167   1.421   9.567 -0.4387 -0.4866  0.0524
  177SOPE   H7X20192  -0.267   1.469   9.568  0.3695  1.3268  1.8116
  177SOPE   H7Y20193  -0.186   1.312   9.551  1.3959 -0.6739 -1.0811
  177SOPE   C3820194  -0.064   1.458   9.464  0.6120 -0.0192  0.5886
  177SOPE   H8X20195   0.027   1.395   9.462  1.7993  1.6129  0.4786
  177SOPE   H8Y20196  -0.023   1.560   9.482 -1.4037  1.1483 -0.9337
  177SOPE   C3920197  -0.124   1.458   9.325  0.4023  0.5457  0.4641
  177SOPE   H9X20198  -0.205   1.529   9.303  1.3492  1.5441  0.1039
  177SOPE   H9Y20199  -0.171   1.363   9.292 -1.9528  0.7819  2.8225
  177SOPE  C31020200  -0.022   1.499   9.213  0.0352  0.0110  0.0889
  177SOPE  H10X20201   0.049   1.416   9.191 -0.7587 -0.4527 -0.7849
  177SOPE  H10Y20202   0.033   1.585   9.255 -0.1085 -0.1097  0.5294
  177SOPE  C31120203  -0.073   1.545   9.077  0.2732 -0.0879  0.5798
  177SOPE  H11X20204  -0.113   1.648   9.077 -3.7614 -1.4698 -0.1900
  177SOPE  H11Y20205  -0.154   1.476   9.042  0.4644 -1.1913  2.1856
  177SOPE  C31220206   0.038   1.556   8.964  0.3925 -0.0302 -0.2043
  177SOPE  H12X20207   0.083   1.454   8.963 -1.0557 -0.8227  2.7898
  177SOPE  H12Y20208   0.112   1.628   9.005 -0.3699 -0.6606  2.5154
  177SOPE  C31320209  -0.011   1.588   8.824  0.3683 -0.2351 -0.5572
  177SOPE  H13X20210  -0.078   1.676   8.830  2.4840  1.5292 -1.4318
  177SOPE  H13Y20211  -0.082   1.513   8.783  0.0308 -0.5298  0.5304
  177SOPE  C31420212   0.107   1.615   8.733  0.4337  0.1228 -0.0546
  177SOPE  H14X20213   0.166   1.521   8.730 -1.5790 -1.2262 -4.0381
  177SOPE  H14Y20214   0.161   1.695   8.790  2.2969 -0.6987 -0.5776
  177SOPE  C31520215   0.070   1.680   8.599  0.2421 -0.3138 -0.1447
  177SOPE  H15X20216  -0.021   1.742   8.609 -1.6484 -2.5684 -2.2777
  177SOPE  H15Y20217   0.056   1.594   8.531  0.1416  0.3386 -0.9608
  177SOPE  C31620218   0.184   1.767   8.548  0.7733  0.3613  0.7231
  177SOPE  H16X20219   0.254   1.689   8.512 -2.1252 -3.2163  2.1510
  177SOPE  H16Y20220   0.229   1.798   8.645 -0.8906 -0.3345  1.7638
  177SOPE  C31720221   0.155   1.882   8.452 -0.9153 -0.9136 -0.5983
  177SOPE  H17X20222   0.072   1.941   8.497 -0.8050  0.3240 -1.9317
  177SOPE  H17Y20223   0.125   1.851   8.350 -1.4108 -2.9729  0.1242
  177SOPE  C31820224   0.275   1.971   8.447 -0.4820 -0.3255  0.1322
  177SOPE  H18X20225   0.369   1.913   8.432 -0.2736 -0.3579  1.4988
  177SOPE  H18Y20226   0.291   2.036   8.535  0.8781  1.1602 -1.1318
  177SOPE  H18Z20227   0.272   2.041   8.360  2.4765 -0.0153  0.1686
  178SOPE     N20228   2.927   0.903  11.037 -0.0869 -0.1886  0.6411
  178SOPE   HN120229   2.979   0.929  10.951 -2.0990 -0.2976 -0.6723
  178SOPE   HN220230   2.869   0.986  11.058  0.5938  0.8303 -1.2402
  178SOPE   HN320231   2.995   0.889  11.115 -0.4531  0.0353  1.0056
  178SOPE   C1220232   2.858   0.772  11.015  0.4327  0.5382 -0.4681
  178SOPE  H12A20233   2.825   0.738  11.116  0.1482  0.8412 -0.4588
  178SOPE  H12B20234   2.925   0.700  10.965  0.5817 -0.1599  0.6895
  178SOPE   C1120235   2.739   0.792  10.914 -0.5966  0.4439 -0.9818
  178SOPE  H11A20236   2.705   0.688  10.896  1.2972 -0.7729  1.6979
  178SOPE  H11B20237   2.778   0.818  10.814 -1.2694 -1.6945 -1.8557
  178SOPE     P20238   2.622   1.024  10.931  0.0502 -0.0313  0.0335
  178SOPE   O1320239   2.741   1.092  10.968  0.3420 -0.2167 -0.5879
  178SOPE   O1420240   2.492   1.068  10.984  0.3458  0.4960  0.4363
  178SOPE   O1220241   2.637   0.872  10.975  0.0025 -0.1189  0.4124
  178SOPE   O1120242   2.617   1.004  10.775 -0.4975  0.0665  0.4463
  178SOPE    C120243   2.516   1.048  10.680  0.0612  0.7951 -0.4397
  178SOPE    HA20244   2.469   1.145  10.711  0.4987  0.9969 -0.4000
  178SOPE    HB20245   2.436   0.971  10.673  2.5792 -1.9193 -0.8156
  178SOPE    C220246   2.582   1.051  10.539 -0.1864  0.1003  0.3426
  178SOPE    HS20247   2.646   1.141  10.549  0.6965 -0.7005  2.6994
  178SOPE   O2120248   2.481   1.072  10.436 -0.1745 -0.0630 -0.4886
  178SOPE   C2120249   2.502   1.177  10.354  0.0658  0.7752  0.0782
  178SOPE   O2220250   2.594   1.255  10.369  0.1651 -0.3727  0.5249
  178SOPE   C2220251   2.413   1.179  10.230 -0.6220 -0.4952 -0.3181
  178SOPE   H2R20252   2.308   1.190  10.266 -0.3147 -0.3003  0.5268
  178SOPE   H2S20253   2.417   1.075  10.189  0.1487 -0.8731  0.6800
  178SOPE    C320254   2.667   0.919  10.515  0.1827 -0.7705 -0.6494
  178SOPE    HX20255   2.602   0.830  10.527 -0.3731 -0.3856 -0.6978
  178SOPE    HY20256   2.737   0.903  10.599  0.5870 -0.8185 -0.9905
  178SOPE   O3120257   2.724   0.912  10.385  0.0098 -0.0492  0.6923
  178SOPE   C3120258   2.835   0.977  10.359  0.5300 -0.0031 -0.5494
  178SOPE   O3220259   2.911   1.019  10.444  0.3380 -0.0073 -0.4871
  178SOPE   C3220260   2.873   0.995  10.214  0.2788 -0.2777 -0.3999
  178SOPE   H2X20261   2.976   1.036  10.208  0.3619  0.2402  2.7755
  178SOPE   H2Y20262   2.800   1.067  10.170 -0.1983 -0.7437 -0.3817
  178SOPE   C2320263   2.449   1.285  10.130  0.8496 -0.2352 -0.4986
  178SOPE   H3R20264   2.489   1.373  10.186  0.7922  0.1649 -1.0801
  178SOPE   H3S20265   2.357   1.319  10.077 -0.4863 -3.2319 -0.3215
  178SOPE   C2420266   2.540   1.230  10.031 -0.3696  0.0537  0.1068
  178SOPE   H4R20267   2.628   1.201  10.093 -1.2402 -1.6366  0.6289
  178SOPE   H4S20268   2.496   1.138   9.985  1.2336 -1.2917  1.1629
  178SOPE   C2520269   2.592   1.337   9.933 -0.0378  0.0180 -0.3865
  178SOPE   H5R20270   2.520   1.407   9.885 -0.0425 -0.5862 -1.2718
  178SOPE   H5S20271   2.660   1.399   9.995  0.8029 -1.0970 -0.1721
  178SOPE   C2620272   2.665   1.278   9.815 -0.3012  0.2905  0.4714
  178SOPE   H6R20273   2.712   1.366   9.766 -1.6079  0.7489 -0.0016
  178SOPE   H6S20274   2.737   1.204   9.856  0.0103 -0.4579 -1.3125
  178SOPE   C2720275   2.570   1.204   9.721 -0.1914 -0.0332  0.0583
  178SOPE   H7R20276   2.556   1.100   9.758 -1.1359 -0.0605 -0.3498
  178SOPE   H7S20277   2.467   1.246   9.725  0.0274  0.6769 -1.1942
  178SOPE   C2820278   2.622   1.215   9.569  0.1166 -0.4762 -0.1100
  178SOPE   H8R20279   2.546   1.162   9.507  1.2680 -0.9857 -1.1116
  178SOPE   H8S20280   2.617   1.324   9.549 -0.3484 -0.3899  0.4610
  178SOPE   C2920281   2.761   1.165   9.530  0.0264 -0.0362  0.1335
  178SOPE   H9120282   2.785   1.063   9.561 -0.2322 -0.3649 -0.6991
  178SOPE  C21020283   2.856   1.231   9.452 -0.3698 -0.1699 -0.4144
  178SOPE  H10120284   2.951   1.177   9.435 -0.7050 -0.8839 -0.0835
  178SOPE  C21120285   2.851   1.372   9.399  0.3253  0.6772 -0.2339
  178SOPE  H11R20286   2.954   1.403   9.368 -0.2241 -0.1094 -3.1619
  178SOPE  H11S20287   2.816   1.435   9.483 -1.0291 -1.8206  1.2045
  178SOPE  C21220288   2.749   1.387   9.281 -0.4328  0.1483 -0.1278
  178SOPE  H12R20289   2.650   1.352   9.316  0.3043  0.7703  2.9129
  178SOPE  H12S20290   2.772   1.314   9.201  0.5603 -0.5144  0.7312
  178SOPE  C21320291   2.733   1.527   9.225 -0.4720 -0.2084 -0.7694
  178SOPE  H13R20292   2.825   1.552   9.167  1.3305 -2.5261  0.9178
  178SOPE  H13S20293   2.749   1.596   9.310 -0.3174 -1.0498 -0.1045
  178SOPE  C21420294   2.602   1.557   9.151  0.7260  0.1271 -0.1858
  178SOPE  H14R20295   2.602   1.668   9.142  1.3920  0.1002 -0.6578
  178SOPE  H14S20296   2.516   1.523   9.212 -0.2954  0.2882 -1.5001
  178SOPE  C21520297   2.575   1.496   9.010 -0.6361 -0.2597 -0.5993
  178SOPE  H15R20298   2.576   1.386   9.022 -0.6876 -0.2504 -0.5141
  178SOPE  H15S20299   2.663   1.524   8.948 -1.2692 -0.4699 -1.6144
  178SOPE  C21620300   2.433   1.533   8.955 -0.4835  0.7576  0.8065
  178SOPE  H16R20301   2.436   1.641   8.929  0.7821  0.9657  1.6901
  178SOPE  H16S20302   2.359   1.482   9.021 -0.1906 -1.8481 -0.7206
  178SOPE  C21720303   2.416   1.456   8.820 -0.2284 -0.0520 -0.4288
  178SOPE  H17R20304   2.308   1.455   8.795 -1.0082  1.2293  2.4660
  178SOPE  H17S20305   2.445   1.352   8.848 -0.4494  0.1897  0.7838
  178SOPE  C21820306   2.503   1.508   8.704  0.8266  0.3023  0.4785
  178SOPE  H18R20307   2.603   1.536   8.742  0.7882 -1.3913  1.9516
  178SOPE  H18S20308   2.454   1.601   8.666 -1.8462 -0.6651  1.3011
  178SOPE  H18T20309   2.503   1.441   8.616 -1.3694  1.3100 -0.3679
  178SOPE   C3320310   2.850   0.864  10.134 -0.7012 -0.2617 -0.5456
  178SOPE   H3X20311   2.757   0.811  10.162 -2.3463  1.9612 -1.5473
  178SOPE   H3Y20312   2.931   0.788  10.131  1.3588  1.8495 -1.5321
  178SOPE   C3420313   2.821   0.901   9.986  0.1100 -0.5562 -1.0402
  178SOPE   H4X20314   2.912   0.942   9.937 -1.3568  0.8759 -2.6990
  178SOPE   H4Y20315   2.733   0.968   9.983 -0.3135 -0.9440  1.0566
  178SOPE   C3520316   2.777   0.779   9.911  0.1513 -0.2788  0.1271
  178SOPE   H5X20317   2.673   0.759   9.945  1.1702 -0.9655  3.0522
  178SOPE   H5Y20318   2.846   0.695   9.933 -0.5450 -0.2678  2.5550
  178SOPE   C3620319   2.777   0.805   9.758  0.2545  0.9903 -0.5507
  178SOPE   H6X20320   2.883   0.830   9.735  1.2550 -2.2478  0.0541
  178SOPE   H6Y20321   2.714   0.896   9.743 -0.5134  0.5052 -0.3386
  178SOPE   C3720322   2.734   0.686   9.681  0.1180  0.0316 -1.4652
  178SOPE   H7X20323   2.634   0.656   9.718  1.1239  0.2500  1.7219
  178SOPE   H7Y20324   2.800   0.601   9.709 -0.6413  0.3224  1.5420
  178SOPE   C3820325   2.729   0.718   9.532  0.2074 -0.6817 -0.6418
  178SOPE   H8X20326   2.830   0.745   9.495 -0.5510 -1.6662 -3.6661
  178SOPE   H8Y20327   2.670   0.811   9.514  0.8410 -0.7672 -3.6874
  178SOPE   C3920328   2.662   0.598   9.452  0.6937 -0.5583 -0.1551
  178SOPE   H9X20329   2.561   0.563   9.483  1.4372 -2.0181  0.7136
  178SOPE   H9Y20330   2.735   0.515   9.459 -2.2481 -3.6690 -2.8676
  178SOPE  C31020331   2.659   0.637   9.306 -0.2318  0.0484  0.0016
  178SOPE  H10X20332   2.757   0.687   9.287  0.1456 -0.8067 -0.3477
  178SOPE  H10Y20333   2.579   0.714   9.297  0.0420  0.4254  0.6455
  178SOPE  C31120334   2.640   0.520   9.215  0.2837 -0.5029 -0.0067
  178SOPE  H11X20335   2.554   0.457   9.249  0.7546 -0.9590  0.3687
  178SOPE  H11Y20336   2.724   0.449   9.229  2.3727  1.4279 -2.0786
  178SOPE  C31220337   2.629   0.555   9.068 -0.6095  0.5359 -0.1229
  178SOPE  H12X20338   2.726   0.596   9.032 -0.4154  1.5071  1.3844
  178SOPE  H12Y20339   2.550   0.630   9.048  0.6231  1.6428 -1.0966
  178SOPE  C31320340   2.592   0.431   8.987 -0.1394 -0.4851 -0.1731
  178SOPE  H13X20341   2.512   0.373   9.038  0.7060 -1.7877 -0.2848
  178SOPE  H13Y20342   2.673   0.355   8.992  1.3351  0.7657 -2.9446
  178SOPE  C31420343   2.552   0.462   8.839 -0.8045 -0.0990 -0.1464
  178SOPE  H14X20344   2.483   0.549   8.839  0.2404  0.7640 -0.8398
  178SOPE  H14Y20345   2.487   0.378   8.808 -0.3311 -1.1021  1.4396
  178SOPE  C31520346   2.678   0.484   8.767  0.7640 -0.5237  0.8730
  178SOPE  H15X20347   2.728   0.385   8.754 -0.9219 -1.4843  1.4917
  178SOPE  H15Y20348   2.741   0.561   8.817  2.0571 -2.2938  2.0833
  178SOPE  C31620349   2.642   0.547   8.625 -0.0394  0.1904 -0.1983
  178SOPE  H16X20350   2.567   0.625   8.652  0.7043  0.7436  0.2885
  178SOPE  H16Y20351   2.594   0.470   8.561 -0.6230 -0.1773  0.6509
  178SOPE  C31720352   2.760   0.621   8.576  0.2711 -0.3207 -0.4588
  178SOPE  H17X20353   2.833   0.546   8.537 -0.0431 -1.2573  0.7090
  178SOPE  H17Y20354   2.802   0.691   8.652  0.7333  0.1158 -1.1023
  178SOPE  C31820355   2.729   0.719   8.460 -0.1013  0.7996  0.9667
  178SOPE  H18X20356   2.801   0.802   8.441 -0.8944  1.1150 -0.8809
  178SOPE  H18Y20357   2.638   0.775   8.489 -0.7119 -0.1739  0.9769
  178SOPE  H18Z20358   2.708   0.657   8.370 -0.4439 -0.6747  2.0258
  179SOPE     N20359   3.480   1.773   6.476 -0.0858 -0.1919 -0.4357
  179SOPE   HN120360   3.502   1.823   6.565 -1.6007 -0.0853 -0.0881
  179SOPE   HN220361   3.389   1.723   6.484  1.3305 -2.8907  0.0293
  179SOPE   HN320362   3.550   1.697   6.466  1.4412  1.1165 -0.1668
  179SOPE   C1220363   3.497   1.869   6.365  0.1652  0.0883 -0.0409
  179SOPE  H12A20364   3.431   1.830   6.284 -3.3652  0.6097  2.3808
  179SOPE  H12B20365   3.602   1.865   6.329  0.6769  0.2563  1.3741
  179SOPE   C1120366   3.462   2.010   6.406 -0.7440 -0.3535 -0.2632
  179SOPE  H11A20367   3.353   2.016   6.427 -0.3433 -1.4185  2.6891
  179SOPE  H11B20368   3.482   2.082   6.324  1.3498  1.5852  1.8186
  179SOPE     P20369   3.556   2.199   6.555  0.0732  0.4109 -0.2325
  179SOPE   O1320370   3.597   2.270   6.433 -0.2728 -0.1716  0.0949
  179SOPE   O1420371   3.647   2.202   6.666 -0.1442 -0.5734 -0.3054
  179SOPE   O1220372   3.536   2.048   6.523  0.4500 -0.6414  0.0587
  179SOPE   O1120373   3.416   2.257   6.593  0.0311 -0.0524 -0.1811
  179SOPE    C120374   3.341   2.170   6.678  0.0144 -0.1552  0.0061
  179SOPE    HA20375   3.399   2.143   6.768  1.9042  1.8757 -0.4971
  179SOPE    HB20376   3.288   2.086   6.629 -3.2787  0.5870  2.0425
  179SOPE    C220377   3.226   2.253   6.737 -0.7184 -0.4861 -0.2953
  179SOPE    HS20378   3.172   2.303   6.654 -0.0765  2.0668  0.7377
  179SOPE   O2120379   3.285   2.349   6.826 -0.5306  0.3503  0.4700
  179SOPE   C2120380   3.213   2.455   6.865 -0.4186  0.0439 -0.4175
  179SOPE   O2220381   3.104   2.482   6.812 -0.0485 -0.2081 -0.0743
  179SOPE   C2220382   3.286   2.542   6.968  0.4324 -0.0815  0.2783
  179SOPE   H2R20383   3.205   2.588   7.028 -0.6780 -1.4769 -0.1084
  179SOPE   H2S20384   3.335   2.630   6.922 -3.1362  1.8584 -0.2002
  179SOPE    C320385   3.136   2.161   6.823  0.0032  0.3327 -0.7619
  179SOPE    HX20386   3.090   2.081   6.761 -1.5670 -1.1133  2.0820
  179SOPE    HY20387   3.058   2.234   6.852 -0.2012 -0.2272  0.1365
  179SOPE   O3120388   3.203   2.080   6.929  0.5800  0.5951  0.7874
  179SOPE   C3120389   3.181   2.131   7.053 -0.2131  0.2547  0.0289
  179SOPE   O3220390   3.122   2.228   7.080  0.2906  0.1522 -0.2815
  179SOPE   C3220391   3.240   2.018   7.151 -0.1190 -0.4613  0.6536
  179SOPE   H2X20392   3.348   2.004   7.130 -0.4390 -0.4626 -1.1439
  179SOPE   H2Y20393   3.183   1.928   7.119  0.5495 -0.2804 -1.1171
  179SOPE   C2320394   3.397   2.469   7.048  0.2605  0.8099  0.1443
  179SOPE   H3R20395   3.465   2.416   6.978 -0.1468  0.9476 -0.3701
  179SOPE   H3S20396   3.342   2.389   7.102 -0.5990 -0.6106 -2.6302
  179SOPE   C2420397   3.472   2.547   7.145  0.1186 -0.1920  0.7881
  179SOPE   H4R20398   3.549   2.599   7.083 -1.5737  0.1718 -1.0893
  179SOPE   H4S20399   3.413   2.627   7.195  1.3478  0.5960  1.0271
  179SOPE   C2520400   3.546   2.463   7.254 -0.3601  0.5028  0.8562
  179SOPE   H5R20401   3.498   2.363   7.247 -0.3785  0.6018 -1.2096
  179SOPE   H5S20402   3.650   2.434   7.224  0.1402  1.3211  1.7592
  179SOPE   C2620403   3.552   2.528   7.399  1.5752  0.8948  0.4994
  179SOPE   H6R20404   3.449   2.553   7.434 -0.0694  0.2498 -3.4209
  179SOPE   H6S20405   3.583   2.442   7.463  1.1476  0.2610 -0.1399
  179SOPE   C2720406   3.640   2.649   7.408  0.0994 -0.0357 -0.0507
  179SOPE   H7R20407   3.742   2.618   7.376  0.6712  1.1823  0.4785
  179SOPE   H7S20408   3.601   2.722   7.334 -0.2979 -0.5597 -0.3593
  179SOPE   C2820409   3.649   2.721   7.540  0.4684  0.1851  0.3124
  179SOPE   H8R20410   3.550   2.745   7.584  1.1283 -0.5608  2.3527
  179SOPE   H8S20411   3.691   2.640   7.604 -1.1464 -1.6537 -0.8341
  179SOPE   C2920412   3.747   2.836   7.540  0.6150  1.2029 -0.2211
  179SOPE   H9120413   3.717   2.922   7.477 -2.8134 -0.1398 -0.6527
  179SOPE  C21020414   3.859   2.844   7.621 -0.0428 -0.2586  0.4662
  179SOPE  H10120415   3.920   2.935   7.606 -0.1263 -0.3040 -0.1817
  179SOPE  C21120416   3.910   2.736   7.708  0.1984  0.3569 -0.1559
  179SOPE  H11R20417   4.019   2.745   7.727 -0.2206  2.2418  1.7439
  179SOPE  H11S20418   3.890   2.634   7.668 -1.7558 -0.2603  2.1270
  179SOPE  C21220419   3.842   2.732   7.849  0.0512  0.6628  0.4765
  179SOPE  H12R20420   3.745   2.677   7.850  1.7120 -2.5360  1.3516
  179SOPE  H12S20421   3.821   2.837   7.879  0.3568  1.0976 -0.7835
  179SOPE  C21320422   3.921   2.654   7.959 -0.4238 -0.7123 -0.6438
  179SOPE  H13R20423   3.988   2.724   8.013 -1.2920 -0.2648 -0.1235
  179SOPE  H13S20424   3.991   2.581   7.914  0.5899 -0.7684  0.9475
  179SOPE  C21420425   3.823   2.579   8.052  0.6137  0.2779 -0.0963
  179SOPE  H14R20426   3.878   2.511   8.120  1.3724  2.1897  1.2852
  179SOPE  H14S20427   3.746   2.524   7.993 -0.0096  1.4130 -0.3663
  179SOPE  C21520428   3.756   2.677   8.139  0.6693 -0.8277 -1.0019
  179SOPE  H15R20429   3.688   2.735   8.072 -0.2150 -1.0677 -0.3319
  179SOPE  H15S20430   3.838   2.740   8.181  0.5612 -1.2899 -0.0805
  179SOPE  C21620431   3.663   2.619   8.247  0.5302  0.5857 -0.1628
  179SOPE  H16R20432   3.718   2.556   8.320 -0.9532  0.2223  0.6857
  179SOPE  H16S20433   3.578   2.562   8.203  0.4557  0.1247  0.5600
  179SOPE  C21720434   3.596   2.735   8.325 -0.0145 -0.5175 -0.3288
  179SOPE  H17R20435   3.539   2.800   8.255  0.1893 -0.9156 -0.8735
  179SOPE  H17S20436   3.677   2.794   8.373  1.1231 -1.5918 -0.8721
  179SOPE  C21820437   3.504   2.702   8.443  0.3305 -0.3210  0.1772
  179SOPE  H18R20438   3.408   2.671   8.398 -0.8619  1.8656  1.0734
  179SOPE  H18S20439   3.487   2.797   8.499 -1.7118  0.0963 -1.0369
  179SOPE  H18T20440   3.542   2.622   8.510  0.2195 -1.8679 -1.5290
  179SOPE   C3320441   3.210   2.059   7.293  0.1963  0.5898 -0.5109
  179SOPE   H3X20442   3.107   2.098   7.301  0.9562  2.4329  1.1343
  179SOPE   H3Y20443   3.269   2.146   7.329  0.1250  0.0512  0.9716
  179SOPE   C3420444   3.242   1.939   7.379 -0.7167  0.1552  0.0577
  179SOPE   H4X20445   3.351   1.920   7.380 -0.8049 -0.6609  2.8151
  179SOPE   H4Y20446   3.199   1.851   7.325 -1.7241 -1.4487  3.2191
  179SOPE   C3520447   3.195   1.965   7.523 -0.3746  0.8938  0.2804
  179SOPE   H5X20448   3.085   1.952   7.517 -0.0601 -3.0799  0.4702
  179SOPE   H5Y20449   3.218   2.069   7.554 -2.9076  1.5724  0.0576
  179SOPE   C3620450   3.243   1.868   7.633 -0.8956 -0.0589 -0.2118
  179SOPE   H6X20451   3.354   1.861   7.633 -0.8541  0.0837  1.9601
  179SOPE   H6Y20452   3.215   1.766   7.599 -1.3111 -0.5215  1.4208
  179SOPE   C3720453   3.185   1.889   7.772 -0.0379  0.1418  0.2689
  179SOPE   H7X20454   3.084   1.846   7.784 -0.4229  0.6543 -1.0780
  179SOPE   H7Y20455   3.193   1.999   7.765  0.8326  0.0431 -0.4891
  179SOPE   C3820456   3.255   1.821   7.893  0.1235  0.3373  0.5436
  179SOPE   H8X20457   3.356   1.799   7.852  0.7012  3.3823  0.1216
  179SOPE   H8Y20458   3.204   1.725   7.917 -2.3505  1.6166  0.6997
  179SOPE   C3920459   3.268   1.905   8.021 -0.2281  0.5181  0.1784
  179SOPE   H9X20460   3.169   1.952   8.039 -0.6428 -0.1463 -0.3108
  179SOPE   H9Y20461   3.345   1.981   7.996 -2.0991  2.0368 -1.3084
  179SOPE  C31020462   3.305   1.826   8.138 -0.0010 -0.1257  0.0253
  179SOPE  H10X20463   3.405   1.779   8.135 -0.8875 -2.2749  1.5886
  179SOPE  H10Y20464   3.241   1.737   8.156  1.0826 -0.9513 -0.0920
  179SOPE  C31120465   3.301   1.907   8.265  0.4419  0.2390 -0.3773
  179SOPE  H11X20466   3.209   1.966   8.282 -0.2520  0.0053 -2.9123
  179SOPE  H11Y20467   3.381   1.984   8.258  0.7228 -0.0169 -0.0225
  179SOPE  C31220468   3.326   1.825   8.395 -0.9588  0.2058 -0.4140
  179SOPE  H12X20469   3.350   1.901   8.472 -1.4913 -1.0596  1.0412
  179SOPE  H12Y20470   3.421   1.772   8.373  0.1379  1.1002  1.8664
  179SOPE  C31320471   3.217   1.730   8.434  0.1627  0.0213  0.8181
  179SOPE  H13X20472   3.189   1.653   8.359 -2.7591 -0.2287  2.0201
  179SOPE  H13Y20473   3.122   1.788   8.439 -0.5690 -1.1215  0.7350
  179SOPE  C31420474   3.243   1.638   8.557  0.0636 -0.8743 -0.3887
  179SOPE  H14X20475   3.257   1.699   8.648 -0.3046  0.0693 -0.9513
  179SOPE  H14Y20476   3.331   1.570   8.548  1.2672  0.3415  1.5122
  179SOPE  C31520477   3.124   1.542   8.578  0.0969 -0.1555 -0.3004
  179SOPE  H15X20478   3.106   1.485   8.485  1.0518 -0.8736 -0.0535
  179SOPE  H15Y20479   3.040   1.607   8.612  0.7691  0.1200  0.9057
  179SOPE  C31620480   3.161   1.445   8.689 -0.2311  0.2290 -0.4771
  179SOPE  H16X20481   3.212   1.507   8.766  1.5841  0.1054 -1.5163
  179SOPE  H16Y20482   3.225   1.363   8.649 -1.9046 -1.3971  0.0278
  179SOPE  C31720483   3.047   1.365   8.750  0.3485 -0.6344 -0.0416
  179SOPE  H17X20484   2.985   1.440   8.804 -1.0662 -1.5049 -0.4005
  179SOPE  H17Y20485   3.084   1.285   8.818  2.9459  0.3447 -0.1960
  179SOPE  C31820486   2.955   1.299   8.645  0.2136  0.9209 -0.1502
  179SOPE  H18X20487   2.911   1.217   8.705  1.7821  0.4893  0.4811
  179SOPE  H18Y20488   3.022   1.255   8.568  1.1536 -1.0109  1.6852
  179SOPE  H18Z20489   2.884   1.366   8.591 -2.2174 -1.7792 -0.5316
  180SOPE     N20490   4.264   0.775   6.065 -0.0678  0.7334 -0.3434
  180SOPE   HN120491   4.174   0.749   6.019 -0.4097  1.6070 -0.1842
  180SOPE   HN220492   4.303   0.844   5.998 -2.2736  1.2031 -1.2208
  180SOPE   HN320493   4.320   0.687   6.064 -0.8248  0.2341 -0.1581
  180SOPE   C1220494   4.238   0.820   6.202 -0.3206  0.3312 -0.0010
  180SOPE  H12A20495   4.199   0.924   6.188 -0.2690  0.3092 -0.3162
  180SOPE  H12B20496   4.336   0.832   6.252  0.3251  1.3914 -1.4373
  180SOPE   C1120497   4.145   0.732   6.285 -0.0664 -0.0846 -0.4396
  180SOPE  H11A20498   4.134   0.787   6.381 -1.6799  1.1171 -1.2480
  180SOPE  H11B20499   4.205   0.640   6.300 -0.7040 -0.4330  0.0547
  180SOPE     P20500   3.950   0.570   6.268  0.2677  0.0434  0.0640
  180SOPE   O1320501   4.013   0.461   6.190  0.1684 -0.1172 -0.1905
  180SOPE   O1420502   3.808   0.583   6.246  0.2248  0.1184  0.1909
  180SOPE   O1220503   4.012   0.712   6.237 -0.0522 -0.5717 -0.2208
  180SOPE   O1120504   3.963   0.543   6.425  0.0503 -0.7959  0.7206
  180SOPE    C120505   3.889   0.615   6.526 -0.7000  0.6058 -0.3151
  180SOPE    HA20506   3.826   0.697   6.487 -1.6257  0.9800  1.8595
  180SOPE    HB20507   3.956   0.665   6.599 -2.0842  0.0221  1.4509
  180SOPE    C220508   3.807   0.521   6.608 -0.2869  0.3899 -0.5642
  180SOPE    HS20509   3.756   0.582   6.686 -0.5513 -0.1061 -0.3420
  180SOPE   O2120510   3.888   0.412   6.653 -0.4927 -0.1554  0.3065
  180SOPE   C2120511   3.868   0.375   6.771 -0.0082  0.2719  0.0682
  180SOPE   O2220512   3.789   0.430   6.847  0.0295  0.3143  0.0211
  180SOPE   C2220513   3.961   0.253   6.800 -0.3711  0.1518  0.4902
  180SOPE   H2R20514   4.056   0.281   6.751 -0.7859  1.5420  0.4509
  180SOPE   H2S20515   3.930   0.172   6.731  0.5238  0.9029 -0.8408
  180SOPE    C320516   3.687   0.453   6.533  0.3364  0.2356  0.5441
  180SOPE    HX20517   3.730   0.421   6.436  0.4970  0.6188  0.4874
  180SOPE    HY20518   3.621   0.535   6.498 -0.2612 -0.0854  0.9025
  180SOPE   O3120519   3.613   0.345   6.602  0.4238 -0.1940 -0.5575
  180SOPE   C3120520   3.610   0.225   6.538 -0.0359 -0.4551 -0.0799
  180SOPE   O3220521   3.663   0.208   6.430 -0.0094 -0.0698 -0.4541
  180SOPE   C3220522   3.526   0.125   6.608 -0.5681  0.5264  0.0929
  180SOPE   H2X20523   3.432   0.115   6.549 -0.9422 -0.7829  0.8671
  180SOPE   H2Y20524   3.495   0.173   6.703  0.5264  0.1652  0.6548
  180SOPE   C2320525   3.992   0.206   6.946 -0.1804 -0.7504 -1.1056
  180SOPE   H3R20526   4.052   0.280   7.003 -3.0923  0.5413  0.4625
  180SOPE   H3S20527   4.043   0.108   6.935  1.7018 -0.1320  1.4000
  180SOPE   C2420528   3.863   0.166   7.020  0.2171 -0.0064 -0.5310
  180SOPE   H4R20529   3.790   0.248   7.037 -1.7037 -1.6472 -0.4455
  180SOPE   H4S20530   3.811   0.089   6.958 -0.4631 -0.4838  0.6003
  180SOPE   C2520531   3.891   0.107   7.156  0.8708  0.8668 -0.4768
  180SOPE   H5R20532   3.800   0.048   7.179  2.0304 -0.3760  1.1447
  180SOPE   H5S20533   3.970   0.030   7.157 -0.1027 -0.1684  1.0764
  180SOPE   C2620534   3.913   0.208   7.270 -0.0814 -0.3117 -0.6187
  180SOPE   H6R20535   4.008   0.261   7.246 -0.8010  1.3903  0.1817
  180SOPE   H6S20536   3.828   0.279   7.276 -1.5587 -1.8769 -2.1134
  180SOPE   C2720537   3.935   0.129   7.409 -0.2533 -0.1916  0.1189
  180SOPE   H7R20538   3.840   0.077   7.434 -0.9404  0.1633 -1.6095
  180SOPE   H7S20539   4.018   0.060   7.382  1.7007  1.0593  2.5558
  180SOPE   C2820540   3.994   0.215   7.520 -0.1840  0.1037 -0.9532
  180SOPE   H8R20541   4.065   0.146   7.570 -1.6330 -2.7975 -2.6024
  180SOPE   H8S20542   4.051   0.296   7.469 -0.2655  1.0014  0.3472
  180SOPE   C2920543   3.881   0.251   7.612 -0.2955 -0.3216 -0.0705
  180SOPE   H9120544   3.781   0.255   7.568  0.3317 -1.7312 -1.7753
  180SOPE  C21020545   3.897   0.268   7.743 -0.0936  0.6335  0.1023
  180SOPE  H10120546   3.810   0.284   7.810  0.9787  0.2369  1.6424
  180SOPE  C21120547   4.029   0.266   7.819  0.4558 -0.4086 -0.5643
  180SOPE  H11R20548   4.033   0.344   7.898 -1.4869 -1.1186  0.2927
  180SOPE  H11S20549   4.112   0.277   7.746 -0.6109  0.0142 -1.7640
  180SOPE  C21220550   4.054   0.147   7.911  0.6194  0.5053 -0.7432
  180SOPE  H12R20551   4.049   0.049   7.858  1.2623 -0.8547  1.5983
  180SOPE  H12S20552   3.970   0.141   7.984 -0.0890  0.5990 -1.5340
  180SOPE  C21320553   4.188   0.137   7.984  0.4878  0.3643  0.2876
  180SOPE  H13R20554   4.188   0.222   8.056  2.2124  0.9103 -0.3057
  180SOPE  H13S20555   4.276   0.124   7.918  0.0290 -1.0699 -0.0643
  180SOPE  C21420556   4.182   0.009   8.063  0.1413 -0.0048  0.3995
  180SOPE  H14R20557   4.286  -0.028   8.077  0.7370  2.0784  2.1473
  180SOPE  H14S20558   4.147  -0.068   7.992 -1.7000  2.5687 -1.6480
  180SOPE  C21520559   4.107  -0.000   8.204  0.5531  0.0628 -0.5182
  180SOPE  H15R20560   4.005   0.029   8.173  0.9244  1.0451 -0.8447
  180SOPE  H15S20561   4.148   0.071   8.280 -0.1056 -0.0446 -0.0538
  180SOPE  C21620562   4.099  -0.142   8.265 -0.4091 -1.3373 -0.1903
  180SOPE  H16R20563   4.200  -0.188   8.264  0.8320  1.2356 -1.0121
  180SOPE  H16S20564   4.048  -0.216   8.198 -2.0313 -1.7524  1.4225
  180SOPE  C21720565   4.025  -0.146   8.399 -0.0765 -0.8070 -1.1116
  180SOPE  H17R20566   3.916  -0.132   8.383 -0.4801 -1.2580  1.0411
  180SOPE  H17S20567   4.066  -0.056   8.450 -2.2310 -0.3549 -0.0691
  180SOPE  C21820568   4.052  -0.269   8.479  0.1112  0.1451 -0.3684
  180SOPE  H18R20569   4.158  -0.279   8.508  0.5867  0.1038 -2.0363
  180SOPE  H18S20570   4.012  -0.360   8.429 -3.1323  1.0317  0.3627
  180SOPE  H18T20571   3.991  -0.256   8.572  2.6738 -0.1973  1.4642
  180SOPE   C3320572   3.600  -0.017   6.628  0.3144  0.2260 -0.3253
  180SOPE   H3X20573   3.669  -0.017   6.715 -0.7365 -0.8155  0.5271
  180SOPE   H3Y20574   3.655  -0.063   6.542  0.3379  0.4162 -0.4130
  180SOPE   C3420575   3.492  -0.123   6.652  0.0745 -0.2041  1.0488
  180SOPE   H4X20576   3.530  -0.227   6.651 -2.0787 -1.0400 -0.2154
  180SOPE   H4Y20577   3.424  -0.114   6.565  2.4348 -1.5001 -1.0548
  180SOPE   C3520578   3.402  -0.113   6.777 -0.7831  0.1489 -0.4835
  180SOPE   H5X20579   3.344  -0.208   6.774 -2.2106  0.8918  1.5587
  180SOPE   H5Y20580   3.338  -0.025   6.758 -1.3499 -0.7055 -2.8447
  180SOPE   C3620581   3.479  -0.124   6.906 -0.0031  0.0518 -0.0278
  180SOPE   H6X20582   3.557  -0.046   6.907  0.5547 -0.4018  2.8726
  180SOPE   H6Y20583   3.538  -0.218   6.913 -0.3402 -0.3259 -1.8072
  180SOPE   C3720584   3.382  -0.115   7.028  0.1397 -0.3206 -0.1142
  180SOPE   H7X20585   3.324  -0.209   7.040  0.7674 -0.7854 -0.6571
  180SOPE   H7Y20586   3.314  -0.030   7.005  1.3378  0.3719 -1.2556
  180SOPE   C3820587   3.468  -0.081   7.152  0.0360 -0.2715 -0.1622
  180SOPE   H8X20588   3.537   0.005   7.137 -0.5595  0.0571 -1.1218
  180SOPE   H8Y20589   3.543  -0.164   7.154  1.9256  1.3746  0.5827
  180SOPE   C3920590   3.388  -0.084   7.286  0.2993 -0.7777  0.1513
  180SOPE   H9X20591   3.323  -0.173   7.288 -1.3246  0.3883  1.6782
  180SOPE   H9Y20592   3.323   0.006   7.285 -0.3119 -1.2138 -0.9902
  180SOPE  C31020593   3.472  -0.075   7.409 -0.6367 -0.0158 -0.5234
  180SOPE  H10X20594   3.547   0.007   7.395 -1.3882  0.4879 -1.7176
  180SOPE  H10Y20595   3.528  -0.169   7.431 -1.6144 -0.7224 -0.9946
  180SOPE  C31120596   3.398  -0.040   7.546  0.2108  0.3533  0.0330
  180SOPE  H11X20597   3.311  -0.109   7.545  0.6002 -0.2261  2.2782
  180SOPE  H11Y20598   3.348   0.057   7.525 -1.1208 -0.6730 -1.8673
  180SOPE  C31220599   3.502  -0.053   7.650  0.0764 -0.6268 -0.9138
  180SOPE  H12X20600   3.580   0.025   7.635 -1.6384  1.6086  0.9581
  180SOPE  H12Y20601   3.541  -0.157   7.646 -0.5756 -0.8596 -1.3480
  180SOPE  C31320602   3.458  -0.019   7.793 -0.1597 -0.4859 -1.6411
  180SOPE  H13X20603   3.412   0.082   7.793 -1.3093 -0.9859 -2.8390
  180SOPE  H13Y20604   3.539  -0.020   7.869  0.1790 -0.6522 -2.0009
  180SOPE  C31420605   3.367  -0.119   7.865  0.1344  0.0320  0.5122
  180SOPE  H14X20606   3.423  -0.211   7.894 -1.2496 -0.8201  0.5936
  180SOPE  H14Y20607   3.276  -0.145   7.807  0.7476  0.4882 -0.6678
  180SOPE  C31520608   3.323  -0.058   8.002  0.1895 -0.6066  0.3435
  180SOPE  H15X20609   3.260   0.033   7.984 -0.3672 -0.8932  0.8296
  180SOPE  H15Y20610   3.409  -0.013   8.056 -1.5980  2.8335  0.6352
  180SOPE  C31620611   3.233  -0.160   8.075  0.6886  0.4436  0.0410
  180SOPE  H16X20612   3.278  -0.261   8.066 -0.8826 -0.4816  1.8527
  180SOPE  H16Y20613   3.130  -0.146   8.036 -0.0677  0.8188  2.0137
  180SOPE  C31720614   3.240  -0.127   8.227  0.4164 -0.3678  0.7755
  180SOPE  H17X20615   3.192  -0.028   8.242  0.1756 -0.7156  2.4747
  180SOPE  H17Y20616   3.349  -0.116   8.246  0.4449  0.3510  0.2119
  180SOPE  C31820617   3.173  -0.225   8.321  0.4493 -0.1814 -0.4981
  180SOPE  H18X20618   3.166  -0.176   8.420  2.2694 -0.1696 -0.3468
  180SOPE  H18Y20619   3.242  -0.310   8.337  0.4574 -0.0363  0.2365
  180SOPE  H18Z20620   3.076  -0.272   8.296 -0.2972 -0.2830  2.3191
  181SOPE     N20621   4.592   6.398   5.841 -0.4612  0.2861  0.0537
  181SOPE   HN120622   4.647   6.450   5.770  0.5025  0.1781  0.6926
  181SOPE   HN220623   4.573   6.444   5.933  0.9332 -1.6334  1.4095
  181SOPE   HN320624   4.654   6.318   5.868  2.6915  2.3688 -0.5182
  181SOPE   C1220625   4.460   6.336   5.808  0.1203  0.1532  0.0460
  181SOPE  H12A20626   4.482   6.246   5.746  0.1651 -0.1956  0.5649
  181SOPE  H12B20627   4.398   6.411   5.754  1.2186  1.3572  0.4423
  181SOPE   C1120628   4.381   6.308   5.934  0.6573  0.5518 -0.4748
  181SOPE  H11A20629   4.440   6.243   6.004 -0.3389 -0.4371 -0.5194
  181SOPE  H11B20630   4.301   6.241   5.895  3.5546 -1.9728 -2.6457
  181SOPE     P20631   4.417   6.510   6.116  0.0346  0.2989  0.4317
  181SOPE   O1320632   4.348   6.633   6.150 -0.3339 -0.0643 -0.9883
  181SOPE   O1420633   4.557   6.521   6.074 -0.1411 -0.6766 -0.6571
  181SOPE   O1220634   4.337   6.429   5.999 -0.6793  0.3289 -0.0872
  181SOPE   O1120635   4.407   6.417   6.244  0.3342  0.2458  0.3207
  181SOPE    C120636   4.288   6.336   6.253 -0.1965 -0.7086  0.5220
  181SOPE    HA20637   4.316   6.242   6.200 -0.7180 -0.7657  0.3382
  181SOPE    HB20638   4.199   6.373   6.197  0.7390 -0.4460 -0.8461
  181SOPE    C220639   4.234   6.312   6.393 -1.2401  0.5840  0.2657
  181SOPE    HS20640   4.155   6.234   6.397 -0.4416 -0.2550  0.0732
  181SOPE   O2120641   4.180   6.426   6.458  0.5649 -0.4828 -0.0527
  181SOPE   C2120642   4.071   6.471   6.404  0.4082  0.1547  0.1534
  181SOPE   O2220643   3.997   6.405   6.331  0.1592 -0.0345  0.3202
  181SOPE   C2220644   4.042   6.613   6.439 -0.2352  0.5942 -0.1158
  181SOPE   H2R20645   3.997   6.671   6.355 -1.5034  0.3967  0.3911
  181SOPE   H2S20646   4.142   6.651   6.467 -0.9894  1.1368  2.0311
  181SOPE    C320647   4.339   6.244   6.487 -0.2040 -0.8589  0.0060
  181SOPE    HX20648   4.442   6.285   6.491 -1.0993  1.5910 -0.5941
  181SOPE    HY20649   4.351   6.140   6.449 -2.2458 -0.0317 -3.2881
  181SOPE   O3120650   4.293   6.235   6.625  0.1567 -0.8784 -0.0165
  181SOPE   C3120651   4.194   6.165   6.655  0.2575 -0.0571 -0.5675
  181SOPE   O3220652   4.130   6.092   6.581  0.2315  0.7785  0.4190
  181SOPE   C3220653   4.159   6.183   6.806  0.6886 -0.1442  0.1103
  181SOPE   H2X20654   4.073   6.116   6.825 -0.7492  2.0832  1.9829
  181SOPE   H2Y20655   4.099   6.276   6.807 -0.2352 -0.7358  0.8106
  181SOPE   C2320656   3.942   6.625   6.554  0.0996 -0.3100  0.4570
  181SOPE   H3R20657   3.852   6.568   6.522  0.1139  0.1252 -0.3698
  181SOPE   H3S20658   3.909   6.728   6.576 -0.7906 -0.6229  0.6033
  181SOPE   C2420659   3.994   6.569   6.689 -0.1977 -0.1995  0.7333
  181SOPE   H4R20660   4.062   6.483   6.675  0.3476  0.3897 -0.4941
  181SOPE   H4S20661   4.065   6.647   6.725 -2.0949  2.5789 -1.0718
  181SOPE   C2520662   3.888   6.567   6.793 -0.8109 -0.4854 -0.3721
  181SOPE   H5R20663   3.833   6.664   6.801 -1.7211 -0.9944 -0.3515
  181SOPE   H5S20664   3.815   6.489   6.762 -4.4561  1.3200  2.7700
  181SOPE   C2620665   3.948   6.536   6.933 -0.3359  0.7692  0.4980
  181SOPE   H6R20666   4.000   6.438   6.928  0.7471  1.2877  1.2276
  181SOPE   H6S20667   4.026   6.608   6.966  0.6094 -0.2817  0.6298
  181SOPE   C2720668   3.839   6.528   7.044 -0.0345  0.0110 -0.9669
  181SOPE   H7R20669   3.809   6.633   7.066 -1.3062 -0.5087 -0.0777
  181SOPE   H7S20670   3.754   6.479   6.993  1.2474 -0.4961 -2.7067
  181SOPE   C2820671   3.886   6.451   7.166  0.2089 -0.9356  0.5902
  181SOPE   H8R20672   3.908   6.346   7.137  2.2722 -0.6406  0.9479
  181SOPE   H8S20673   3.983   6.491   7.202  0.6854  0.3500 -1.8674
  181SOPE   C2920674   3.785   6.456   7.276  0.6185  0.0925  0.2497
  181SOPE   H9120675   3.686   6.445   7.229  0.8827 -1.6469  0.0154
  181SOPE  C21020676   3.806   6.476   7.410 -0.1465 -0.2471 -0.0585
  181SOPE  H10120677   3.720   6.473   7.479  1.3035  2.8542  2.1247
  181SOPE  C21120678   3.942   6.503   7.470 -0.4115 -0.1628 -0.0673
  181SOPE  H11R20679   3.985   6.600   7.438  1.6292 -1.3490 -1.1582
  181SOPE  H11S20680   4.012   6.419   7.450 -0.7816 -0.6476  0.6399
  181SOPE  C21220681   3.950   6.503   7.620 -0.4638  0.0912 -0.4473
  181SOPE  H12R20682   4.054   6.511   7.659 -1.0719  0.6090  1.1149
  181SOPE  H12S20683   3.912   6.401   7.643 -2.0035  0.5575 -0.7989
  181SOPE  C21320684   3.871   6.615   7.687 -0.6850 -0.1567 -1.0520
  181SOPE  H13R20685   3.780   6.636   7.626 -0.6370  1.8544 -0.4965
  181SOPE  H13S20686   3.920   6.712   7.711 -1.5488 -0.5326  2.9689
  181SOPE  C21420687   3.828   6.577   7.833 -0.0984 -0.0814 -0.0371
  181SOPE  H14R20688   3.781   6.665   7.881 -0.1814 -1.0902  1.8157
  181SOPE  H14S20689   3.920   6.549   7.888 -0.3733  0.1863  0.5631
  181SOPE  C21520690   3.728   6.457   7.847  0.0684  0.0727  0.5324
  181SOPE  H15R20691   3.772   6.357   7.826  0.7879  0.3634  0.6358
  181SOPE  H15S20692   3.637   6.475   7.786 -0.4116  1.5845  1.6333
  181SOPE  C21620693   3.680   6.438   7.990 -0.4993 -0.5566 -0.7848
  181SOPE  H16R20694   3.606   6.356   7.999  1.2153 -2.1203 -0.5823
  181SOPE  H16S20695   3.636   6.535   8.024  0.0339 -0.6463  0.1927
  181SOPE  C21720696   3.797   6.386   8.087  0.0908 -0.0522  0.1629
  181SOPE  H17R20697   3.881   6.458   8.076 -0.1171 -0.1342 -2.8105
  181SOPE  H17S20698   3.825   6.282   8.060 -1.0716  0.1438 -1.9790
  181SOPE  C21820699   3.743   6.379   8.235  0.6570 -0.0554 -0.2920
  181SOPE  H18R20700   3.716   6.482   8.266  3.1959 -0.6253  4.8601
  181SOPE  H18S20701   3.825   6.342   8.300  1.0429 -0.6058 -1.0662
  181SOPE  H18T20702   3.651   6.317   8.237  0.3562  0.4028  0.6520
  181SOPE   C3320703   4.273   6.182   6.910 -0.0449  0.2672 -0.0089
  181SOPE   H3X20704   4.369   6.221   6.869  0.3238 -1.3007 -0.7477
  181SOPE   H3Y20705   4.284   6.075   6.939 -2.0793 -0.1240 -0.5206
  181SOPE   C3420706   4.229   6.251   7.041 -0.3828  0.1924  0.1077
  181SOPE   H4X20707   4.119   6.261   7.051 -0.1603  2.1153  1.3065
  181SOPE   H4Y20708   4.258   6.358   7.034  0.1527  0.1652  1.5361
  181SOPE   C3520709   4.289   6.186   7.163 -0.4864  0.1185  0.0488
  181SOPE   H5X20710   4.399   6.202   7.166 -0.8569  3.8200 -0.6414
  181SOPE   H5Y20711   4.276   6.076   7.163  2.7139 -0.3656 -1.0230
  181SOPE   C3620712   4.230   6.244   7.289  0.0225  0.0867 -0.7336
  181SOPE   H6X20713   4.121   6.235   7.275 -0.0337  0.5110 -0.5891
  181SOPE   H6Y20714   4.260   6.350   7.301  0.1075  0.1639 -1.5491
  181SOPE   C3720715   4.283   6.163   7.403  0.0272 -0.6809 -0.8615
  181SOPE   H7X20716   4.388   6.131   7.387  0.1715  0.2840 -1.9612
  181SOPE   H7Y20717   4.213   6.077   7.403  1.3875 -1.8218 -1.5707
  181SOPE   C3820718   4.278   6.239   7.532  0.4877  0.2952 -0.5230
  181SOPE   H8X20719   4.177   6.285   7.541  0.2983 -0.1985 -0.0779
  181SOPE   H8Y20720   4.351   6.323   7.537  0.6287  0.1345  0.2245
  181SOPE   C3920721   4.287   6.156   7.654 -0.1320 -0.5654  0.2831
  181SOPE   H9X20722   4.392   6.141   7.686  0.0843  0.3573  0.0541
  181SOPE   H9Y20723   4.235   6.059   7.663 -2.3905  0.3804 -1.6987
  181SOPE  C31020724   4.215   6.233   7.766  0.0179  0.3704  0.3750
  181SOPE  H10X20725   4.112   6.245   7.726 -0.4665  0.3328  1.5689
  181SOPE  H10Y20726   4.258   6.334   7.782  0.7628 -0.1866  2.1841
  181SOPE  C31120727   4.235   6.173   7.908 -0.6549 -0.0952 -0.1132
  181SOPE  H11X20728   4.345   6.172   7.925 -0.4714  0.0355 -1.1978
  181SOPE  H11Y20729   4.202   6.068   7.918  1.0449 -0.7262 -0.6703
  181SOPE  C31220730   4.174   6.271   8.013  0.2289  0.2596  0.2116
  181SOPE  H12X20731   4.065   6.251   8.011 -0.0032  1.4604 -0.9836
  181SOPE  H12Y20732   4.186   6.376   7.978  1.7078 -0.1963 -0.7325
  181SOPE  C31320733   4.237   6.251   8.154 -0.1301 -0.5100  0.3662
  181SOPE  H13X20734   4.204   6.333   8.221  1.3722  1.4164 -1.1494
  181SOPE  H13Y20735   4.347   6.262   8.140 -0.0418  1.8016  2.2401
  181SOPE  C31420736   4.205   6.117   8.222  0.1879  0.0550  0.2121
  181SOPE  H14X20737   4.256   6.030   8.176 -0.0351 -1.4283  2.6228
  181SOPE  H14Y20738   4.095   6.102   8.225  0.0259  0.5952 -1.7599
  181SOPE  C31520739   4.251   6.111   8.371  0.1389  0.4832 -0.6955
  181SOPE  H15X20740   4.234   6.006   8.404  3.0711 -0.9743 -3.3197
  181SOPE  H15Y20741   4.183   6.178   8.428  1.2201  0.2777  0.9213
  181SOPE  C31620742   4.396   6.130   8.402 -0.3541 -0.3601  0.2084
  181SOPE  H16X20743   4.419   6.230   8.360  0.9632  0.7222  3.2353
  181SOPE  H16Y20744   4.457   6.054   8.349 -1.1629 -0.3774 -0.7273
  181SOPE  C31720745   4.423   6.125   8.547  0.8535 -0.2960 -0.3484
  181SOPE  H17X20746   4.526   6.156   8.573  0.3216  0.5277  0.8966
  181SOPE  H17Y20747   4.418   6.017   8.572  0.2495 -0.0067  0.8817
  181SOPE  C31820748   4.335   6.212   8.634  0.3879 -0.8710 -0.2872
  181SOPE  H18X20749   4.368   6.200   8.739  0.9548  1.5155 -0.1456
  181SOPE  H18Y20750   4.227   6.187   8.643  0.2177  0.3481  1.5379
  181SOPE  H18Z20751   4.344   6.320   8.608  2.7450 -1.1481 -0.8464
  182SOPE     N20752   0.941   1.242   6.419  0.0145  0.1793 -0.0153
  182SOPE   HN120753   1.043   1.257   6.405  0.4423 -0.4267  2.0958
  182SOPE   HN220754   0.921   1.162   6.357  3.2887 -1.6937  1.0814
  182SOPE   HN320755   0.882   1.323   6.392 -2.2371 -1.2545  0.3446
  182SOPE   C1220756   0.910   1.210   6.569 -0.6181 -0.0788 -0.3399
  182SOPE  H12A20757   0.955   1.296   6.624 -0.9242 -0.3050  0.2816
  182SOPE  H12B20758   0.957   1.114   6.600  0.6715  0.7441  0.3636
  182SOPE   C1120759   0.759   1.206   6.602  0.3679 -0.0295 -0.5333
  182SOPE  H11A20760   0.717   1.296   6.552  2.8348  1.5045 -0.0352
  182SOPE  H11B20761   0.755   1.216   6.712 -0.2427  0.5392 -0.5972
  182SOPE     P20762   0.542   1.058   6.525  0.4989  0.3338 -0.0725
  182SOPE   O1320763   0.538   0.914   6.480 -0.0141  0.5831  0.0378
  182SOPE   O1420764   0.480   1.159   6.439  0.0902  0.0989 -0.1296
  182SOPE   O1220765   0.693   1.084   6.547 -0.1154 -0.4317  0.1462
  182SOPE   O1120766   0.481   1.079   6.668 -0.2428  0.6550  0.4089
  182SOPE    C120767   0.427   0.986   6.766 -0.2359  0.3313 -0.0378
  182SOPE    HA20768   0.385   0.893   6.722 -1.4797  0.6386  0.4769
  182SOPE    HB20769   0.354   1.044   6.826 -1.4456  1.4272 -2.4525
  182SOPE    C220770   0.535   0.927   6.862 -0.0485 -0.2260 -1.0194
  182SOPE    HS20771   0.604   0.868   6.798 -1.0677 -1.4643 -1.0274
  182SOPE   O2120772   0.464   0.844   6.956 -0.0954  0.1090  0.4041
  182SOPE   C2120773   0.530   0.739   6.999  0.2750  0.5833  0.3090
  182SOPE   O2220774   0.640   0.706   6.956 -0.1307  0.4979  0.0516
  182SOPE   C2220775   0.441   0.658   7.088 -0.3103  0.0439 -0.5721
  182SOPE   H2R20776   0.363   0.615   7.021  0.0624  0.6062 -1.3799
  182SOPE   H2S20777   0.402   0.726   7.166  1.6077 -0.0303  0.5211
  182SOPE    C320778   0.610   1.044   6.933  0.3550 -0.6290  0.5528
  182SOPE    HX20779   0.533   1.120   6.958  1.0021  0.6541 -1.1135
  182SOPE    HY20780   0.680   1.093   6.862 -1.2005  2.0699  0.7096
  182SOPE   O3120781   0.683   1.010   7.054 -0.7076  0.7236  0.2861
  182SOPE   C3120782   0.809   0.967   7.036  1.3796 -0.2867 -0.3643
  182SOPE   O3220783   0.863   0.965   6.928 -0.6899  0.5947  0.2898
  182SOPE   C3220784   0.875   0.925   7.169  0.2787 -0.6287  0.0131
  182SOPE   H2X20785   0.974   0.976   7.164 -0.7267  1.3656 -0.7725
  182SOPE   H2Y20786   0.870   0.814   7.172 -2.5931 -0.7506 -3.1117
  182SOPE   C2320787   0.521   0.545   7.162 -1.1912  0.5086 -0.1827
  182SOPE   H3R20788   0.587   0.499   7.086  0.4377  2.6645 -0.1425
  182SOPE   H3S20789   0.442   0.468   7.176 -0.2597 -0.3439  0.4985
  182SOPE   C2420790   0.594   0.585   7.293  0.3839  0.7060  0.3240
  182SOPE   H4R20791   0.657   0.499   7.326  0.2105  1.2597  2.1922
  182SOPE   H4S20792   0.661   0.673   7.281 -0.0504  0.7032 -3.1585
  182SOPE   C2520793   0.490   0.614   7.400 -1.0268  0.0319  0.2675
  182SOPE   H5R20794   0.428   0.704   7.378  0.6188  1.1424  0.0025
  182SOPE   H5S20795   0.416   0.532   7.400 -1.2539  0.1993  1.9444
  182SOPE   C2620796   0.548   0.606   7.540  0.4276 -0.3292 -0.1259
  182SOPE   H6R20797   0.588   0.502   7.542 -0.4325 -0.7142 -1.4734
  182SOPE   H6S20798   0.633   0.672   7.566 -1.1027  0.4725  3.5558
  182SOPE   C2720799   0.442   0.639   7.643  0.6675  0.3893 -0.6605
  182SOPE   H7R20800   0.409   0.742   7.617 -3.5101 -0.2471  1.3348
  182SOPE   H7S20801   0.347   0.583   7.629  0.1948  0.8357  0.6126
  182SOPE   C2820802   0.495   0.646   7.787  0.3698  0.0770 -0.1258
  182SOPE   H8R20803   0.581   0.715   7.796 -1.3230  2.4448 -1.1517
  182SOPE   H8S20804   0.419   0.687   7.856  1.6960  0.3915  1.2129
  182SOPE   C2920805   0.537   0.510   7.834  0.8068 -0.1538  0.0801
  182SOPE   H9120806   0.626   0.469   7.784 -0.2525 -1.8270 -0.5181
  182SOPE  C21020807   0.478   0.433   7.923  0.7346  0.6489  0.0828
  182SOPE  H10120808   0.516   0.333   7.947 -0.6949 -0.3424 -1.5856
  182SOPE  C21120809   0.356   0.460   8.014 -0.8244  0.0010 -0.1723
  182SOPE  H11R20810   0.287   0.373   8.016  1.3788 -1.8580  2.3930
  182SOPE  H11S20811   0.301   0.555   7.999  0.8909  1.2580  1.0158
  182SOPE  C21220812   0.405   0.482   8.152  0.1207 -0.8217  0.0251
  182SOPE  H12R20813   0.464   0.395   8.186  0.2636 -1.5026 -1.8188
  182SOPE  H12S20814   0.329   0.505   8.229 -0.7708  0.9149 -1.3010
  182SOPE  C21320815   0.496   0.608   8.158 -0.8117 -0.0384 -0.2585
  182SOPE  H13R20816   0.448   0.680   8.089  0.1853  0.6927 -0.1995
  182SOPE  H13S20817   0.594   0.578   8.115 -2.2711  0.3221 -4.2221
  182SOPE  C21420818   0.506   0.681   8.295 -0.7091 -0.9815 -0.2493
  182SOPE  H14R20819   0.523   0.593   8.360 -1.6901 -0.9030  0.1267
  182SOPE  H14S20820   0.404   0.725   8.308 -0.6039 -1.1479  1.3056
  182SOPE  C21520821   0.618   0.782   8.282 -0.3283 -0.2853  0.4090
  182SOPE  H15R20822   0.588   0.861   8.210  0.0098 -0.6564 -0.1483
  182SOPE  H15S20823   0.706   0.742   8.228 -0.4900 -0.0742 -0.0127
  182SOPE  C21620824   0.666   0.862   8.404  0.3098 -0.4714 -0.8473
  182SOPE  H16R20825   0.743   0.931   8.364  0.9896 -0.1074  0.9969
  182SOPE  H16S20826   0.712   0.800   8.484 -0.5658  1.3300  1.1660
  182SOPE  C21720827   0.551   0.947   8.469 -0.5577 -0.7459  0.0941
  182SOPE  H17R20828   0.588   0.986   8.566  0.2293 -2.5569  0.5669
  182SOPE  H17S20829   0.469   0.875   8.488 -0.6718 -0.8742 -0.8249
  182SOPE  C21820830   0.493   1.060   8.383  0.0414  0.2259  0.1643
  182SOPE  H18R20831   0.430   1.021   8.300 -0.0892 -1.5157  1.0155
  182SOPE  H18S20832   0.574   1.121   8.339  0.0372 -1.1047 -1.8135
  182SOPE  H18T20833   0.424   1.111   8.454 -1.3585 -0.3613 -0.7170
  182SOPE   C3320834   0.806   0.976   7.303  0.2690 -0.0349  0.2738
  182SOPE   H3X20835   0.714   0.915   7.313  1.1912 -1.7825 -1.2241
  182SOPE   H3Y20836   0.790   1.086   7.311  2.2540  0.3916 -0.9656
  182SOPE   C3420837   0.883   0.939   7.434 -0.6272 -0.4692  0.3179
  182SOPE   H4X20838   0.980   0.992   7.446 -0.1280 -1.1955 -0.4250
  182SOPE   H4Y20839   0.897   0.829   7.428 -0.5494 -0.3810 -1.3766
  182SOPE   C3520840   0.792   0.975   7.550 -0.3871 -0.0320 -0.0801
  182SOPE   H5X20841   0.698   0.916   7.537 -1.2101  1.0362  0.8405
  182SOPE   H5Y20842   0.768   1.083   7.545  0.9119  0.2946  0.2515
  182SOPE   C3620843   0.852   0.931   7.689  0.3091 -0.3750 -0.3552
  182SOPE   H6X20844   0.946   0.985   7.715 -0.0803  0.2413 -0.1948
  182SOPE   H6Y20845   0.879   0.824   7.685  2.6631 -0.1785  4.2205
  182SOPE   C3720846   0.766   0.957   7.814  0.2135  0.1702 -0.0707
  182SOPE   H7X20847   0.663   0.950   7.773  0.3782  0.6983 -0.6054
  182SOPE   H7Y20848   0.783   1.065   7.833  4.5113 -0.2248 -0.6730
  182SOPE   C3820849   0.799   0.875   7.940  0.7682 -0.2095  0.2108
  182SOPE   H8X20850   0.756   0.777   7.908  2.8781 -1.0757 -0.1675
  182SOPE   H8Y20851   0.742   0.906   8.030 -0.4296 -0.1605 -0.5391
  182SOPE   C3920852   0.946   0.873   7.980  0.2653 -0.7400 -0.0617
  182SOPE   H9X20853   0.985   0.974   8.005  1.9310 -1.3988  0.1704
  182SOPE   H9Y20854   1.007   0.842   7.892  0.4266 -0.1876 -0.1441
  182SOPE  C31020855   0.973   0.780   8.102 -0.6617 -0.3873  0.7898
  182SOPE  H10X20856   0.912   0.689   8.083  0.7745 -1.0616 -0.7579
  182SOPE  H10Y20857   0.923   0.827   8.189  0.7833 -0.1962  1.5537
  182SOPE  C31120858   1.119   0.736   8.133  0.1125 -0.1179  0.4696
  182SOPE  H11X20859   1.184   0.826   8.139 -0.8284  0.4926  3.2862
  182SOPE  H11Y20860   1.164   0.683   8.046 -0.3218  1.5448 -0.8118
  182SOPE  C31220861   1.129   0.660   8.267  0.2790  0.0591  0.3998
  182SOPE  H12X20862   1.089   0.561   8.235 -0.2617  1.0425 -2.2902
  182SOPE  H12Y20863   1.058   0.705   8.340 -1.1814  0.4373 -1.1572
  182SOPE  C31320864   1.277   0.670   8.300 -0.5802  0.0245  0.1316
  182SOPE  H13X20865   1.287   0.776   8.332 -0.4185 -0.0138  0.2047
  182SOPE  H13Y20866   1.333   0.657   8.205 -1.7120 -0.2598 -0.5169
  182SOPE  C31420867   1.316   0.575   8.411 -0.0364 -0.0195 -0.6758
  182SOPE  H14X20868   1.268   0.478   8.385 -0.7409  0.2605 -0.4531
  182SOPE  H14Y20869   1.258   0.605   8.501 -0.3550 -2.6870  0.1089
  182SOPE  C31520870   1.462   0.577   8.449 -0.6435 -0.2315  0.6190
  182SOPE  H15X20871   1.510   0.677   8.453 -0.1911 -0.4256  0.1066
  182SOPE  H15Y20872   1.515   0.525   8.367  0.0581 -1.2836  1.6991
  182SOPE  C31620873   1.494   0.485   8.569  0.0322 -0.3376  0.5422
  182SOPE  H16X20874   1.604   0.466   8.573  0.1598  0.2274 -0.1746
  182SOPE  H16Y20875   1.439   0.388   8.574 -0.1188 -0.3280 -0.6990
  182SOPE  C31720876   1.471   0.551   8.703  0.2393 -0.4035 -0.3484
  182SOPE  H17X20877   1.381   0.617   8.706 -0.1537 -0.9581  0.3989
  182SOPE  H17Y20878   1.557   0.619   8.723  1.0748 -1.1307 -1.3904
  182SOPE  C31820879   1.475   0.456   8.832 -0.2897  0.4755 -0.4741
  182SOPE  H18X20880   1.429   0.357   8.812  1.9880 -0.7627 -0.0023
  182SOPE  H18Y20881   1.439   0.507   8.924 -1.9392 -2.6727  0.7739
  182SOPE  H18Z20882   1.578   0.429   8.865  0.2157  0.6810 -1.8399
  183SOPE     N20883   4.910   5.694   6.122  0.2433 -0.0890  0.1421
  183SOPE   HN120884   4.864   5.601   6.132  1.0718 -1.1381 -3.9564
  183SOPE   HN220885   5.008   5.695   6.088  0.1372  1.6794 -0.2418
  183SOPE   HN320886   4.918   5.741   6.215  0.7841  0.9671 -0.4160
  183SOPE   C1220887   4.828   5.774   6.028 -0.5579  0.2288  0.2304
  183SOPE  H12A20888   4.809   5.713   5.938 -0.2617  2.6417 -1.5682
  183SOPE  H12B20889   4.891   5.860   5.995  1.6100 -2.0261 -1.8908
  183SOPE   C1120890   4.693   5.826   6.088  0.5024 -0.6177  0.5615
  183SOPE  H11A20891   4.629   5.744   6.125 -0.3979 -0.3354 -0.3205
  183SOPE  H11B20892   4.647   5.853   5.990  0.9002  1.9271  0.9897
  183SOPE     P20893   4.580   6.022   6.225  0.2740 -0.0265 -0.4442
  183SOPE   O1320894   4.461   5.984   6.149  0.2788  0.6698 -0.0421
  183SOPE   O1420895   4.617   6.166   6.234 -0.2537  0.7818  0.0081
  183SOPE   O1220896   4.712   5.944   6.170 -0.3381  0.4080  0.8761
  183SOPE   O1120897   4.570   5.967   6.371  0.2647  0.1562  0.0537
  183SOPE    C120898   4.680   5.912   6.443  0.0945  0.7431 -0.3654
  183SOPE    HA20899   4.772   5.954   6.397 -0.4203 -0.1967 -2.3544
  183SOPE    HB20900   4.679   5.803   6.421  0.8254  0.3922  1.2273
  183SOPE    C220901   4.662   5.931   6.595  0.2598  0.4730  0.0766
  183SOPE    HS20902   4.752   5.885   6.641 -1.1180 -0.4843  1.9442
  183SOPE   O2120903   4.535   5.867   6.636  0.2164 -0.3175 -0.1198
  183SOPE   C2120904   4.536   5.738   6.634 -0.0910  0.7567 -0.1253
  183SOPE   O2220905   4.635   5.668   6.597  0.3978  0.0220  0.5140
  183SOPE   C2220906   4.406   5.679   6.689  0.7288 -0.0711 -0.2054
  183SOPE   H2R20907   4.338   5.650   6.605 -1.1210 -1.4084  1.6577
  183SOPE   H2S20908   4.353   5.765   6.735 -1.8402 -0.5649 -1.9925
  183SOPE    C320909   4.659   6.085   6.636  0.9211  0.6166 -0.3117
  183SOPE    HX20910   4.567   6.122   6.587  0.8295  2.4621  1.1065
  183SOPE    HY20911   4.751   6.129   6.591  1.1453  1.5445  0.9792
  183SOPE   O3120912   4.655   6.110   6.783 -0.5898 -0.1856 -0.1857
  183SOPE   C3120913   4.651   6.239   6.818 -0.3503  0.0026  0.1723
  183SOPE   O3220914   4.614   6.333   6.750 -0.1593 -0.4752  0.3661
  183SOPE   C3220915   4.689   6.251   6.968  0.1246  0.1581 -0.4145
  183SOPE   H2X20916   4.796   6.222   6.977 -0.3989 -1.2105  2.2766
  183SOPE   H2Y20917   4.635   6.171   7.023  0.9676 -0.7122 -0.8195
  183SOPE   C2320918   4.428   5.552   6.782 -0.0178 -0.6123  0.1765
  183SOPE   H3R20919   4.504   5.576   6.859 -0.7788 -0.5479  0.9135
  183SOPE   H3S20920   4.475   5.472   6.721 -0.1384 -0.0996 -0.6125
  183SOPE   C2420921   4.298   5.495   6.830  0.6011 -0.1855 -0.0971
  183SOPE   H4R20922   4.239   5.473   6.738  2.3541  2.1459 -1.9194
  183SOPE   H4S20923   4.318   5.406   6.894  0.6031  1.4130  2.2208
  183SOPE   C2520924   4.205   5.599   6.901  0.0663  0.4093  0.0945
  183SOPE   H5R20925   4.203   5.696   6.847  0.2081  0.4216  0.1110
  183SOPE   H5S20926   4.101   5.561   6.893  0.1875  0.4745 -2.3541
  183SOPE   C2620927   4.232   5.615   7.049 -0.3564  0.1796  0.1232
  183SOPE   H6R20928   4.252   5.519   7.101  3.7580  1.2482  0.9028
  183SOPE   H6S20929   4.323   5.672   7.079 -0.3785 -1.5450  4.1109
  183SOPE   C2720930   4.115   5.676   7.129 -0.2744  0.0646  0.1728
  183SOPE   H7R20931   4.104   5.779   7.089  0.2516  0.5086  1.1484
  183SOPE   H7S20932   4.024   5.615   7.109 -0.9384  0.2790  2.3716
  183SOPE   C2820933   4.128   5.688   7.282 -0.1612  0.3346 -0.1829
  183SOPE   H8R20934   4.201   5.766   7.311  1.4807 -1.0707 -0.3627
  183SOPE   H8S20935   4.036   5.724   7.333  0.7204  1.5138  0.6066
  183SOPE   C2920936   4.179   5.555   7.342 -0.3139  0.1247  0.1073
  183SOPE   H9120937   4.144   5.464   7.291 -0.1655  0.4951 -0.6630
  183SOPE  C21020938   4.249   5.544   7.455 -0.4259 -0.5562 -0.6500
  183SOPE  H10120939   4.273   5.450   7.508  2.9362  0.1943 -0.6282
  183SOPE  C21120940   4.289   5.663   7.551  0.7294  0.0900  0.5474
  183SOPE  H11R20941   4.235   5.756   7.521 -2.7661 -1.8679  0.3620
  183SOPE  H11S20942   4.399   5.680   7.551  0.5045  2.0025 -1.1157
  183SOPE  C21220943   4.254   5.649   7.701 -0.6081  0.1222 -0.7133
  183SOPE  H12R20944   4.319   5.579   7.758 -0.4502  1.4936  0.8842
  183SOPE  H12S20945   4.151   5.611   7.714 -0.6573  0.4706 -0.0332
  183SOPE  C21320946   4.261   5.778   7.778 -0.8425 -0.5285  0.0246
  183SOPE  H13R20947   4.186   5.837   7.721 -0.7382 -0.9851 -0.6017
  183SOPE  H13S20948   4.361   5.822   7.761 -1.8097  2.2072  0.8911
  183SOPE  C21420949   4.236   5.771   7.932  0.4662  0.5954 -0.0426
  183SOPE  H14R20950   4.141   5.715   7.944  1.9114 -1.7905  0.9772
  183SOPE  H14S20951   4.218   5.871   7.976  3.3256  0.7249  1.0047
  183SOPE  C21520952   4.344   5.699   8.018 -0.1117 -0.4179 -0.1866
  183SOPE  H15R20953   4.446   5.740   8.000 -0.9294  0.9976 -1.8148
  183SOPE  H15S20954   4.337   5.591   7.991 -0.7543  0.3017 -3.1911
  183SOPE  C21620955   4.313   5.716   8.171  0.4454  0.1787 -0.2829
  183SOPE  H16R20956   4.203   5.714   8.192  0.2498  2.1067 -0.9712
  183SOPE  H16S20957   4.358   5.811   8.205  0.1707  0.2425 -0.0872
  183SOPE  C21720958   4.368   5.601   8.265  0.3234 -0.0995  0.9760
  183SOPE  H17R20959   4.381   5.645   8.366 -1.0038 -0.0822  1.1569
  183SOPE  H17S20960   4.464   5.572   8.217 -0.0827 -1.6682  1.0616
  183SOPE  C21820961   4.275   5.481   8.265  0.0759 -0.2267 -0.1167
  183SOPE  H18R20962   4.176   5.515   8.305 -0.9651 -1.6586 -1.3885
  183SOPE  H18S20963   4.303   5.403   8.339  0.8731 -1.2811 -1.5043
  183SOPE  H18T20964   4.260   5.447   8.161  1.5155  1.6280 -0.9774
  183SOPE   C3320965   4.656   6.388   7.024  0.0264  0.1939  0.6008
  183SOPE   H3X20966   4.562   6.425   6.978 -1.1916 -1.0033  2.0068
  183SOPE   H3Y20967   4.735   6.463   7.000 -1.4832  1.4747 -0.5885
  183SOPE   C3420968   4.637   6.400   7.178  0.1433 -0.7055 -0.1264
  183SOPE   H4X20969   4.586   6.306   7.210 -3.3557  0.8682 -0.5888
  183SOPE   H4Y20970   4.586   6.497   7.195  2.0225  0.8061 -2.4696
  183SOPE   C3520971   4.768   6.383   7.263 -0.1886  0.4122  0.0092
  183SOPE   H5X20972   4.851   6.451   7.234 -1.1392  0.9334 -1.6431
  183SOPE   H5Y20973   4.815   6.283   7.256  0.0867  0.5334  0.0855
  183SOPE   C3620974   4.735   6.412   7.416 -0.5062 -0.5853  0.8625
  183SOPE   H6X20975   4.660   6.342   7.457 -1.3222  0.5359  1.3241
  183SOPE   H6Y20976   4.699   6.516   7.424  1.4493  0.2437 -0.3509
  183SOPE   C3720977   4.867   6.399   7.500  0.1234 -0.2338 -0.0792
  183SOPE   H7X20978   4.930   6.319   7.456 -3.3648 -2.7025 -0.9538
  183SOPE   H7Y20979   4.847   6.370   7.605  1.4444 -3.0805 -0.5073
  183SOPE   C3820980   4.965   6.525   7.494 -0.1771  0.2719 -0.4886
  183SOPE   H8X20981   4.894   6.605   7.525 -0.5336 -0.6929  1.3480
  183SOPE   H8Y20982   4.983   6.531   7.384 -0.8309  0.1156 -0.6099
  183SOPE   C3920983   5.092   6.510   7.579 -0.1276  0.0863 -0.7083
  183SOPE   H9X20984   5.158   6.596   7.555 -0.0497  0.5063  0.9073
  183SOPE   H9Y20985   5.145   6.413   7.566  1.1907  0.6575  0.1307
  183SOPE  C31020986   5.058   6.532   7.735 -0.0152 -0.1287 -0.6608
  183SOPE  H10X20987   5.001   6.445   7.774  0.9568 -0.9282 -0.9770
  183SOPE  H10Y20988   4.984   6.615   7.746 -0.4957 -0.1459 -3.1741
  183SOPE  C31120989   5.177   6.546   7.821 -0.1453 -0.2979 -0.3568
  183SOPE  H11X20990   5.251   6.620   7.782  0.8699 -1.5371 -0.8592
  183SOPE  H11Y20991   5.220   6.443   7.817  0.4203 -0.1259  0.9268
  183SOPE  C31220992   5.153   6.577   7.967 -0.5702  0.3646 -0.0407
  183SOPE  H12X20993   5.249   6.563   8.021 -1.8506 -1.2308  1.9550
  183SOPE  H12Y20994   5.095   6.492   8.008 -0.1163 -1.5397 -3.0224
  183SOPE  C31320995   5.098   6.718   7.987  0.4586 -0.2417 -0.5717
  183SOPE  H13X20996   4.988   6.725   7.980  0.3036 -0.3052  1.2678
  183SOPE  H13Y20997   5.134   6.788   7.910  1.5201  0.8513  0.8629
  183SOPE  C31420998   5.137   6.764   8.135 -0.4706  0.6811 -0.6406
  183SOPE  H14X20999   5.245   6.739   8.144  0.0857  3.2544  0.7630
  183SOPE  H14Y21000   5.086   6.701   8.211  0.9387  1.5050  1.0817
  183SOPE  C31521001   5.103   6.909   8.174  0.4254 -0.1972  0.1600
  183SOPE  H15X21002   4.995   6.929   8.155 -0.0747 -2.1544  0.7342
  183SOPE  H15Y21003   5.155   6.980   8.107  0.0529 -0.2579 -0.2000
  183SOPE  C31621004   5.149   6.942   8.319  0.7590 -0.5226 -0.3530
  183SOPE  H16X21005   5.258   6.923   8.316  1.1822  1.5597 -0.1157
  183SOPE  H16Y21006   5.089   6.874   8.383 -0.4827 -0.0203 -0.9388
  183SOPE  C31721007   5.128   7.093   8.358  0.6630 -0.4754  0.3468
  183SOPE  H17X21008   5.166   7.154   8.274 -1.8661  2.1266  0.9329
  183SOPE  H17Y21009   5.182   7.109   8.454 -0.3564 -1.2335  1.0778
  183SOPE  C31821010   4.981   7.142   8.389  0.5338 -0.0873  0.6546
  183SOPE  H18X21011   4.914   7.139   8.301  2.2293 -1.2013 -0.6774
  183SOPE  H18Y21012   4.967   7.243   8.433 -0.6060  0.0839 -0.0651
  183SOPE  H18Z21013   4.932   7.073   8.461 -1.6555  1.6503  0.9481
  184SOPE     N21014   3.624   5.816   6.173  0.5315  0.6910 -0.4228
  184SOPE   HN121015   3.603   5.845   6.075  1.6263 -0.2853 -0.9836
  184SOPE   HN221016   3.703   5.879   6.199  0.4482  0.3634  0.6779
  184SOPE   HN321017   3.659   5.718   6.168 -0.9227  0.1852 -1.3394
  184SOPE   C1221018   3.495   5.835   6.265  0.3610 -0.0286 -0.1455
  184SOPE  H12A21019   3.526   5.799   6.366  0.2363  0.8100  0.2059
  184SOPE  H12B21020   3.407   5.778   6.230  0.2894 -0.5669  0.8605
  184SOPE   C1121021   3.462   5.985   6.292 -0.4261 -0.8798  0.4640
  184SOPE  H11A21022   3.554   6.039   6.320 -0.5881 -0.1045 -0.4513
  184SOPE  H11B21023   3.394   6.009   6.377 -0.6224  3.4194 -0.6693
  184SOPE     P21024   3.264   6.094   6.158 -0.4807 -0.3066 -0.4998
  184SOPE   O1321025   3.170   5.986   6.152 -0.5343  0.5527  0.5374
  184SOPE   O1421026   3.277   6.176   6.033 -0.0072 -0.7649 -0.3368
  184SOPE   O1221027   3.411   6.037   6.172  0.2108 -0.6017  0.3342
  184SOPE   O1121028   3.246   6.185   6.281 -0.5267 -0.1134 -0.2313
  184SOPE    C121029   3.335   6.292   6.319  0.1411  0.2887 -0.4676
  184SOPE    HA21030   3.280   6.384   6.290 -0.3789  0.0822 -0.1490
  184SOPE    HB21031   3.436   6.291   6.272 -0.4402 -3.0834 -1.9535
  184SOPE    C221032   3.342   6.302   6.477  0.5160  0.4992  0.6731
  184SOPE    HS21033   3.356   6.410   6.496 -1.0532  0.8159  0.1551
  184SOPE   O2121034   3.443   6.212   6.539  0.1693  0.4480 -0.0886
  184SOPE   C2121035   3.563   6.253   6.519  0.4227  0.1218 -0.5566
  184SOPE   O2221036   3.589   6.363   6.471 -0.5162 -0.7044 -0.0540
  184SOPE   C2221037   3.666   6.148   6.564  0.5889 -0.2662  0.6719
  184SOPE   H2R21038   3.770   6.188   6.561  0.2746  0.5393 -1.8535
  184SOPE   H2S21039   3.659   6.062   6.493  1.5703 -0.0805  0.3302
  184SOPE    C321040   3.196   6.284   6.544  0.0166 -0.2034  0.7208
  184SOPE    HX21041   3.164   6.178   6.540 -0.7431  0.0373  0.0418
  184SOPE    HY21042   3.128   6.343   6.478 -0.9841 -1.5278  0.5191
  184SOPE   O3121043   3.197   6.334   6.679 -0.1101  0.1137  0.1259
  184SOPE   C3121044   3.230   6.251   6.777  0.8048 -0.0643  0.0252
  184SOPE   O3221045   3.258   6.130   6.761 -0.0096 -0.4656 -0.3267
  184SOPE   C3221046   3.210   6.324   6.909 -0.0399 -0.3258  0.3141
  184SOPE   H2X21047   3.106   6.362   6.916  1.0721  2.8933  1.0261
  184SOPE   H2Y21048   3.275   6.414   6.901 -0.1573 -0.2198  0.5493
  184SOPE   C2321049   3.623   6.088   6.711 -0.2984 -0.3444 -0.0919
  184SOPE   H3R21050   3.650   5.981   6.721 -1.7554 -0.6358  1.2841
  184SOPE   H3S21051   3.512   6.086   6.724 -0.3906  2.1545 -0.1437
  184SOPE   C2421052   3.681   6.171   6.824 -0.2666 -0.4514  0.4087
  184SOPE   H4R21053   3.791   6.179   6.807 -0.5399  0.3109 -1.1916
  184SOPE   H4S21054   3.647   6.276   6.812  0.8017  0.1931  2.5437
  184SOPE   C2521055   3.642   6.117   6.959 -0.4654 -0.7898 -0.2016
  184SOPE   H5R21056   3.610   6.203   7.020 -1.7793 -1.7086  0.4435
  184SOPE   H5S21057   3.558   6.045   6.949 -0.3662 -0.6610 -2.2977
  184SOPE   C2621058   3.749   6.032   7.040  0.0065  0.0501  0.2205
  184SOPE   H6R21059   3.786   5.953   6.971 -1.2533  0.8263 -1.4251
  184SOPE   H6S21060   3.836   6.099   7.054 -0.3124  0.6546 -0.5705
  184SOPE   C2721061   3.679   5.976   7.168 -0.3600  1.2694  0.3302
  184SOPE   H7R21062   3.632   6.053   7.233 -0.4612  1.8110 -0.3823
  184SOPE   H7S21063   3.588   5.916   7.146  0.0226  1.5717 -2.3046
  184SOPE   C2821064   3.776   5.892   7.259  0.1576  0.3472 -0.6854
  184SOPE   H8R21065   3.721   5.848   7.345 -0.5843  1.2886 -0.6643
  184SOPE   H8S21066   3.818   5.806   7.203  0.7165  0.4044 -0.3545
  184SOPE   C2921067   3.892   5.976   7.310  0.2724  0.5329  0.2613
  184SOPE   H9121068   3.975   5.990   7.240 -0.2581  1.5385 -0.1846
  184SOPE  C21021069   3.895   6.045   7.425  0.1316 -0.5893  0.3961
  184SOPE  H10121070   3.984   6.104   7.453 -0.4576 -0.5214  2.2723
  184SOPE  C21121071   3.788   6.040   7.526  0.2952 -0.7236  0.4762
  184SOPE  H11R21072   3.702   5.981   7.488 -1.0006  1.7523 -0.7088
  184SOPE  H11S21073   3.752   6.146   7.523 -1.6473 -1.3464  0.0520
  184SOPE  C21221074   3.842   6.003   7.668  1.2337  0.4024  0.2721
  184SOPE  H12R21075   3.919   6.073   7.705 -1.3372  2.3489  2.3411
  184SOPE  H12S21076   3.899   5.907   7.671 -0.3767 -0.6011  3.1011
  184SOPE  C21321077   3.730   5.993   7.771 -0.5200  0.3109 -0.0725
  184SOPE  H13R21078   3.656   5.915   7.745 -0.2071  0.1984 -0.6432
  184SOPE  H13S21079   3.674   6.088   7.777 -2.2452 -0.6556 -0.1024
  184SOPE  C21421080   3.790   5.955   7.909  0.2093  0.1891  1.1704
  184SOPE  H14R21081   3.705   5.974   7.979 -1.3390 -2.1084  0.0525
  184SOPE  H14S21082   3.866   6.033   7.931 -0.8476  1.7433 -0.4293
  184SOPE  C21521083   3.845   5.814   7.922 -0.2454  0.1984 -0.1659
  184SOPE  H15R21084   3.924   5.784   7.850  1.5923  0.2999  1.7268
  184SOPE  H15S21085   3.755   5.748   7.918 -0.1578  0.1070 -0.6025
  184SOPE  C21621086   3.894   5.785   8.062 -0.5216 -0.7657 -1.1334
  184SOPE  H16R21087   3.813   5.819   8.131  0.7653 -1.5840  0.8804
  184SOPE  H16S21088   3.990   5.836   8.082 -0.4458 -0.7661 -1.4874
  184SOPE  C21721089   3.905   5.637   8.101  0.0199 -0.7176 -0.5176
  184SOPE  H17R21090   3.981   5.582   8.042  0.3206 -0.9738  0.0999
  184SOPE  H17S21091   3.806   5.591   8.079 -0.1761 -0.7223  0.3392
  184SOPE  C21821092   3.934   5.624   8.244  0.0024  0.3084 -0.0852
  184SOPE  H18R21093   3.945   5.516   8.265 -1.0844  0.0844 -0.5728
  184SOPE  H18S21094   3.865   5.672   8.317 -0.9901 -4.1535  2.2973
  184SOPE  H18T21095   4.032   5.668   8.271  0.5200  0.6148 -2.2662
  184SOPE   C3321096   3.254   6.237   7.028 -0.2410  0.0495  0.4377
  184SOPE   H3X21097   3.364   6.222   7.033 -0.1996  0.0851 -0.2287
  184SOPE   H3Y21098   3.207   6.138   7.011 -0.1184 -0.1003  0.9629
  184SOPE   C3421099   3.216   6.283   7.163 -0.7511 -0.2743 -0.5951
  184SOPE   H4X21100   3.108   6.282   7.192 -0.5053 -0.1911  0.3558
  184SOPE   H4Y21101   3.243   6.391   7.170 -0.6167 -0.4243  2.6172
  184SOPE   C3521102   3.294   6.219   7.279  0.0769  0.3553 -0.6688
  184SOPE   H5X21103   3.398   6.203   7.245  0.0302 -0.0010 -0.6411
  184SOPE   H5Y21104   3.244   6.124   7.307  0.1046  0.7121  0.6903
  184SOPE   C3621105   3.293   6.316   7.403  0.0413  0.3566 -0.5366
  184SOPE   H6X21106   3.188   6.318   7.439  0.6779  0.3772  1.4407
  184SOPE   H6Y21107   3.319   6.419   7.371 -0.5356  0.4159 -0.8336
  184SOPE   C3721108   3.394   6.285   7.517  0.0287  0.1583  0.3197
  184SOPE   H7X21109   3.490   6.335   7.490  0.3119  1.0254  2.6680
  184SOPE   H7Y21110   3.424   6.178   7.527  3.4543  1.0531  0.6977
  184SOPE   C3821111   3.342   6.340   7.653  0.5859 -0.3295  0.1791
  184SOPE   H8X21112   3.313   6.447   7.646 -0.9129 -0.8106 -1.2985
  184SOPE   H8Y21113   3.434   6.339   7.716  1.5818  0.5840 -1.2000
  184SOPE   C3921114   3.226   6.259   7.725 -0.2207  0.2053  0.6803
  184SOPE   H9X21115   3.258   6.154   7.742  2.5808  0.7209 -0.8136
  184SOPE   H9Y21116   3.138   6.247   7.659  0.2371 -1.8240  0.3584
  184SOPE  C31021117   3.183   6.309   7.863  0.0397 -0.4944  0.1651
  184SOPE  H10X21118   3.155   6.414   7.840  0.9059 -0.4394 -0.7028
  184SOPE  H10Y21119   3.272   6.298   7.929 -0.4528  1.6300  1.2801
  184SOPE  C31121120   3.065   6.227   7.926  0.0772  0.1823 -0.3711
  184SOPE  H11X21121   3.081   6.118   7.918  0.3024  0.2123 -0.3550
  184SOPE  H11Y21122   2.974   6.257   7.870 -0.9251 -1.2344  0.4560
  184SOPE  C31221123   3.058   6.263   8.069 -0.0934  0.0603  0.0886
  184SOPE  H12X21124   3.058   6.374   8.078 -0.1980  0.2174 -1.5865
  184SOPE  H12Y21125   3.146   6.233   8.130 -1.8686  1.4832  3.6588
  184SOPE  C31321126   2.936   6.211   8.139  0.0021  1.0091  0.3278
  184SOPE  H13X21127   2.939   6.100   8.136  0.6936  1.0175  0.3827
  184SOPE  H13Y21128   2.836   6.244   8.105 -1.8488 -2.9365  1.3625
  184SOPE  C31421129   2.947   6.234   8.294  0.5343 -0.7300 -0.0939
  184SOPE  H14X21130   2.948   6.345   8.306 -0.6617 -0.2895 -3.0978
  184SOPE  H14Y21131   3.046   6.197   8.327  0.3580 -1.4946 -0.4074
  184SOPE  C31521132   2.839   6.168   8.382 -0.0275  0.4650 -0.2058
  184SOPE  H15X21133   2.738   6.173   8.335 -1.1587  0.7468  2.1063
  184SOPE  H15Y21134   2.837   6.220   8.480 -0.1021  1.0354 -0.5111
  184SOPE  C31621135   2.876   6.018   8.393 -0.0656  0.2991 -0.8842
  184SOPE  H16X21136   2.983   6.002   8.370  0.1933 -1.2571  1.1573
  184SOPE  H16Y21137   2.823   5.952   8.321  1.4394 -0.5702 -1.2359
  184SOPE  C31721138   2.869   5.957   8.539 -0.2010  0.7002 -0.0675
  184SOPE  H17X21139   2.873   5.846   8.526 -1.6465  0.5543  0.5627
  184SOPE  H17Y21140   2.775   5.979   8.593 -0.0820 -1.2167  1.0431
  184SOPE  C31821141   2.985   5.998   8.633 -0.1464  0.8236 -0.4235
  184SOPE  H18X21142   3.080   6.015   8.578 -0.6400 -1.2796 -2.0773
  184SOPE  H18Y21143   3.003   5.921   8.711  0.6206  0.4463 -0.9580
  184SOPE  H18Z21144   2.963   6.087   8.696 -0.7063 -1.0558  2.2115
  185SAPI   C1221145   6.148   4.117  10.685 -0.2978 -0.5183 -0.2840
  185SAPI    H221146   6.220   4.046  10.639  0.0874 -1.1372  1.2240
  185SAPI    O221147   6.210   4.245  10.670 -0.3832 -0.3130  0.7295
  185SAPI   HO221148   6.279   4.244  10.737  1.4911  0.8125 -1.0823
  185SAPI   C1321149   6.013   4.105  10.619  0.2560  0.3018  0.1099
  185SAPI    H321150   5.978   4.000  10.630  1.9454 -0.2270  0.8714
  185SAPI    O321151   6.019   4.132  10.481 -0.1646 -0.3407  0.1296
  185SAPI   HO321152   5.931   4.136  10.443  0.4688 -3.8662 -2.1244
  185SAPI   C1421153   5.919   4.204  10.683 -0.3294 -0.0841 -0.3138
  185SAPI    H421154   5.947   4.311  10.676 -2.4000  0.7156  2.2172
  185SAPI    O421155   5.792   4.204  10.619 -0.4479 -0.2371  0.2532
  185SAPI   HO421156   5.796   4.292  10.582 -0.9099  0.4531  1.7742
  185SAPI   C1521157   5.913   4.173  10.830  0.9480  0.5867  0.3049
  185SAPI    H521158   5.883   4.067  10.830 -1.0623  0.8475 -5.0108
  185SAPI    O521159   5.811   4.248  10.894  0.1625 -1.0566  0.3764
  185SAPI   HO521160   5.838   4.340  10.884  1.0549 -0.9485  3.0600
  185SAPI   C1621161   6.045   4.186  10.901 -0.5614 -0.6638  0.0850
  185SAPI    H621162   6.078   4.292  10.893 -3.3034  0.3585  1.0128
  185SAPI    O621163   6.043   4.155  11.040  0.2966 -0.1950  0.8577
  185SAPI   HO621164   6.119   4.101  11.065 -0.8348 -2.8609 -0.9642
  185SAPI   C1121165   6.140   4.090  10.835 -0.8101  0.6987 -0.3837
  185SAPI    H121166   6.087   3.992  10.839  0.6144 -0.1027 -0.4352
  185SAPI     P21167   6.340   3.969  10.972 -0.0168  0.0059  0.2974
  185SAPI   O1321168   6.255   3.945  11.089 -0.1117 -0.4543  0.1960
  185SAPI   O1421169   6.490   3.982  11.001  0.3677 -0.2390  0.0273
  185SAPI   O1221170   6.277   4.099  10.897 -0.7788 -0.2742 -0.1756
  185SAPI   O1121171   6.323   3.851  10.870 -0.0487  0.7855 -0.0613
  185SAPI    C121172   6.397   3.842  10.747 -0.0962 -0.5473 -0.2792
  185SAPI    HA21173   6.369   3.926  10.680  2.1777  0.5921  0.1143
  185SAPI    HB21174   6.503   3.852  10.777 -0.6835 -1.6128  2.5174
  185SAPI    C221175   6.391   3.712  10.662 -0.1206 -0.6332  0.2723
  185SAPI    HS21176   6.463   3.729  10.579 -0.4740 -1.5704 -0.2376
  185SAPI   O2121177   6.257   3.689  10.617 -0.0396  0.2707 -0.3846
  185SAPI   C2121178   6.230   3.747  10.496 -0.5262 -0.2438 -0.1087
  185SAPI   O2221179   6.306   3.824  10.436 -0.0249 -0.1374 -0.5740
  185SAPI   C2221180   6.088   3.721  10.443  0.0449  0.3546 -1.0009
  185SAPI   H2R21181   6.065   3.620  10.484  0.0541  0.8682  0.3392
  185SAPI   H2S21182   6.026   3.791  10.503 -0.0226 -0.5706  0.0548
  185SAPI    C321183   6.443   3.596  10.748 -0.2793  0.6121 -0.4480
  185SAPI    HX21184   6.384   3.580  10.841  2.8289  2.5251  2.0674
  185SAPI    HY21185   6.544   3.629  10.781 -0.6567 -0.4547  2.0040
  185SAPI   O3121186   6.458   3.479  10.665 -0.3682  0.0820  0.0650
  185SAPI   C3121187   6.571   3.482  10.590  0.4457 -0.2877 -0.8254
  185SAPI   O3221188   6.649   3.575  10.586 -0.0619  0.0095 -0.5041
  185SAPI   C3221189   6.591   3.347  10.514 -0.1175  0.5484 -0.4118
  185SAPI   H2X21190   6.510   3.279  10.545  0.5999 -0.2499 -0.2555
  185SAPI   H2Y21191   6.688   3.307  10.552  1.7082  1.9941 -3.1637
  185SAPI   C2321192   6.068   3.746  10.300  0.0016 -0.2295  0.3785
  185SAPI   H3R21193   6.090   3.852  10.273  1.3039 -0.8020 -0.9533
  185SAPI   H3S21194   5.958   3.742  10.280 -0.0704  0.2826  0.6668
  185SAPI   C2421195   6.136   3.639  10.209  0.5814  0.4088  0.3480
  185SAPI   H4R21196   6.103   3.541  10.251 -1.8334  0.0518 -2.0903
  185SAPI   H4S21197   6.245   3.658  10.220  0.5833  1.0960 -0.7688
  185SAPI   C2521198   6.077   3.640  10.070 -0.0167  0.4079 -0.0838
  185SAPI   H5R21199   5.997   3.566  10.056 -0.8044  1.0840  0.7477
  185SAPI   C2621200   6.137   3.704   9.965 -0.2659  0.4191  0.4315
  185SAPI   H6R21201   6.078   3.705   9.872 -0.5089 -0.0572  0.5771
  185SAPI   C2721202   6.258   3.791   9.968 -0.5914 -0.1772 -0.4902
  185SAPI   H7R21203   6.322   3.781   9.878  0.0613 -1.4812  0.0856
  185SAPI   H7S21204   6.334   3.746  10.036 -1.0520 -1.0239 -0.5259
  185SAPI   C2821205   6.223   3.933  10.004 -0.2349 -0.0688  0.8024
  185SAPI   H8R21206   6.179   3.937  10.105  2.9515 -0.9402  2.3392
  185SAPI   C2921207   6.265   4.042   9.947  0.4334  0.0594  1.0105
  185SAPI   H9R21208   6.233   4.138   9.991  1.8146  1.0148 -0.0028
  185SAPI  C21021209   6.356   4.046   9.826 -0.1139  0.0176 -0.1197
  185SAPI  H10R21210   6.395   3.949   9.789 -0.9085  0.3305 -1.9180
  185SAPI  H10S21211   6.444   4.112   9.841  1.0813 -1.6195  0.2630
  185SAPI  C21121212   6.274   4.108   9.716  0.5614 -0.2073 -0.3009
  185SAPI  H11R21213   6.173   4.136   9.750  0.6007 -0.5723  0.1069
  185SAPI  C21221214   6.310   4.123   9.585  0.3961 -0.5503  0.6964
  185SAPI  H12R21215   6.237   4.163   9.514  0.0365 -0.2101  1.2539
  185SAPI  C21321216   6.444   4.087   9.527 -0.1175 -0.9444 -0.3147
  185SAPI  H13R21217   6.422   4.072   9.419 -0.0056  1.7239 -0.7711
  185SAPI  H13S21218   6.487   4.001   9.583  0.0572 -0.5509  0.1620
  185SAPI  C21421219   6.540   4.205   9.536 -0.0099  0.2349 -0.2485
  185SAPI  H14R21220   6.561   4.235   9.639  2.0662 -2.0030  0.0913
  185SAPI  C21521221   6.602   4.267   9.430  0.3962 -0.6918 -0.1830
  185SAPI  H15R21222   6.661   4.356   9.455  0.3934 -0.2244 -1.6953
  185SAPI  C21621223   6.602   4.231   9.279 -0.3664  0.9527 -0.4290
  185SAPI  H16R21224   6.565   4.316   9.218 -0.6229  1.1135 -0.0477
  185SAPI  H16S21225   6.554   4.135   9.251  0.8615  0.6692 -1.6969
  185SAPI  C21721226   6.749   4.204   9.241  0.3183  0.5463  0.6247
  185SAPI  H17R21227   6.792   4.118   9.297  0.9357 -0.7898 -1.7564
  185SAPI  H17S21228   6.811   4.287   9.281  1.4501 -0.7355  1.6180
  185SAPI  C21821229   6.760   4.175   9.090  0.4459  0.2408 -0.1566
  185SAPI  H18R21230   6.740   4.269   9.035  0.4731  1.5906  2.0590
  185SAPI  H18S21231   6.671   4.118   9.055  0.8250 -1.1324  0.9984
  185SAPI  C21921232   6.891   4.107   9.042 -0.7825  0.3954  0.1623
  185SAPI  H19R21233   6.903   4.021   9.110  1.7697  0.0900 -0.5875
  185SAPI  H19S21234   6.974   4.177   9.064 -1.6937  2.1743 -1.6424
  185SAPI  C22021235   6.887   4.074   8.893  0.7100  0.1788 -0.0215
  185SAPI  H20R21236   6.793   4.026   8.858  0.3938  0.5194  0.3550
  185SAPI  H20S21237   6.963   3.994   8.880  0.2644 -0.3505  0.5680
  185SAPI  H20T21238   6.904   4.167   8.835  3.0171  1.3222  2.3164
  185SAPI   C3321239   6.601   3.360  10.362 -1.0691  0.4313 -0.1329
  185SAPI   H3X21240   6.657   3.277  10.314  0.1362  0.9119  0.3913
  185SAPI   H3Y21241   6.665   3.449  10.342 -1.3540  0.4736 -0.8770
  185SAPI   C3421242   6.468   3.389  10.284 -0.5204 -0.0534  0.6148
  185SAPI   H4X21243   6.448   3.494  10.315 -1.5814  1.1451 -3.5605
  185SAPI   H4Y21244   6.387   3.322  10.318 -0.8558  0.4920  0.9086
  185SAPI   C3521245   6.493   3.374  10.129  0.7389  0.8395  0.7665
  185SAPI   H5X21246   6.400   3.400  10.074  0.5322  0.6226  1.0136
  185SAPI   H5Y21247   6.515   3.268  10.106  0.6572  1.4003 -2.3806
  185SAPI   C3621248   6.604   3.466  10.075  0.3769  0.8942 -0.2908
  185SAPI   H6X21249   6.704   3.425  10.100 -0.1573 -0.0326  0.3687
  185SAPI   H6Y21250   6.584   3.559  10.132  2.1174  1.2516 -0.2309
  185SAPI   C3721251   6.586   3.494   9.924 -0.8429  0.6109  0.4007
  185SAPI   H7X21252   6.484   3.498   9.881 -1.1897 -1.8721  0.8387
  185SAPI   H7Y21253   6.627   3.413   9.860  1.6158  0.5601  1.9225
  185SAPI   C3821254   6.654   3.616   9.872 -0.1148 -0.2701  0.5393
  185SAPI   H8X21255   6.756   3.633   9.914  1.4663  0.3731 -3.1481
  185SAPI   H8Y21256   6.587   3.701   9.898 -0.2193 -0.3245  0.4499
  185SAPI   C3921257   6.671   3.631   9.717 -0.0134  0.3238  0.0232
  185SAPI   H9X21258   6.580   3.599   9.662  1.0165 -0.2248 -1.4288
  185SAPI   H9Y21259   6.749   3.564   9.676 -0.9943  0.3589 -1.9991
  185SAPI  C31021260   6.701   3.776   9.676 -0.2678  0.6066  0.0279
  185SAPI  H10X21261   6.807   3.790   9.707 -0.6006 -2.2483  3.1089
  185SAPI  H10Y21262   6.632   3.839   9.736 -2.0951 -0.9094 -0.3757
  185SAPI  C31121263   6.683   3.802   9.519  0.4890 -0.1940 -0.5403
  185SAPI  H11X21264   6.676   3.912   9.505 -0.5390 -0.2535 -0.6197
  185SAPI  H11Y21265   6.593   3.750   9.480 -0.7961  1.4492  0.0850
  185SAPI  C31221266   6.793   3.739   9.430  0.5145 -0.0676 -0.1038
  185SAPI  H12X21267   6.795   3.629   9.443 -2.1965 -0.1796 -0.1132
  185SAPI  H12Y21268   6.895   3.779   9.448  0.1867  0.2481  1.1322
  185SAPI  C31321269   6.760   3.760   9.279 -0.2037  0.1007  0.2580
  185SAPI  H13X21270   6.791   3.863   9.251 -0.5389  0.2379  0.3831
  185SAPI  H13Y21271   6.655   3.749   9.243  0.6791  1.1434 -3.0467
  185SAPI  C31421272   6.838   3.673   9.173 -0.1067  0.0504 -0.0304
  185SAPI  H14X21273   6.801   3.568   9.176 -0.4913  0.1986  0.3945
  185SAPI  H14Y21274   6.940   3.678   9.218  0.0475 -1.1630 -0.2149
  185SAPI  C31521275   6.833   3.722   9.032 -0.1859 -0.1309 -0.2124
  185SAPI  H15X21276   6.827   3.833   9.038 -1.9600 -0.2709  2.0128
  185SAPI  H15Y21277   6.735   3.691   8.991 -0.6121  0.4340  0.3700
  185SAPI  C31621278   6.939   3.667   8.942  0.2020  0.4645  0.0841
  185SAPI  H16X21279   6.916   3.686   8.835  0.8766 -0.1343 -0.1815
  185SAPI  H16Y21280   6.928   3.559   8.964 -0.5951  0.2734 -1.1945
  185SAPI  C31721281   7.082   3.727   8.965  0.1070  0.9007 -0.0799
  185SAPI  H17X21282   7.098   3.726   9.075 -0.8711  0.3398  0.0763
  185SAPI  H17Y21283   7.082   3.835   8.939  1.0754  0.5633 -1.5418
  185SAPI  C31821284   7.179   3.639   8.885  0.0103  0.4177  0.4743
  185SAPI  H18X21285   7.280   3.686   8.888 -0.8014  2.4281 -1.0947
  185SAPI  H18Y21286   7.149   3.642   8.778  0.2376 -0.0433  0.3945
  185SAPI  H18Z21287   7.179   3.539   8.932 -0.8623 -0.3201 -1.0299
  186SAPI   C1221288   0.252   0.210  10.955  0.0573  0.5202 -0.6347
  186SAPI    H221289   0.152   0.247  10.985  0.1546  0.9394 -0.8260
  186SAPI    O221290   0.343   0.250  11.054 -0.2742  0.6517 -0.2010
  186SAPI   HO221291   0.374   0.339  11.037  2.0027 -0.3495 -1.8397
  186SAPI   C1321292   0.250   0.060  10.939 -0.0347  0.2342 -0.3839
  186SAPI    H321293   0.186   0.024  10.856  0.3281  1.2275 -1.1129
  186SAPI    O321294   0.191   0.001  11.056  0.2188  0.1842 -0.5040
  186SAPI   HO321295   0.227  -0.086  11.073 -0.8560 -0.4748 -1.5448
  186SAPI   C1421296   0.390   0.003  10.904  0.1247 -0.1324  0.1743
  186SAPI    H421297   0.461   0.036  10.982 -1.5644 -2.3126  2.8086
  186SAPI    O421298   0.391  -0.141  10.910  0.0295 -0.0739 -0.5748
  186SAPI   HO421299   0.318  -0.182  10.865 -0.4253  1.6283 -1.4948
  186SAPI   C1521300   0.438   0.073  10.774  0.0072  0.4754 -0.1498
  186SAPI    H521301   0.372   0.032  10.695  0.2698 -2.3632  0.9672
  186SAPI    O521302   0.566   0.026  10.740 -0.2876  0.0660 -0.4383
  186SAPI   HO521303   0.621   0.057  10.812 -0.3578 -3.2244  1.2239
  186SAPI   C1621304   0.434   0.220  10.778  0.3172 -0.3928  0.3883
  186SAPI    H621305   0.509   0.265  10.848  1.2141 -0.3529 -0.5688
  186SAPI    O621306   0.470   0.271  10.650  0.0389  0.0561 -0.4967
  186SAPI   HO621307   0.472   0.365  10.669  2.1930 -0.1865  0.7874
  186SAPI   C1121308   0.291   0.266  10.819 -0.6396  0.7404  0.2439
  186SAPI    H121309   0.230   0.210  10.745  1.4707 -2.5281  0.7381
  186SAPI     P21310   0.137   0.482  10.776  0.1852  0.0599 -0.3142
  186SAPI   O1321311   0.134   0.599  10.870 -0.2191  0.3658  0.1850
  186SAPI   O1421312   0.026   0.383  10.795 -0.6850 -0.3464  0.2246
  186SAPI   O1221313   0.279   0.408  10.808 -0.2216  0.4863 -0.0507
  186SAPI   O1121314   0.147   0.528  10.622 -0.1933 -0.4546  0.5375
  186SAPI    C121315   0.119   0.438  10.514 -0.2155 -0.0523  0.2389
  186SAPI    HA21316   0.077   0.346  10.560  0.5823 -0.1926  0.7026
  186SAPI    HB21317   0.054   0.484  10.438  0.3641 -2.5356 -1.8958
  186SAPI    C221318   0.234   0.384  10.425 -0.0440 -0.5839 -0.1665
  186SAPI    HS21319   0.309   0.329  10.486  0.0612  1.1012  1.3312
  186SAPI   O2121320   0.291   0.501  10.360  0.6391  0.9644  0.6443
  186SAPI   C2121321   0.385   0.566  10.423  0.4373  0.8491  0.3022
  186SAPI   O2221322   0.432   0.542  10.534 -0.0336  0.1474 -0.1626
  186SAPI   C2221323   0.435   0.678  10.333  0.3299 -0.3337  0.2180
  186SAPI   H2R21324   0.392   0.656  10.233  1.4687 -1.7392 -0.0034
  186SAPI   H2S21325   0.405   0.772  10.384  2.8212  0.6906 -0.0678
  186SAPI    C321326   0.174   0.281  10.325  0.7100  0.8967  0.5437
  186SAPI    HX21327   0.136   0.196  10.386 -0.4542  1.6174  0.8476
  186SAPI    HY21328   0.255   0.242  10.260  0.5597  0.0376  0.8675
  186SAPI   O3121329   0.065   0.333  10.241  0.0642  0.8294  0.4299
  186SAPI   C3121330   0.008   0.237  10.167  0.0091  0.2357  0.1853
  186SAPI   O3221331   0.058   0.128  10.141  0.1876 -0.5290 -0.6477
  186SAPI   C3221332  -0.114   0.291  10.097 -0.4031 -1.6195 -0.0524
  186SAPI   H2X21333  -0.188   0.321  10.175 -0.6409  2.9160 -1.7021
  186SAPI   H2Y21334  -0.146   0.209  10.029  2.0904 -1.7061 -1.2175
  186SAPI   C2321335   0.590   0.683  10.316  0.9171  0.1119 -0.0015
  186SAPI   H3R21336   0.646   0.671  10.412  0.8898  0.7108  0.0951
  186SAPI   H3S21337   0.628   0.777  10.271 -0.0050  0.0317 -0.9823
  186SAPI   C2421338   0.646   0.580  10.206 -0.5331 -0.0984  0.0816
  186SAPI   H4R21339   0.756   0.592  10.212 -0.4941 -0.7210  0.8278
  186SAPI   H4S21340   0.623   0.621  10.105 -0.2182  2.4598  0.9694
  186SAPI   C2521341   0.608   0.441  10.241 -0.0930  0.3949 -0.1582
  186SAPI   H5R21342   0.646   0.406  10.338  0.2692 -1.1176 -0.8151
  186SAPI   C2621343   0.533   0.360  10.166  0.2140 -0.3909  0.0415
  186SAPI   H6R21344   0.520   0.260  10.210  0.0729  0.0085  0.9162
  186SAPI   C2721345   0.477   0.391  10.025 -0.6024 -0.0675 -0.4404
  186SAPI   H7R21346   0.466   0.294   9.972  1.6422 -1.2090  1.0234
  186SAPI   H7S21347   0.557   0.439   9.963 -0.2412  0.8256  0.6779
  186SAPI   C2821348   0.353   0.474  10.012  0.3844  0.1087 -0.5306
  186SAPI   H8R21349   0.301   0.495  10.107  0.2759  1.2470 -0.8386
  186SAPI   C2921350   0.310   0.522   9.894 -0.3210  0.6036 -0.2777
  186SAPI   H9R21351   0.213   0.573   9.891 -0.4060  0.4067 -1.5303
  186SAPI  C21021352   0.386   0.508   9.758 -0.1130 -0.5014  0.1188
  186SAPI  H10R21353   0.314   0.539   9.680  0.0433  2.3257  0.9592
  186SAPI  H10S21354   0.414   0.403   9.739 -3.1592 -1.1736 -1.1827
  186SAPI  C21121355   0.512   0.596   9.743  0.4427 -0.1354  0.1891
  186SAPI  H11R21356   0.539   0.664   9.826 -2.8761 -1.4181  2.5438
  186SAPI  C21221357   0.577   0.605   9.619  0.6086 -0.2997  0.5242
  186SAPI  H12R21358   0.664   0.672   9.611 -1.7596  2.9876  0.0411
  186SAPI  C21321359   0.531   0.525   9.497 -0.5541  0.5183  0.0584
  186SAPI  H13R21360   0.470   0.434   9.517 -0.0098 -0.3716 -2.1257
  186SAPI  H13S21361   0.621   0.481   9.450  1.4358  0.8142  3.2558
  186SAPI  C21421362   0.455   0.614   9.405  0.6916  0.5458  0.1482
  186SAPI  H14R21363   0.393   0.690   9.456 -1.6293 -2.2973  1.8543
  186SAPI  C21521364   0.472   0.623   9.274 -0.0756 -0.6589 -0.3751
  186SAPI  H15R21365   0.414   0.696   9.215  0.5547  0.8906  0.8545
  186SAPI  C21621366   0.560   0.540   9.185 -0.0667 -0.2608 -0.0678
  186SAPI  H16R21367   0.503   0.506   9.096  0.6315 -1.2773 -0.1471
  186SAPI  H16S21368   0.592   0.450   9.243  1.5719  0.3403  0.0205
  186SAPI  C21721369   0.695   0.613   9.143 -0.2731  0.3239 -0.1184
  186SAPI  H17R21370   0.676   0.717   9.110 -0.5291  0.4811  0.5084
  186SAPI  H17S21371   0.746   0.562   9.058  0.4750 -1.8074  1.5375
  186SAPI  C21821372   0.800   0.615   9.259  0.6885  0.1421  0.2303
  186SAPI  H18R21373   0.813   0.508   9.288 -1.7006 -0.5586 -1.0209
  186SAPI  H18S21374   0.762   0.664   9.350  2.5703 -1.8242  2.1949
  186SAPI  C21921375   0.937   0.681   9.224  0.0794  0.5699 -0.5779
  186SAPI  H19R21376   0.984   0.630   9.138  0.4994 -1.1552  0.6218
  186SAPI  H19S21377   1.005   0.661   9.310 -1.3929  0.6092  0.6268
  186SAPI  C22021378   0.926   0.833   9.205  0.8020 -1.0699 -0.5778
  186SAPI  H20R21379   1.026   0.874   9.179  0.5135  0.9579  1.1909
  186SAPI  H20S21380   0.897   0.871   9.306  0.3323 -1.8545 -0.4111
  186SAPI  H20T21381   0.850   0.876   9.136  0.7477 -2.1817 -1.2173
  186SAPI   C3321382  -0.080   0.406   9.990  0.4810  0.4229 -0.9122
  186SAPI   H3X21383  -0.025   0.489  10.038  1.0255 -0.2089 -0.4112
  186SAPI   H3Y21384  -0.177   0.443   9.951 -0.7500  0.5804  2.0327
  186SAPI   C3421385  -0.015   0.347   9.865  0.1697 -0.2041  0.1683
  186SAPI   H4X21386  -0.078   0.271   9.815 -0.2174  0.6116 -0.6151
  186SAPI   H4Y21387   0.082   0.301   9.896  0.2501  0.4517  0.9399
  186SAPI   C3521388  -0.012   0.461   9.752 -0.2802 -0.0448 -0.0147
  186SAPI   H5X21389   0.043   0.548   9.794  0.6378 -0.7581  0.3062
  186SAPI   H5Y21390  -0.118   0.490   9.740 -1.4014 -3.8005 -0.7365
  186SAPI   C3621391   0.044   0.408   9.619  0.0806 -0.6932 -0.3220
  186SAPI   H6X21392  -0.019   0.320   9.593 -1.1210 -0.0741  0.4409
  186SAPI   H6Y21393   0.149   0.373   9.630 -0.2306 -1.3614  0.6057
  186SAPI   C3721394   0.037   0.519   9.510 -0.0444 -0.1788 -1.0155
  186SAPI   H7X21395   0.089   0.614   9.535  1.0878 -0.0839 -3.4489
  186SAPI   H7Y21396  -0.068   0.552   9.496  0.1569  0.0158 -2.1485
  186SAPI   C3821397   0.093   0.466   9.379  0.0193  0.0129 -0.1772
  186SAPI   H8X21398   0.032   0.385   9.333  0.7056 -0.0359 -1.0028
  186SAPI   H8Y21399   0.199   0.438   9.396 -0.0785  0.9065  2.3932
  186SAPI   C3921400   0.093   0.569   9.262  0.0434 -0.4448 -0.0274
  186SAPI   H9X21401   0.160   0.654   9.288 -0.9491  0.3884 -0.1060
  186SAPI   H9Y21402  -0.012   0.599   9.241 -0.0579 -1.0143 -0.3614
  186SAPI  C31021403   0.131   0.516   9.127 -0.2462  0.6197 -0.0665
  186SAPI  H10X21404   0.060   0.433   9.109 -0.0608  0.4958 -0.2380
  186SAPI  H10Y21405   0.239   0.492   9.118  0.0521  1.8275  0.0400
  186SAPI  C31121406   0.107   0.626   9.021 -0.7049 -0.1141  0.2037
  186SAPI  H11X21407   0.196   0.691   9.034 -0.3148 -0.8031  1.0457
  186SAPI  H11Y21408   0.013   0.683   9.040  0.2946  1.8514 -0.3714
  186SAPI  C31221409   0.112   0.574   8.875 -0.0051 -0.1927 -0.7479
  186SAPI  H12X21410   0.040   0.490   8.878 -3.4518  2.5346  2.7909
  186SAPI  H12Y21411   0.211   0.537   8.841 -0.4535 -2.6741  0.4295
  186SAPI  C31321412   0.053   0.675   8.775  0.0597 -0.0891  0.6266
  186SAPI  H13X21413   0.132   0.753   8.763 -0.7601  0.5613 -0.6744
  186SAPI  H13Y21414  -0.045   0.715   8.808  0.6780  0.7104  1.5974
  186SAPI  C31421415   0.039   0.610   8.636 -0.4476 -0.1842 -0.4975
  186SAPI  H14X21416  -0.001   0.507   8.649 -1.7817  0.5554  2.1068
  186SAPI  H14Y21417   0.146   0.610   8.608  0.7076  2.1888  3.1557
  186SAPI  C31521418  -0.049   0.691   8.536 -0.0849  0.6897  0.5839
  186SAPI  H15X21419  -0.134   0.738   8.590 -1.0851  0.4816 -0.7391
  186SAPI  H15Y21420  -0.086   0.619   8.460 -1.0104  2.0558 -0.3095
  186SAPI  C31621421   0.025   0.791   8.443  0.1231 -0.1446 -0.0210
  186SAPI  H16X21422   0.073   0.734   8.360 -2.3943 -0.3969 -1.3838
  186SAPI  H16Y21423   0.104   0.841   8.503  0.0313 -0.4716  0.3800
  186SAPI  C31721424  -0.065   0.906   8.390 -0.0640  0.1616  0.1613
  186SAPI  H17X21425   0.006   0.979   8.343 -2.4930  2.4485 -0.1890
  186SAPI  H17Y21426  -0.107   0.968   8.471  2.4219 -0.4116  2.0009
  186SAPI  C31821427  -0.176   0.867   8.297 -0.0904 -0.7970 -0.5174
  186SAPI  H18X21428  -0.234   0.774   8.317 -0.9547 -0.5006 -1.6077
  186SAPI  H18Y21429  -0.130   0.851   8.197 -1.8560  0.7946 -1.6526
  186SAPI  H18Z21430  -0.250   0.949   8.287  0.6177  0.0375  0.7769
  187SAPI   C1221431   3.827   2.709   6.515  0.5931 -0.1389 -0.1508
  187SAPI    H221432   3.811   2.761   6.612  1.6884  0.5619 -0.3203
  187SAPI    O221433   3.743   2.594   6.506  0.0455  0.3588  0.6591
  187SAPI   HO221434   3.728   2.573   6.598 -1.4463 -1.2196  0.1192
  187SAPI   C1321435   3.792   2.814   6.406  0.1934  0.8858  0.0168
  187SAPI    H321436   3.844   2.911   6.423 -1.6135  1.6990  1.2403
  187SAPI    O321437   3.653   2.845   6.417 -0.3924  0.4045  0.2250
  187SAPI   HO321438   3.597   2.768   6.428 -1.7743  1.5641  1.8142
  187SAPI   C1421439   3.842   2.759   6.271 -0.2091  0.0234  0.1292
  187SAPI    H421440   3.782   2.672   6.235 -0.6309  0.0311  0.8124
  187SAPI    O421441   3.833   2.860   6.167 -0.2933 -0.4876 -0.0059
  187SAPI   HO421442   3.741   2.873   6.142 -0.7843  2.5679  2.8210
  187SAPI   C1521443   3.987   2.728   6.279 -0.1354  0.3412  0.8594
  187SAPI    H521444   4.048   2.820   6.293 -0.3602  0.7098 -0.3813
  187SAPI    O521445   4.037   2.686   6.149  0.1413 -0.2076 -0.5010
  187SAPI   HO521446   4.131   2.705   6.141  0.1535 -1.0153 -3.2762
  187SAPI   C1621447   4.028   2.628   6.383 -0.4066  0.3313 -0.6679
  187SAPI    H621448   3.990   2.523   6.379 -0.7746  0.4378 -0.1583
  187SAPI    O621449   4.172   2.609   6.386  0.4835  0.2310 -0.0913
  187SAPI   HO621450   4.189   2.558   6.466  2.4739  0.7105 -0.1480
  187SAPI   C1121451   3.980   2.677   6.522 -0.0406 -0.9166 -0.2287
  187SAPI    H121452   4.019   2.780   6.536  0.8572 -0.7977 -2.9620
  187SAPI     P21453   4.153   2.614   6.708 -0.4510 -0.0269 -0.2690
  187SAPI   O1321454   4.215   2.746   6.674 -0.2223  0.2439 -0.6209
  187SAPI   O1421455   4.239   2.492   6.687  0.4898 -0.5162 -0.1559
  187SAPI   O1221456   4.013   2.587   6.625  0.2328  0.4330  0.5812
  187SAPI   O1121457   4.106   2.612   6.859 -0.2153 -0.5252 -1.0069
  187SAPI    C121458   3.970   2.564   6.895 -0.2224 -1.0209 -1.1997
  187SAPI    HA21459   3.892   2.630   6.851 -1.0470 -1.5012 -0.4867
  187SAPI    HB21460   3.956   2.461   6.855 -0.5407 -1.4580 -0.0168
  187SAPI    C221461   3.943   2.560   7.048  0.5453  0.0176  0.1013
  187SAPI    HS21462   3.834   2.540   7.057  0.7458 -2.6180 -1.9924
  187SAPI   O2121463   3.971   2.677   7.116  0.3002 -0.6502  0.2571
  187SAPI   C2121464   3.921   2.788   7.071 -0.5161 -0.1611  0.5518
  187SAPI   O2221465   3.833   2.806   6.988 -0.2924  0.2085  0.1583
  187SAPI   C2221466   3.973   2.901   7.161 -0.7306  0.0402  0.1346
  187SAPI   H2R21467   3.979   2.998   7.107 -0.1073 -0.5427 -0.8819
  187SAPI   H2S21468   3.908   2.920   7.249 -0.4079  0.8322  0.2048
  187SAPI    C321469   4.010   2.440   7.115 -0.3768  0.0973  0.2556
  187SAPI    HX21470   4.113   2.440   7.074 -1.5461 -0.6025 -2.9860
  187SAPI    HY21471   3.950   2.356   7.073 -2.4763  2.0242 -0.8427
  187SAPI   O3121472   4.001   2.435   7.258 -0.5113  0.0837  0.0341
  187SAPI   C3121473   4.098   2.502   7.323  0.2397 -0.7345 -0.6103
  187SAPI   O3221474   4.197   2.552   7.274  0.1773 -0.3270  0.6583
  187SAPI   C3221475   4.069   2.482   7.476 -0.5155  0.0434 -0.1278
  187SAPI   H2X21476   4.027   2.379   7.484  1.2979 -0.7506 -0.2350
  187SAPI   H2Y21477   3.993   2.556   7.509 -1.4242 -1.2114  0.6614
  187SAPI   C2321478   4.122   2.878   7.208 -0.5161 -0.3539  0.4473
  187SAPI   H3R21479   4.174   2.847   7.115  2.1356  0.6971  1.5026
  187SAPI   H3S21480   4.126   2.796   7.283  3.2870 -1.0254 -0.2946
  187SAPI   C2421481   4.197   2.996   7.275  0.7666 -0.0477 -0.2282
  187SAPI   H4R21482   4.131   3.034   7.356  1.0229 -0.3736  0.1353
  187SAPI   H4S21483   4.196   3.080   7.203  1.0541  0.0528 -0.1125
  187SAPI   C2521484   4.329   2.943   7.329 -0.2725  0.2798 -0.4774
  187SAPI   H5R21485   4.398   2.927   7.246  0.4736  0.3164  0.1245
  187SAPI   C2621486   4.355   2.911   7.462  1.0523 -0.1741 -0.0039
  187SAPI   H6R21487   4.452   2.865   7.483  0.6208 -0.8408  0.5704
  187SAPI   C2721488   4.254   2.924   7.580 -0.5568 -0.2621  0.9173
  187SAPI   H7R21489   4.286   2.860   7.665 -0.1704 -2.6944 -0.9730
  187SAPI   H7S21490   4.162   2.872   7.546 -1.4656  0.6611  1.8315
  187SAPI   C2821491   4.223   3.069   7.622  0.2124  0.4015 -0.5417
  187SAPI   H8R21492   4.234   3.144   7.541  1.5025 -0.5106 -1.2646
  187SAPI   C2921493   4.203   3.099   7.749 -0.0050  0.3890  0.4455
  187SAPI   H9R21494   4.194   3.203   7.783 -0.2094  1.0737 -1.5693
  187SAPI  C21021495   4.192   3.009   7.864  0.0436  0.1596  0.1904
  187SAPI  H10R21496   4.168   2.902   7.842  3.0211 -0.8577  1.3949
  187SAPI  H10S21497   4.103   3.035   7.926 -0.0542 -1.2959  0.7088
  187SAPI  C21121498   4.306   3.027   7.956 -0.5013  0.3015 -0.4005
  187SAPI  H11R21499   4.323   3.132   7.985  0.0408 -0.2768  1.5554
  187SAPI  C21221500   4.372   2.932   8.018 -0.0008  0.3496 -0.0701
  187SAPI  H12R21501   4.453   2.963   8.085  0.2364  0.4635 -0.4105
  187SAPI  C21321502   4.343   2.778   8.000  0.2164 -0.4112  0.1345
  187SAPI  H13R21503   4.387   2.743   7.904 -1.5307  1.2159 -1.3320
  187SAPI  H13S21504   4.236   2.756   7.982  0.0996 -0.0839  0.4232
  187SAPI  C21421505   4.389   2.690   8.119  0.1300  0.4968 -0.2141
  187SAPI  H14R21506   4.470   2.619   8.098 -1.5250 -1.5055 -0.1715
  187SAPI  C21521507   4.336   2.696   8.246  0.3281  0.5210 -0.4283
  187SAPI  H15R21508   4.377   2.624   8.319  1.7437  0.7945 -0.9179
  187SAPI  C21621509   4.231   2.791   8.296  0.4927 -0.0612 -1.1833
  187SAPI  H16R21510   4.191   2.860   8.219  1.1473  1.3379 -0.3067
  187SAPI  H16S21511   4.263   2.840   8.391  0.5958  0.9121 -1.7186
  187SAPI  C21721512   4.113   2.706   8.335  0.2783  0.4564 -0.8115
  187SAPI  H17R21513   4.146   2.627   8.405  1.6009  0.7777 -1.0434
  187SAPI  H17S21514   4.064   2.656   8.249 -0.8920 -1.3409  0.8273
  187SAPI  C21821515   4.009   2.784   8.409  0.2142 -0.2757 -0.5065
  187SAPI  H18R21516   3.949   2.836   8.331  1.2585 -0.6827 -1.6155
  187SAPI  H18S21517   4.064   2.854   8.476  1.1514 -0.1108 -1.4058
  187SAPI  C21921518   3.919   2.705   8.504 -0.6444 -0.3126 -0.0802
  187SAPI  H19R21519   3.870   2.620   8.451  1.6152 -0.3798 -2.2027
  187SAPI  H19S21520   3.841   2.781   8.529 -0.7433 -0.1698 -0.7958
  187SAPI  C22021521   3.980   2.657   8.638  0.0172  0.3453 -0.0248
  187SAPI  H20R21522   3.929   2.570   8.685  1.9501 -1.7088 -1.5206
  187SAPI  H20S21523   3.970   2.744   8.707  1.3732  0.1808  0.4241
  187SAPI  H20T21524   4.084   2.621   8.621 -1.1741 -4.2511  1.0648
  187SAPI   C3321525   4.194   2.501   7.575  0.6373  0.0125  0.2956
  187SAPI   H3X21526   4.206   2.601   7.621  1.2855 -0.6415  1.5917
  187SAPI   H3Y21527   4.290   2.476   7.526  2.0263  1.1048  2.3159
  187SAPI   C3421528   4.176   2.406   7.692 -0.2299  0.0705  0.1084
  187SAPI   H4X21529   4.181   2.301   7.654  0.6892  0.3519 -0.5842
  187SAPI   H4Y21530   4.081   2.437   7.741 -0.7814  0.2524 -1.0194
  187SAPI   C3521531   4.293   2.409   7.792 -0.5726 -0.5439  0.5980
  187SAPI   H5X21532   4.320   2.513   7.819  1.6437 -0.3856 -1.8200
  187SAPI   H5Y21533   4.385   2.369   7.744 -1.4684  0.3300 -2.0468
  187SAPI   C3621534   4.283   2.318   7.908  0.8146 -0.1567 -0.1527
  187SAPI   H6X21535   4.376   2.322   7.968  1.1920  1.5475 -0.7897
  187SAPI   H6Y21536   4.259   2.215   7.873 -0.6807 -0.7929  2.4889
  187SAPI   C3721537   4.181   2.363   8.019 -0.3744  0.0189 -0.0846
  187SAPI   H7X21538   4.080   2.349   7.975 -0.0075 -0.4305 -0.8268
  187SAPI   H7Y21539   4.191   2.471   8.041  0.4799  0.1766 -1.1373
  187SAPI   C3821540   4.188   2.285   8.154  0.4116  0.0572 -0.0412
  187SAPI   H8X21541   4.122   2.334   8.228  3.2226  2.2708  1.2049
  187SAPI   H8Y21542   4.291   2.308   8.190  0.2166 -0.6713  1.0194
  187SAPI   C3921543   4.176   2.131   8.147 -0.0974 -0.8814  0.2290
  187SAPI   H9X21544   4.264   2.087   8.095  0.5216  0.3681  0.1795
  187SAPI   H9Y21545   4.081   2.112   8.093 -1.6016 -0.1871  2.4681
  187SAPI  C31021546   4.149   2.065   8.282 -0.4601  0.3096 -1.0223
  187SAPI  H10X21547   4.113   1.961   8.270 -0.3764 -0.0411  1.2786
  187SAPI  H10Y21548   4.077   2.128   8.339  0.1279 -0.2277  0.3603
  187SAPI  C31121549   4.283   2.044   8.351 -0.8034  0.3209  0.0293
  187SAPI  H11X21550   4.346   2.135   8.339 -0.3041  0.0090  0.2537
  187SAPI  H11Y21551   4.332   1.959   8.299  0.4631  1.1360 -0.1647
  187SAPI  C31221552   4.265   1.995   8.490  0.2040  0.8028 -0.8249
  187SAPI  H12X21553   4.178   1.926   8.496  0.1428  0.9108 -0.3939
  187SAPI  H12Y21554   4.243   2.084   8.553 -1.0820  1.2407 -1.8389
  187SAPI  C31321555   4.393   1.929   8.552  0.1331  0.3208  0.3073
  187SAPI  H13X21556   4.476   2.003   8.543  0.0412  0.6568  1.8333
  187SAPI  H13Y21557   4.418   1.840   8.491 -0.1132  0.2643  0.2892
  187SAPI  C31421558   4.385   1.896   8.699 -0.2078  0.1605  0.3181
  187SAPI  H14X21559   4.337   1.981   8.751  0.9273  0.3340  1.1437
  187SAPI  H14Y21560   4.490   1.888   8.736 -0.2171  1.4117  0.6675
  187SAPI  C31521561   4.298   1.768   8.732 -0.3061  0.1252  0.1562
  187SAPI  H15X21562   4.203   1.771   8.675 -0.0234 -2.1177 -0.5279
  187SAPI  H15Y21563   4.270   1.779   8.839 -1.0151  0.3784 -0.0480
  187SAPI  C31621564   4.392   1.645   8.714  0.2164  0.2115  0.3104
  187SAPI  H16X21565   4.489   1.677   8.756  0.2108  1.7952 -0.7763
  187SAPI  H16Y21566   4.414   1.623   8.608  0.7648 -1.5451  0.7613
  187SAPI  C31721567   4.326   1.526   8.785 -0.0706 -0.3576  0.4145
  187SAPI  H17X21568   4.220   1.506   8.760 -0.1886  0.4017  0.3008
  187SAPI  H17Y21569   4.330   1.557   8.891  0.7664  0.8716  0.0440
  187SAPI  C31821570   4.406   1.399   8.772 -0.2854  0.4702  0.8129
  187SAPI  H18X21571   4.340   1.322   8.817  0.5900 -1.3738 -0.9223
  187SAPI  H18Y21572   4.506   1.394   8.820  0.8012 -2.2369 -1.4671
  187SAPI  H18Z21573   4.406   1.378   8.663 -0.8061 -0.1589  0.9270
  188SAPI   C1221574   4.732   1.022   6.238  0.1940 -0.0246 -0.2986
  188SAPI    H221575   4.689   0.965   6.323 -1.9998  0.3586 -1.0826
  188SAPI    O221576   4.842   0.948   6.189 -0.1438 -0.5173 -0.1706
  188SAPI   HO221577   4.921   0.936   6.242 -1.5659  0.4040  2.2904
  188SAPI   C1321578   4.615   1.040   6.139 -0.0228  0.6471 -0.3481
  188SAPI    H321579   4.532   1.095   6.190  0.1294  0.8150 -0.2798
  188SAPI    O321580   4.556   0.911   6.103 -0.2571 -0.5662  0.3068
  188SAPI   HO321581   4.628   0.858   6.068  0.1177 -0.0236  0.2398
  188SAPI   C1421582   4.652   1.131   6.026  0.4070  0.4697  0.0413
  188SAPI    H421583   4.736   1.090   5.967 -0.8805 -1.0295 -0.8323
  188SAPI    O421584   4.546   1.150   5.931 -0.3306  0.2037 -0.5029
  188SAPI   HO421585   4.582   1.213   5.867 -1.5778  5.3586  3.1945
  188SAPI   C1521586   4.705   1.262   6.077 -0.2905  0.1294  0.3925
  188SAPI    H521587   4.622   1.303   6.139  0.7401  0.6712  1.4683
  188SAPI    O521588   4.733   1.361   5.976 -0.0752  0.3818 -0.3999
  188SAPI   HO521589   4.732   1.446   6.019 -1.5149  0.4144 -0.4500
  188SAPI   C1621590   4.825   1.242   6.171  0.7108 -0.0863 -0.3005
  188SAPI    H621591   4.912   1.199   6.116  0.1567  0.8993 -2.0471
  188SAPI    O621592   4.861   1.375   6.219  0.3747  0.3260 -0.6322
  188SAPI   HO621593   4.874   1.378   6.314 -0.0262 -0.1157 -0.5605
  188SAPI   C1121594   4.776   1.159   6.291  0.2058 -0.3786 -0.6249
  188SAPI    H121595   4.687   1.218   6.322  1.2651  0.4956  0.9176
  188SAPI     P21596   4.852   1.238   6.534  0.1447  0.0168  0.1730
  188SAPI   O1321597   4.730   1.191   6.615  0.2692  0.2448 -0.2883
  188SAPI   O1421598   4.848   1.379   6.491  0.6822  0.3835 -0.2923
  188SAPI   O1221599   4.867   1.143   6.406  0.1560 -0.3664 -0.5958
  188SAPI   O1121600   4.991   1.222   6.608 -0.1008  0.3285 -0.1432
  188SAPI    C121601   5.054   1.096   6.623 -0.3074  0.5537 -0.1881
  188SAPI    HA21602   5.054   1.046   6.524  0.8445 -2.9288  1.4050
  188SAPI    HB21603   5.160   1.117   6.652 -0.3286 -1.8420  2.0038
  188SAPI    C221604   5.001   0.997   6.736 -0.1557 -0.2533  0.3680
  188SAPI    HS21605   4.908   0.953   6.695 -1.8573  1.7183  1.8569
  188SAPI   O2121606   4.956   1.075   6.845  0.0634  0.2463 -0.2580
  188SAPI   C2121607   4.866   1.030   6.920 -0.1253  0.2055 -0.1833
  188SAPI   O2221608   4.788   0.943   6.888  0.2482 -0.3106 -0.4766
  188SAPI   C2221609   4.889   1.081   7.064 -0.6123 -0.5167  0.4822
  188SAPI   H2R21610   4.896   1.192   7.071  0.5772 -0.6650  2.5182
  188SAPI   H2S21611   4.815   1.034   7.133 -1.2960 -0.3078 -0.1025
  188SAPI    C321612   5.098   0.894   6.789 -0.1050  0.1123 -0.0606
  188SAPI    HX21613   5.175   0.948   6.848 -0.8238  0.7025  0.3587
  188SAPI    HY21614   5.162   0.848   6.712 -1.5217  1.1049 -1.9141
  188SAPI   O3121615   5.026   0.801   6.874  0.0296  0.1799 -0.0490
  188SAPI   C3121616   4.959   0.704   6.813  0.6499  0.0438 -0.6095
  188SAPI   O3221617   4.981   0.672   6.700 -0.0185 -0.0744  0.5208
  188SAPI   C3221618   4.854   0.627   6.901 -0.7993  0.3338 -1.2921
  188SAPI   H2X21619   4.852   0.519   6.874 -2.2494 -0.3775  1.3131
  188SAPI   H2Y21620   4.754   0.672   6.881 -1.2395  1.0746  1.9503
  188SAPI   C2321621   5.027   1.039   7.122  0.3174  0.2066 -0.5960
  188SAPI   H3R21622   5.110   1.072   7.057  1.5512  1.4835  1.5451
  188SAPI   H3S21623   5.032   0.928   7.126 -0.3535  0.1323 -1.5637
  188SAPI   C2421624   5.051   1.112   7.260  0.2122 -0.2556  0.2748
  188SAPI   H4R21625   5.014   1.215   7.242  0.6484 -0.0004  0.7995
  188SAPI   H4S21626   5.161   1.116   7.279  0.1602 -1.6208  1.0040
  188SAPI   C2521627   4.980   1.048   7.377  0.7732  0.1214  0.1530
  188SAPI   H5R21628   4.882   1.006   7.350  0.3680  2.1455 -1.8929
  188SAPI   C2621629   5.013   1.063   7.506 -0.0568  0.2905 -0.6824
  188SAPI   H6R21630   4.945   1.034   7.588 -1.9857  1.6136 -1.7319
  188SAPI   C2721631   5.135   1.139   7.550  0.6057 -0.2102 -0.2482
  188SAPI   H7R21632   5.145   1.232   7.489  2.0214  0.1219  0.4406
  188SAPI   H7S21633   5.226   1.084   7.517  0.3539 -1.4584  1.0550
  188SAPI   C2821634   5.139   1.198   7.685  0.4959 -0.0277  0.2928
  188SAPI   H8R21635   5.125   1.307   7.687 -0.3606 -0.1342  1.9822
  188SAPI   C2921636   5.165   1.137   7.800 -0.2924 -0.4645  0.9288
  188SAPI   H9R21637   5.159   1.183   7.900 -2.6311  2.1709 -0.2844
  188SAPI  C21021638   5.208   0.990   7.807  0.5960  0.1480  0.2163
  188SAPI  H10R21639   5.293   0.980   7.878  0.5343  1.8227  0.5568
  188SAPI  H10S21640   5.249   0.946   7.713 -0.3959 -0.4562  0.0465
  188SAPI  C21121641   5.099   0.898   7.854  0.1700 -0.1774  0.4209
  188SAPI  H11R21642   5.002   0.918   7.806  0.2817  1.1606  0.7222
  188SAPI  C21221643   5.112   0.799   7.945  0.3903  0.2486 -0.1732
  188SAPI  H12R21644   5.021   0.741   7.971 -0.4368  0.1426 -2.9337
  188SAPI  C21321645   5.232   0.750   8.025 -0.7019  0.0451 -0.4767
  188SAPI  H13R21646   5.314   0.758   7.951 -1.4081  1.6550 -1.1377
  188SAPI  H13S21647   5.213   0.649   8.067  1.1986  0.8690  2.6506
  188SAPI  C21421648   5.274   0.840   8.135  0.6272 -0.0899  0.4645
  188SAPI  H14R21649   5.327   0.930   8.099 -0.7905  0.4132 -0.4466
  188SAPI  C21521650   5.255   0.829   8.268 -0.6025  0.5418 -0.1991
  188SAPI  H15R21651   5.299   0.913   8.323  0.3529  0.9462 -1.5114
  188SAPI  C21621652   5.186   0.719   8.350 -0.4093  0.0355  0.1737
  188SAPI  H16R21653   5.242   0.716   8.446  0.5781 -0.1808 -0.3956
  188SAPI  H16S21654   5.188   0.625   8.292  0.9053  1.3972 -2.1560
  188SAPI  C21721655   5.038   0.757   8.375  0.3899  0.4498 -0.1781
  188SAPI  H17R21656   5.032   0.865   8.401  1.0039  0.9955 -2.1149
  188SAPI  H17S21657   5.003   0.713   8.471  1.2810  0.3596  0.1107
  188SAPI  C21821658   4.958   0.731   8.241 -0.2224 -0.0223  0.3050
  188SAPI  H18R21659   4.998   0.639   8.193 -0.3955 -1.6818  3.0673
  188SAPI  H18S21660   4.989   0.809   8.169  3.0138 -1.5834 -0.1607
  188SAPI  C21921661   4.807   0.725   8.265  0.2218  0.4536  0.4829
  188SAPI  H19R21662   4.778   0.803   8.338  0.4220  1.0554 -0.0811
  188SAPI  H19S21663   4.799   0.619   8.300  2.5393 -0.8185 -2.4296
  188SAPI  C22021664   4.712   0.730   8.140 -0.7915  0.6475 -0.3968
  188SAPI  H20R21665   4.607   0.700   8.161 -0.2187 -2.6880 -1.7407
  188SAPI  H20S21666   4.759   0.650   8.078  0.7204  1.0386  0.2071
  188SAPI  H20T21667   4.721   0.816   8.071 -0.1804  0.3366 -0.7146
  188SAPI   C3321668   4.877   0.636   7.057  0.4802  0.1896 -0.5762
  188SAPI   H3X21669   4.903   0.741   7.085 -0.6924  0.4481 -0.4122
  188SAPI   H3Y21670   4.959   0.566   7.080  1.7652  0.7684 -3.0036
  188SAPI   C3421671   4.747   0.594   7.132  0.4896 -0.2102 -0.1015
  188SAPI   H4X21672   4.667   0.671   7.126 -0.3232 -0.9676  0.6943
  188SAPI   H4Y21673   4.764   0.584   7.241  2.2124  1.4782 -0.1695
  188SAPI   C3521674   4.691   0.459   7.090  0.5155 -0.2180 -0.2221
  188SAPI   H5X21675   4.778   0.390   7.090 -0.2627 -1.3732  3.0869
  188SAPI   H5Y21676   4.649   0.460   6.987  0.7639 -2.1868 -0.3751
  188SAPI   C3621677   4.580   0.395   7.181 -0.4184 -0.3289  0.4334
  188SAPI   H6X21678   4.619   0.393   7.285 -1.0913 -0.8368  0.6911
  188SAPI   H6Y21679   4.560   0.293   7.142  0.7882 -1.0590  1.6182
  188SAPI   C3721680   4.456   0.483   7.184  0.1958 -0.4322  0.1575
  188SAPI   H7X21681   4.411   0.510   7.086 -2.7343 -2.4047  0.8524
  188SAPI   H7Y21682   4.482   0.577   7.238  0.0309 -1.2784  1.7537
  188SAPI   C3821683   4.332   0.409   7.258  0.3936  0.0387 -0.5028
  188SAPI   H8X21684   4.326   0.306   7.217  0.3118 -0.2826  0.3064
  188SAPI   H8Y21685   4.233   0.453   7.234 -0.1442 -2.1333 -2.7367
  188SAPI   C3921686   4.347   0.389   7.410 -0.6019 -0.4075  0.3459
  188SAPI   H9X21687   4.440   0.330   7.423  0.6895  1.4789  0.1200
  188SAPI   H9Y21688   4.263   0.332   7.455 -3.3049  1.4344 -2.0236
  188SAPI  C31021689   4.352   0.518   7.492  0.4685 -0.1332 -0.3809
  188SAPI  H10X21690   4.254   0.570   7.486  0.6864  0.3539  0.1926
  188SAPI  H10Y21691   4.431   0.588   7.457  0.8200 -0.1069  0.4486
  188SAPI  C31121692   4.381   0.499   7.643 -0.0470  0.1510  0.2872
  188SAPI  H11X21693   4.486   0.464   7.650 -0.0861  0.2682  1.8578
  188SAPI  H11Y21694   4.312   0.428   7.695 -1.5927  1.2055 -0.2362
  188SAPI  C31221695   4.356   0.632   7.722 -0.2631  0.2259  0.3482
  188SAPI  H12X21696   4.290   0.701   7.664 -0.1630 -1.3417 -1.7784
  188SAPI  H12Y21697   4.457   0.678   7.731 -0.0106 -0.4770  1.2704
  188SAPI  C31321698   4.289   0.615   7.856 -0.8677 -0.0883  0.3033
  188SAPI  H13X21699   4.187   0.573   7.847 -1.2745  1.2912 -2.6954
  188SAPI  H13Y21700   4.274   0.715   7.902  0.9032  0.8021 -0.9269
  188SAPI  C31421701   4.376   0.527   7.957 -0.7290  0.1633 -0.6603
  188SAPI  H14X21702   4.473   0.581   7.965 -1.9618  2.4862 -0.4633
  188SAPI  H14Y21703   4.381   0.430   7.903  1.4591 -2.5952  3.9177
  188SAPI  C31521704   4.305   0.499   8.088  0.8466  0.2077 -0.3805
  188SAPI  H15X21705   4.358   0.418   8.144 -2.6102 -1.6803  0.4730
  188SAPI  H15Y21706   4.205   0.454   8.073  0.4985  0.2513  1.4953
  188SAPI  C31621707   4.300   0.613   8.186  0.1538 -0.6510 -0.8083
  188SAPI  H16X21708   4.228   0.693   8.157  0.1324 -0.4233 -0.1338
  188SAPI  H16Y21709   4.396   0.669   8.191 -1.6191  2.4688  2.7222
  188SAPI  C31721710   4.254   0.568   8.335  0.0746  0.2223  0.0649
  188SAPI  H17X21711   4.305   0.471   8.347  1.7185  1.0012 -0.2918
  188SAPI  H17Y21712   4.146   0.544   8.322  0.2084 -0.0655 -0.5333
  188SAPI  C31821713   4.279   0.659   8.448  0.0525 -0.1487  1.2064
  188SAPI  H18X21714   4.242   0.626   8.548  1.2133 -0.7256  1.4576
  188SAPI  H18Y21715   4.238   0.759   8.422  3.3893  0.5897 -2.1729
  188SAPI  H18Z21716   4.386   0.688   8.453  0.3094 -1.1432  1.7861
  189POPC     N21717   4.506   0.723  10.933 -0.7359 -0.0020 -0.5610
  189POPC   C1221718   4.462   0.813  10.821  0.1018 -0.5327 -0.4008
  189POPC  H12A21719   4.500   0.771  10.728  0.6477 -0.1209 -0.3654
  189POPC  H12B21720   4.521   0.903  10.819  1.2551 -1.2138  1.1664
  189POPC   C1321721   4.408   0.608  10.939  0.4169  0.8060 -0.1956
  189POPC  H13A21722   4.448   0.524  10.994 -0.1070 -1.1060 -2.5527
  189POPC  H13B21723   4.316   0.655  10.971  0.4266 -0.9014  2.6438
  189POPC  H13C21724   4.396   0.560  10.842 -2.8129  2.2348 -0.6435
  189POPC   C1421725   4.650   0.679  10.918  0.2523 -0.3586 -0.7234
  189POPC  H14A21726   4.663   0.607  10.997  0.2099 -1.9566 -2.1328
  189POPC  H14B21727   4.647   0.612  10.833 -3.6200  0.8294 -1.7549
  189POPC  H14C21728   4.716   0.765  10.912 -0.9967  0.5851 -1.5726
  189POPC   C1521729   4.496   0.795  11.058 -0.3983  0.0893 -0.0406
  189POPC  H15A21730   4.505   0.728  11.143 -1.8765  0.0495  0.1089
  189POPC  H15B21731   4.393   0.826  11.067 -0.4852 -0.2163  0.0256
  189POPC  H15C21732   4.561   0.880  11.067  0.6027 -0.4684 -1.6625
  189POPC   C1121733   4.304   0.840  10.792  0.0331  0.3877 -0.5499
  189POPC  H11A21734   4.253   0.744  10.769  0.0632  0.1765  0.2436
  189POPC  H11B21735   4.290   0.902  10.700 -0.9741  1.4719  0.3078
  189POPC     P21736   4.115   0.847  10.973 -0.2165  0.0593  0.3855
  189POPC   O1321737   4.043   0.965  11.026 -0.1405 -0.5414 -0.0049
  189POPC   O1421738   4.163   0.743  11.069  0.0218  0.2677  0.0436
  189POPC   O1221739   4.250   0.903  10.908  0.4029  0.3739  0.5651
  189POPC   O1121740   4.029   0.783  10.854 -0.5144  0.4602  0.5711
  189POPC    C121741   3.955   0.863  10.764  0.5995 -0.4941 -0.2442
  189POPC    HA21742   4.002   0.950  10.713  1.0347 -0.6769 -0.1597
  189POPC    HB21743   3.855   0.895  10.801  0.2886 -2.0253  0.2913
  189POPC    C221744   3.936   0.775  10.635 -0.0621 -0.7709 -0.5488
  189POPC    HS21745   3.877   0.685  10.666 -2.0779 -0.0189 -2.0084
  189POPC   O2121746   4.058   0.748  10.578 -0.4647  0.5673  0.0329
  189POPC   C2121747   4.079   0.636  10.511 -0.1240 -0.1660 -0.0952
  189POPC   O2221748   3.990   0.556  10.495  0.1493 -0.1328 -0.1985
  189POPC   C2221749   4.214   0.641  10.452  1.2771  0.1055 -0.5376
  189POPC   H2R21750   4.267   0.562  10.509 -0.4755 -0.5234  0.3051
  189POPC   H2S21751   4.267   0.738  10.462  0.0836  0.7160  0.1394
  189POPC    C321752   3.844   0.859  10.540 -0.6028  0.1585 -0.5490
  189POPC    HX21753   3.904   0.945  10.504  0.8390 -1.1129 -1.3410
  189POPC    HY21754   3.753   0.899  10.589 -0.3276 -0.1572  0.2272
  189POPC   O3121755   3.809   0.792  10.422 -0.1882  0.5035 -0.0650
  189POPC   C3121756   3.708   0.702  10.427 -0.0216 -0.0819 -0.5828
  189POPC   O3221757   3.648   0.674  10.528 -0.1911  0.0599 -0.1183
  189POPC   C3221758   3.672   0.658  10.284  0.8593  0.0423  0.1466
  189POPC   H2X21759   3.720   0.742  10.229  2.3617  0.4488  1.9642
  189POPC   H2Y21760   3.561   0.660  10.275  0.7075  0.1946  1.8131
  189POPC   C2321761   4.228   0.590  10.308  0.6381  0.2018  0.1116
  189POPC   H3R21762   4.187   0.490  10.287  0.4321  0.3296 -0.0995
  189POPC   H3S21763   4.333   0.574  10.276  0.1738  0.6053 -1.7258
  189POPC   C2421764   4.159   0.692  10.209 -0.1370 -0.1947 -0.4457
  189POPC   H4R21765   4.189   0.796  10.234 -3.2945  0.7218 -0.0398
  189POPC   H4S21766   4.050   0.696  10.229 -0.1610 -3.6986  0.8049
  189POPC   C2521767   4.180   0.661  10.064  0.0994 -0.3388 -0.2108
  189POPC   H5R21768   4.132   0.562  10.044 -0.9863  0.4216 -1.5319
  189POPC   H5S21769   4.286   0.671  10.035  0.1894  0.9964  0.5011
  189POPC   C2621770   4.117   0.766   9.974 -0.1181  0.3150  0.9411
  189POPC   H6R21771   4.190   0.847   9.957  0.6721 -0.7049 -0.8346
  189POPC   H6S21772   4.030   0.812  10.026 -0.4913 -1.0762  1.5946
  189POPC   C2721773   4.068   0.714   9.841 -0.1734  0.3795  0.2675
  189POPC   H7R21774   3.986   0.774   9.795 -2.0592 -0.5744  2.2082
  189POPC   H7S21775   4.030   0.612   9.862  1.2140 -0.5652 -1.6270
  189POPC   C2821776   4.177   0.698   9.735  0.2354 -0.8680 -0.2715
  189POPC   H8R21777   4.136   0.624   9.662  0.1033 -1.7633  0.6804
  189POPC   H8S21778   4.269   0.653   9.777  1.0121  1.2183  0.3760
  189POPC   C2921779   4.224   0.828   9.671  0.3539 -0.1432  0.1136
  189POPC   H9121780   4.257   0.901   9.746 -0.0605 -0.5959  0.7404
  189POPC  C21021781   4.234   0.864   9.543 -0.5365 -0.4062  0.4542
  189POPC  H10121782   4.267   0.967   9.524 -0.6982 -0.5725 -0.8500
  189POPC  C21121783   4.223   0.794   9.406 -0.7053 -0.2574 -0.5663
  189POPC  H11R21784   4.234   0.864   9.321  3.3696 -0.1216 -0.1408
  189POPC  H11S21785   4.129   0.738   9.387 -2.2675  2.0726 -0.0355
  189POPC  C21221786   4.349   0.705   9.386 -0.0274  0.0943  0.5282
  189POPC  H12R21787   4.347   0.615   9.451  0.5428  1.3326  2.3294
  189POPC  H12S21788   4.442   0.762   9.408 -1.0907  1.7930  0.8217
  189POPC  C21321789   4.357   0.666   9.237 -0.4138 -0.0960  0.1272
  189POPC  H13R21790   4.312   0.741   9.170  0.9679  0.0547 -0.6670
  189POPC  H13S21791   4.287   0.580   9.231 -0.8244  0.1469  1.2222
  189POPC  C21421792   4.497   0.624   9.195 -0.0658 -0.1345 -0.4651
  189POPC  H14R21793   4.547   0.576   9.282 -0.5365  1.3045  0.6315
  189POPC  H14S21794   4.566   0.709   9.174  2.0023 -1.2614  1.3567
  189POPC  C21521795   4.498   0.537   9.067  0.2969  0.3441  0.6803
  189POPC  H15R21796   4.422   0.457   9.085  1.8115 -0.9974  1.3252
  189POPC  H15S21797   4.594   0.483   9.053  1.0570  1.6593  0.6781
  189POPC  C21621798   4.461   0.629   8.948 -0.3799 -0.1830  0.4165
  189POPC  H16R21799   4.525   0.718   8.956 -1.1410  0.2682  1.7044
  189POPC  H16S21800   4.351   0.642   8.955 -0.7325 -2.5097  0.1803
  189POPC  C21721801   4.501   0.580   8.811  0.0967  0.4958 -0.8826
  189POPC  H17R21802   4.603   0.538   8.806  0.4558  0.6170  2.8096
  189POPC  H17S21803   4.500   0.666   8.741 -0.9374  0.0768 -1.3976
  189POPC  C21821804   4.415   0.461   8.754  0.4979 -1.0440 -0.4475
  189POPC  H18R21805   4.433   0.364   8.805 -0.9957 -0.6648  0.8841
  189POPC  H18S21806   4.433   0.449   8.645 -0.5578 -0.7077 -0.6658
  189POPC  H18T21807   4.306   0.483   8.755  0.7302  0.5603 -2.6105
  189POPC   C3321808   3.724   0.522  10.241  0.3163 -0.0464 -0.2404
  189POPC   H3X21809   3.640   0.450  10.247  0.0483  0.3460  1.2959
  189POPC   H3Y21810   3.803   0.502  10.317 -0.1324 -0.7048  0.0564
  189POPC   C3421811   3.802   0.517  10.105  0.1120 -0.1187 -0.1988
  189POPC   H4X21812   3.818   0.413  10.070 -0.4691 -0.6181  0.9715
  189POPC   H4Y21813   3.902   0.562  10.123 -0.8127  1.5619  1.0612
  189POPC   C3521814   3.734   0.584   9.981 -0.2063  0.0115 -0.0406
  189POPC   H5X21815   3.793   0.562   9.890 -2.5862 -0.5846 -1.5291
  189POPC   H5Y21816   3.723   0.695   9.982  1.5083  0.2430 -1.5936
  189POPC   C3621817   3.598   0.520   9.958  0.7145 -0.0299  0.6328
  189POPC   H6X21818   3.535   0.538  10.047 -0.8859 -0.7273 -0.3096
  189POPC   H6Y21819   3.586   0.412   9.938  1.6491  0.0083 -0.2693
  189POPC   C3721820   3.532   0.590   9.838 -0.3617 -0.6079  0.4988
  189POPC   H7X21821   3.527   0.700   9.853 -0.4074 -0.0610 -2.6753
  189POPC   H7Y21822   3.429   0.549   9.839  0.7917 -3.9009 -0.2797
  189POPC   C3821823   3.591   0.550   9.703 -0.2665  0.1906  0.3462
  189POPC   H8X21824   3.643   0.452   9.704  0.8077  0.6984 -1.4817
  189POPC   H8Y21825   3.669   0.626   9.680 -2.9645  2.9046 -0.3726
  189POPC   C3921826   3.483   0.535   9.593 -0.0637 -0.6947  0.7111
  189POPC   H9X21827   3.404   0.614   9.596  0.7455  0.1772 -0.4872
  189POPC   H9Y21828   3.428   0.438   9.600 -0.2376 -0.5770  1.0457
  189POPC  C31021829   3.551   0.521   9.453 -0.3621  0.2826  0.0111
  189POPC  H10X21830   3.648   0.468   9.454 -1.4889 -1.8459  0.5693
  189POPC  H10Y21831   3.568   0.625   9.417 -0.9142 -0.1255 -1.5225
  189POPC  C31121832   3.468   0.451   9.340  0.0305 -0.1304  0.4328
  189POPC  H11X21833   3.360   0.475   9.352  0.4019  1.8587  0.1788
  189POPC  H11Y21834   3.480   0.342   9.356 -0.8740 -0.4122 -0.6692
  189POPC  C31221835   3.529   0.471   9.201 -0.0630 -0.2044 -0.2722
  189POPC  H12X21836   3.625   0.416   9.191  0.4277 -0.0547  2.6840
  189POPC  H12Y21837   3.541   0.579   9.178 -0.9971  0.2380  1.1432
  189POPC  C31321838   3.449   0.414   9.086 -0.0833  0.4906  0.6252
  189POPC  H13X21839   3.344   0.450   9.084  0.0179  0.7670  0.2563
  189POPC  H13Y21840   3.438   0.304   9.101 -2.0323  0.4580 -0.6860
  189POPC  C31421841   3.523   0.425   8.944 -0.4828 -0.5988 -0.7534
  189POPC  H14X21842   3.602   0.347   8.936  1.4304  1.0427  0.9652
  189POPC  H14Y21843   3.565   0.527   8.947 -1.3209 -0.2550  1.8726
  189POPC  C31521844   3.420   0.412   8.826 -0.2380  0.1371 -0.0002
  189POPC  H15X21845   3.341   0.489   8.836  1.3043  1.9017 -0.8253
  189POPC  H15Y21846   3.373   0.311   8.830 -1.4378  0.6614 -0.3291
  189POPC  C31621847   3.483   0.425   8.693 -0.4175 -0.5568 -0.4818
  189POPC  H16X21848   3.552   0.512   8.692  0.9838 -1.6245 -0.5619
  189POPC  H16Y21849   3.408   0.431   8.612  0.3129 -2.0610 -1.3133
  189POPC  H16Z21850   3.547   0.335   8.675  1.5968  0.6876  0.0679
  190POPC     N21851   6.284   1.645  11.507  0.0526 -0.5718  0.3448
  190POPC   C1221852   6.365   1.715  11.401  0.1007 -0.2774 -0.9915
  190POPC  H12A21853   6.440   1.771  11.456 -2.3727 -1.0889  3.7836
  190POPC  H12B21854   6.295   1.786  11.359  1.7851  1.5301 -0.8966
  190POPC   C1321855   6.242   1.741  11.613 -0.3457  0.0889  0.3049
  190POPC  H13A21856   6.198   1.826  11.562  0.2189 -0.6642 -1.5441
  190POPC  H13B21857   6.174   1.695  11.682 -2.2029  1.0617 -0.8157
  190POPC  H13C21858   6.324   1.764  11.680 -1.2287  0.7731  1.1733
  190POPC   C1421859   6.161   1.592  11.440 -0.0695 -0.2765 -0.2857
  190POPC  H14A21860   6.189   1.523  11.361 -2.5423 -1.9425  0.1594
  190POPC  H14B21861   6.102   1.535  11.510  0.1274 -0.5073 -0.3043
  190POPC  H14C21862   6.102   1.668  11.391 -0.0428 -1.7994 -2.9230
  190POPC   C1521863   6.368   1.533  11.570  0.4043 -0.1430  0.5276
  190POPC  H15A21864   6.328   1.508  11.667 -0.0543 -1.2978  0.0619
  190POPC  H15B21865   6.465   1.573  11.594 -0.0204  2.5799 -1.6353
  190POPC  H15C21866   6.378   1.447  11.506 -1.0504 -1.8447  2.4651
  190POPC   C1121867   6.436   1.634  11.295  0.5434 -0.1089  0.4353
  190POPC  H11A21868   6.499   1.553  11.338  0.2595  0.0721  1.2084
  190POPC  H11B21869   6.509   1.697  11.239 -2.1852  1.6533 -1.4084
  190POPC     P21870   6.280   1.690  11.087 -0.1753 -0.1370  0.1101
  190POPC   O1321871   6.181   1.773  11.154 -0.2994 -0.7069 -0.1390
  190POPC   O1421872   6.232   1.622  10.963 -0.1083 -0.4269 -0.4623
  190POPC   O1221873   6.343   1.588  11.194  0.0042 -0.3598  0.1082
  190POPC   O1121874   6.392   1.785  11.039  0.0833  0.3283  0.2971
  190POPC    C121875   6.514   1.735  10.976  0.3513  0.2496  0.2914
  190POPC    HA21876   6.499   1.630  10.945 -1.2655  0.7926 -0.8610
  190POPC    HB21877   6.600   1.734  11.047  1.7872  0.1965 -1.3703
  190POPC    C221878   6.541   1.811  10.840 -0.3537 -0.3514  0.2623
  190POPC    HS21879   6.560   1.920  10.858 -1.3469  0.3651 -2.5700
  190POPC   O2121880   6.430   1.783  10.755  0.6104  0.2876  0.1402
  190POPC   C2121881   6.343   1.873  10.748 -0.1084 -0.2014  0.6325
  190POPC   O2221882   6.356   1.989  10.791  0.2042  0.1865 -0.5282
  190POPC   C2221883   6.214   1.822  10.681 -0.3023 -0.1819 -0.9240
  190POPC   H2R21884   6.134   1.857  10.750 -0.7203 -2.3516 -0.2128
  190POPC   H2S21885   6.212   1.711  10.667 -2.8679 -0.3238  0.0140
  190POPC    C321886   6.671   1.770  10.764  0.4202 -0.2213 -0.4714
  190POPC    HX21887   6.659   1.664  10.731  0.5143  0.0857 -1.5426
  190POPC    HY21888   6.760   1.795  10.824  1.8020  2.9080 -3.5107
  190POPC   O3121889   6.683   1.848  10.637 -0.4014  0.5443  0.6032
  190POPC   C3121890   6.753   1.960  10.636  0.0038 -0.0568 -0.0517
  190POPC   O3221891   6.833   2.003  10.714  0.2136 -0.1123 -0.3200
  190POPC   C3221892   6.697   2.034  10.518 -0.6353  0.0891  0.3221
  190POPC   H2X21893   6.586   2.032  10.517 -0.6301 -0.4035 -0.2141
  190POPC   H2Y21894   6.735   1.964  10.440 -0.4525 -0.0071  0.4948
  190POPC   C2321895   6.201   1.898  10.546 -0.4094 -0.0232 -0.3424
  190POPC   H3R21896   6.218   2.007  10.556  1.3805 -0.3053 -0.0488
  190POPC   H3S21897   6.097   1.881  10.512  0.3474  0.6357 -3.2081
  190POPC   C2421898   6.295   1.848  10.439  0.2086  0.7281 -0.2701
  190POPC   H4R21899   6.276   1.740  10.420 -0.7385  1.0059 -0.9850
  190POPC   H4S21900   6.400   1.860  10.473  0.6240  1.5759 -1.7812
  190POPC   C2521901   6.273   1.914  10.303 -0.0324 -0.6416 -0.0099
  190POPC   H5R21902   6.307   2.020  10.305 -0.4006 -0.4671 -1.6818
  190POPC   H5S21903   6.168   1.919  10.267 -0.1992  2.6180  0.5927
  190POPC   C2621904   6.364   1.849  10.197  0.0049  0.4461  0.3135
  190POPC   H6R21905   6.320   1.758  10.152 -2.3393  0.3278  2.5942
  190POPC   H6S21906   6.461   1.816  10.239  0.3589 -0.0961 -0.8730
  190POPC   C2721907   6.402   1.933  10.072  0.7566  0.4320 -0.1514
  190POPC   H7R21908   6.451   2.031  10.093 -1.3658  1.4836  0.1308
  190POPC   H7S21909   6.301   1.963  10.037  0.3097  0.6178  1.2342
  190POPC   C2821910   6.461   1.853   9.957 -0.1179  0.4169  0.8832
  190POPC   H8R21911   6.391   1.771   9.931  0.5314 -0.0774  0.6511
  190POPC   H8S21912   6.550   1.794   9.989 -0.5914 -0.8026  0.0571
  190POPC   C2921913   6.495   1.939   9.839  0.2036  0.5802  0.1385
  190POPC   H9121914   6.484   2.048   9.851  0.0550  0.5245  0.5052
  190POPC  C21021915   6.499   1.882   9.712  0.2831 -0.6805 -1.2303
  190POPC  H10121916   6.501   1.959   9.633 -0.7366  0.5794 -0.0954
  190POPC  C21121917   6.491   1.741   9.673  0.9408 -0.2244  0.1245
  190POPC  H11R21918   6.478   1.676   9.762 -1.3944  2.3214  1.7718
  190POPC  H11S21919   6.585   1.701   9.627 -0.2704 -2.1673 -0.8034
  190POPC  C21221920   6.362   1.729   9.585 -0.4843 -0.2472 -0.1141
  190POPC  H12R21921   6.269   1.766   9.633 -0.4676 -1.3423  0.7991
  190POPC  H12S21922   6.348   1.619   9.580  0.5430 -0.3355 -1.5537
  190POPC  C21321923   6.385   1.788   9.445  0.1142  0.2798  0.0363
  190POPC  H13R21924   6.483   1.742   9.420 -0.3317  0.6965 -2.7235
  190POPC  H13S21925   6.406   1.897   9.438 -0.1792  0.5341  2.4132
  190POPC  C21421926   6.283   1.761   9.341  0.3490 -0.0793  0.2712
  190POPC  H14R21927   6.191   1.811   9.378  0.9737  0.9687  0.4426
  190POPC  H14S21928   6.258   1.652   9.340 -4.3194  0.7313 -3.2699
  190POPC  C21521929   6.321   1.813   9.197 -0.4669  0.4725 -0.0186
  190POPC  H15R21930   6.411   1.754   9.168 -2.2703 -2.4025 -0.1974
  190POPC  H15S21931   6.345   1.921   9.195  0.6369  0.2742  1.0355
  190POPC  C21621932   6.219   1.780   9.087  0.0762 -0.2430  0.5207
  190POPC  H16R21933   6.125   1.835   9.111  2.3008  2.6005  3.6381
  190POPC  H16S21934   6.198   1.671   9.096  1.3194 -0.5347  0.0431
  190POPC  C21721935   6.263   1.829   8.951 -0.3028  0.7626  0.6803
  190POPC  H17R21936   6.353   1.771   8.919 -1.5471 -2.1989  2.1186
  190POPC  H17S21937   6.287   1.936   8.964 -0.3131  1.4190 -3.3668
  190POPC  C21821938   6.145   1.816   8.846  0.2115  0.5463 -0.2710
  190POPC  H18R21939   6.066   1.885   8.884  0.4225 -0.1891  1.5717
  190POPC  H18S21940   6.116   1.709   8.853  0.5069  0.5351  0.8585
  190POPC  H18T21941   6.166   1.849   8.742  1.3608 -3.3391 -1.4431
  190POPC   C3321942   6.763   2.165  10.488 -0.6930 -0.0341  0.1314
  190POPC   H3X21943   6.759   2.247  10.563 -0.2651 -0.4143  0.5782
  190POPC   H3Y21944   6.703   2.202  10.402 -0.6914 -1.2950 -0.4302
  190POPC   C3421945   6.907   2.147  10.445 -0.3311  0.4538  0.2170
  190POPC   H4X21946   6.915   2.057  10.380 -2.2032  0.0731  0.4440
  190POPC   H4Y21947   6.971   2.135  10.535  0.6642 -3.3950 -0.8287
  190POPC   C3521948   6.967   2.259  10.365  0.1679 -0.3064  0.7816
  190POPC   H5X21949   6.958   2.352  10.424 -2.1472  0.6326 -0.8979
  190POPC   H5Y21950   6.901   2.282  10.279  0.9602 -1.1005 -0.0662
  190POPC   C3621951   7.107   2.226  10.317 -0.1071 -0.0387  0.0126
  190POPC   H6X21952   7.106   2.136  10.251 -1.6929  0.7274 -1.0705
  190POPC   H6Y21953   7.176   2.208  10.402  0.9272 -1.4922 -1.0807
  190POPC   C3721954   7.175   2.344  10.236  0.3924 -0.5951 -0.6418
  190POPC   H7X21955   7.282   2.312  10.236  1.1578  1.7478 -0.4222
  190POPC   H7Y21956   7.165   2.443  10.287 -0.0071  1.0995 -3.7359
  190POPC   C3821957   7.121   2.375  10.098  0.4895  0.2164  0.0815
  190POPC   H8X21958   7.027   2.433  10.113  0.8321  0.7374  0.2529
  190POPC   H8Y21959   7.096   2.277  10.051  2.5335 -0.5408  0.4794
  190POPC   C3921960   7.218   2.462  10.014 -0.3473  0.2213 -0.1590
  190POPC   H9X21961   7.311   2.407   9.988  0.0931  0.7170  0.3617
  190POPC   H9Y21962   7.260   2.548  10.070  1.4399  0.3880 -1.6719
  190POPC  C31021963   7.160   2.510   9.880  0.2782  0.4079 -0.4303
  190POPC  H10X21964   7.069   2.572   9.896 -1.4824 -2.2373  0.5750
  190POPC  H10Y21965   7.126   2.411   9.842  0.2015  0.4501 -0.4723
  190POPC  C31121966   7.257   2.571   9.774 -0.4913 -0.1342 -0.4061
  190POPC  H11X21967   7.349   2.509   9.776  0.0061  0.5964  1.3534
  190POPC  H11Y21968   7.284   2.673   9.809  1.6646 -0.1123 -1.9425
  190POPC  C31221969   7.204   2.577   9.629  0.3521 -0.8210 -0.4932
  190POPC  H12X21970   7.102   2.621   9.622  1.4454  1.8155 -0.9939
  190POPC  H12Y21971   7.189   2.473   9.593 -3.2555 -0.3543 -0.6981
  190POPC  C31321972   7.301   2.655   9.537  0.4539  0.5108 -0.6527
  190POPC  H13X21973   7.403   2.610   9.540  0.2636  0.1413  0.9994
  190POPC  H13Y21974   7.322   2.763   9.553  2.2957  0.0580  0.2443
  190POPC  C31421975   7.248   2.654   9.390  0.2547 -0.4044  0.1439
  190POPC  H14X21976   7.309   2.722   9.326 -2.7000 -0.1988 -2.7068
  190POPC  H14Y21977   7.146   2.696   9.398  0.2554 -0.4854  0.5663
  190POPC  C31521978   7.263   2.523   9.323 -0.5043 -0.1012 -0.4596
  190POPC  H15X21979   7.208   2.448   9.384  1.5089 -0.6495  0.7918
  190POPC  H15Y21980   7.370   2.495   9.316 -0.0983  1.0376  0.5547
  190POPC  C31621981   7.210   2.536   9.181 -0.0191 -0.7064  0.6413
  190POPC  H16X21982   7.228   2.441   9.126  1.3227 -0.5234  0.7292
  190POPC  H16Y21983   7.259   2.605   9.110 -0.5883 -0.2151  0.7207
  190POPC  H16Z21984   7.102   2.561   9.183  0.6936  3.0557  0.0674
  191POPC     N21985   0.993   3.662   6.409  0.5254  0.6481 -0.3122
  191POPC   C1221986   1.142   3.668   6.379 -0.3108  0.1168 -0.1158
  191POPC  H12A21987   1.182   3.648   6.477 -3.2917  0.6691  1.3432
  191POPC  H12B21988   1.160   3.772   6.354 -1.1530  0.2400 -0.2604
  191POPC   C1321989   0.951   3.792   6.476 -0.6727 -0.9218 -0.3409
  191POPC  H13A21990   0.951   3.880   6.414  2.0067 -0.4806  0.1759
  191POPC  H13B21991   0.851   3.795   6.517  0.9483 -3.2311  4.6215
  191POPC  H13C21992   1.006   3.806   6.567 -1.7101 -1.5141  0.4009
  191POPC   C1421993   0.915   3.649   6.285  0.1528 -0.2530  0.3013
  191POPC  H14A21994   0.943   3.730   6.220 -0.5412 -1.1182 -1.1321
  191POPC  H14B21995   0.949   3.563   6.229  2.8021  1.6944 -1.3025
  191POPC  H14C21996   0.808   3.648   6.300  0.0311  1.9452 -0.0576
  191POPC   C1521997   0.943   3.543   6.486  0.1178 -0.1113 -0.6778
  191POPC  H15A21998   0.987   3.546   6.585  1.3294  0.5087 -1.2069
  191POPC  H15B21999   0.978   3.456   6.433 -1.0343  0.0360 -1.7203
  191POPC  H15C22000   0.836   3.535   6.494  0.0819  0.2902 -0.7750
  191POPC   C1122001   1.206   3.576   6.271  0.0319  0.6088  0.0573
  191POPC  H11A22002   1.312   3.610   6.277  0.2058  0.0047  0.4944
  191POPC  H11B22003   1.184   3.612   6.168 -2.2194  1.3185  0.7447
  191POPC     P22004   1.258   3.354   6.404 -0.3938 -0.1413  0.0673
  191POPC   O1322005   1.366   3.276   6.338 -0.3665 -0.4242 -0.9230
  191POPC   O1422006   1.154   3.280   6.486 -0.5235 -0.4167  0.2248
  191POPC   O1222007   1.189   3.437   6.299  0.3491  0.6386  0.3183
  191POPC   O1122008   1.316   3.469   6.494  0.5602  0.0340  0.0361
  191POPC    C122009   1.413   3.438   6.596  0.2611  0.6594  0.6087
  191POPC    HA22010   1.504   3.496   6.569 -0.4722  0.8031 -1.8365
  191POPC    HB22011   1.449   3.333   6.590 -1.0224  0.2147  0.2077
  191POPC    C222012   1.368   3.478   6.738  0.2913  0.3314  0.0503
  191POPC    HS22013   1.347   3.587   6.742 -0.1423  0.2223  2.4797
  191POPC   O2122014   1.465   3.431   6.831  0.4820 -0.0209  0.0271
  191POPC   C2122015   1.478   3.496   6.943 -0.1581  0.3549 -0.2844
  191POPC   O2222016   1.436   3.604   6.974 -0.0828 -0.1643 -0.3480
  191POPC   C2222017   1.569   3.431   7.042 -0.0231  0.5938 -0.5141
  191POPC   H2R22018   1.673   3.416   7.005  0.2257  1.6169 -0.2888
  191POPC   H2S22019   1.541   3.326   7.063  1.2065  0.4709  0.6307
  191POPC    C322020   1.227   3.417   6.765 -0.3050 -0.0180  0.4239
  191POPC    HX22021   1.242   3.309   6.745  2.1406  0.4630 -0.6991
  191POPC    HY22022   1.160   3.448   6.682 -0.2230 -0.7704  0.0683
  191POPC   O3122023   1.182   3.448   6.903 -0.2115 -0.0386  0.3641
  191POPC   C3122024   1.117   3.561   6.907 -0.2433 -0.9515  0.3211
  191POPC   O3222025   1.079   3.625   6.807 -0.3507  0.3703  0.0766
  191POPC   C3222026   1.105   3.609   7.055 -0.5240  0.3046 -0.2418
  191POPC   H2X22027   1.210   3.624   7.090 -1.1754  0.9202  1.5051
  191POPC   H2Y22028   1.073   3.525   7.119 -1.6213 -0.0464 -1.2161
  191POPC   C2322029   1.582   3.503   7.186  0.4025  0.0642 -0.0474
  191POPC   H3R22030   1.600   3.613   7.184 -0.3751  0.2130 -2.5391
  191POPC   H3S22031   1.668   3.446   7.227  1.2631 -1.5350 -3.6773
  191POPC   C2422032   1.465   3.464   7.280  0.5275 -0.7064 -1.1084
  191POPC   H4R22033   1.456   3.353   7.280  2.5079 -0.9122 -2.0380
  191POPC   H4S22034   1.371   3.492   7.228 -0.2679  0.5377  0.8969
  191POPC   C2522035   1.485   3.539   7.412  0.1415 -0.5093 -0.0620
  191POPC   H5R22036   1.499   3.646   7.388  2.4486 -0.9213 -0.8178
  191POPC   H5S22037   1.580   3.505   7.458  0.0301 -0.6149  0.0920
  191POPC   C2622038   1.361   3.507   7.507 -0.6395  0.4572 -0.3375
  191POPC   H6R22039   1.380   3.406   7.547 -0.4412  0.3551 -0.6896
  191POPC   H6S22040   1.266   3.510   7.449 -1.4423  3.3511  0.9049
  191POPC   C2722041   1.336   3.608   7.621  0.0383 -0.3023  0.0467
  191POPC   H7R22042   1.236   3.596   7.668 -0.3893  0.5806 -0.6118
  191POPC   H7S22043   1.333   3.701   7.561 -3.6206 -0.0151  0.4213
  191POPC   C2822044   1.440   3.609   7.734 -0.1447  0.1250 -0.9704
  191POPC   H8R22045   1.427   3.706   7.786 -0.3626 -0.4099  0.0118
  191POPC   H8S22046   1.535   3.607   7.676  1.0785  0.0995  0.9238
  191POPC   C2922047   1.431   3.497   7.843  0.0935 -0.1356 -0.0168
  191POPC   H9122048   1.428   3.403   7.785 -1.6989  1.2418 -2.3502
  191POPC  C21022049   1.424   3.493   7.977 -0.2411 -0.0833  0.1697
  191POPC  H10122050   1.432   3.397   8.030 -1.3993  0.2931  1.0624
  191POPC  C21122051   1.420   3.620   8.061 -0.4951 -0.1267  1.0461
  191POPC  H11R22052   1.316   3.648   8.088 -0.4148 -0.4657  1.7171
  191POPC  H11S22053   1.464   3.703   8.002 -1.2055 -1.3318 -1.3088
  191POPC  C21222054   1.494   3.619   8.199  0.0443 -0.0779 -0.4266
  191POPC  H12R22055   1.604   3.616   8.189  0.0777 -1.3365  0.1606
  191POPC  H12S22056   1.475   3.518   8.239 -0.2889  0.7371  1.6209
  191POPC  C21322057   1.449   3.733   8.294  0.0297 -0.5851  0.3537
  191POPC  H13R22058   1.340   3.725   8.311  0.1365  0.7755  1.9086
  191POPC  H13S22059   1.462   3.833   8.249 -1.5166 -0.2370  0.6253
  191POPC  C21422060   1.536   3.740   8.421 -0.5695 -0.1095 -0.5632
  191POPC  H14R22061   1.643   3.754   8.398 -0.0168  0.7270  2.1397
  191POPC  H14S22062   1.536   3.649   8.485 -1.5495  0.0283 -0.3486
  191POPC  C21522063   1.496   3.856   8.513 -0.5372 -0.4454  0.2329
  191POPC  H15R22064   1.395   3.852   8.560 -0.6416  1.9230  0.3442
  191POPC  H15S22065   1.501   3.949   8.452  5.3265  0.3795  1.4057
  191POPC  C21622066   1.590   3.886   8.625 -0.7151 -0.1202  0.2160
  191POPC  H16R22067   1.572   3.980   8.682  1.9184  1.3031 -1.1384
  191POPC  H16S22068   1.688   3.898   8.575 -0.6016 -1.1568  0.1723
  191POPC  C21722069   1.606   3.776   8.738 -0.8892 -0.5607  0.8037
  191POPC  H17R22070   1.522   3.705   8.723 -0.5250 -0.6239 -1.3345
  191POPC  H17S22071   1.600   3.816   8.842 -1.3381 -0.1975  0.6421
  191POPC  C21822072   1.742   3.708   8.720  0.4164  0.3432  0.4024
  191POPC  H18R22073   1.755   3.630   8.798 -0.3806  1.1184  1.3394
  191POPC  H18S22074   1.826   3.780   8.732  0.0788  0.9977 -1.0180
  191POPC  H18T22075   1.748   3.667   8.617  1.2411  0.1394  0.5266
  191POPC   C3322076   1.016   3.728   7.072  0.1675 -0.1597  0.1012
  191POPC   H3X22077   0.933   3.708   7.000 -2.2321  0.6119  2.5053
  191POPC   H3Y22078   1.066   3.824   7.046 -0.5206 -0.0644 -0.9373
  191POPC   C3422079   0.942   3.735   7.209 -0.4336 -0.1939 -0.1938
  191POPC   H4X22080   0.899   3.634   7.228  1.9028 -0.8543  2.0599
  191POPC   H4Y22081   0.860   3.809   7.197  0.4351  0.9213  0.4878
  191POPC   C3522082   1.022   3.783   7.330  0.0257  0.3701  0.0433
  191POPC   H5X22083   1.062   3.886   7.323 -0.3277  0.4155 -1.8531
  191POPC   H5Y22084   1.116   3.725   7.345 -0.9806 -1.7122 -1.0859
  191POPC   C3622085   0.931   3.772   7.452 -0.2825 -0.5445  0.0943
  191POPC   H6X22086   0.901   3.666   7.468 -3.2198  0.3194  1.0974
  191POPC   H6Y22087   0.831   3.815   7.427  0.6116  0.3799 -2.1062
  191POPC   C3722088   0.996   3.831   7.583  0.3413 -0.2603  1.0665
  191POPC   H7X22089   1.018   3.939   7.565  0.0092 -0.6035 -2.0439
  191POPC   H7Y22090   1.089   3.775   7.606  2.9056  3.2080  0.1070
  191POPC   C3822091   0.893   3.822   7.697  0.4023  0.3135 -0.0357
  191POPC   H8X22092   0.833   3.729   7.690 -0.6802  1.0878 -1.5640
  191POPC   H8Y22093   0.816   3.899   7.675  0.2893 -0.4778 -2.7977
  191POPC   C3922094   0.963   3.848   7.826  0.0677 -0.0385  0.3427
  191POPC   H9X22095   1.008   3.949   7.821 -1.0858  0.4319 -2.1486
  191POPC   H9Y22096   1.036   3.764   7.832 -2.8052 -2.6883  0.8166
  191POPC  C31022097   0.874   3.836   7.950 -0.8249  0.0318  1.0833
  191POPC  H10X22098   0.824   3.737   7.952  0.0145 -0.4433  4.3047
  191POPC  H10Y22099   0.800   3.916   7.928  2.2133  2.6116 -0.5935
  191POPC  C31122100   0.951   3.833   8.079 -0.0195  1.0264 -0.2162
  191POPC  H11X22101   1.003   3.930   8.094 -2.1150  2.0075  1.1778
  191POPC  H11Y22102   1.033   3.758   8.069 -0.6037  0.3310  0.1082
  191POPC  C31222103   0.869   3.805   8.206  0.5820 -0.2131  0.2483
  191POPC  H12X22104   0.837   3.701   8.181  0.2770  1.0080 -6.3792
  191POPC  H12Y22105   0.794   3.887   8.203  0.4826 -0.3212 -0.3660
  191POPC  C31322106   0.923   3.809   8.346  0.6150 -0.1595 -0.0154
  191POPC  H13X22107   1.024   3.761   8.347  0.1810 -1.4404 -3.5599
  191POPC  H13Y22108   0.860   3.741   8.408 -0.7915 -1.3906 -2.6162
  191POPC  C31422109   0.922   3.955   8.410 -0.2331  0.1167  0.1016
  191POPC  H14X22110   0.822   4.001   8.401  0.0760  0.8669  0.4612
  191POPC  H14Y22111   1.000   4.011   8.355  0.8898 -1.9185 -0.4764
  191POPC  C31522112   0.970   3.970   8.559  0.2614  0.2545  0.0082
  191POPC  H15X22113   0.882   3.938   8.619 -0.6296  0.8074 -0.9775
  191POPC  H15Y22114   0.976   4.079   8.580  0.6899  0.7865 -2.5514
  191POPC  C31622115   1.100   3.896   8.591  0.0730  0.2694  0.5228
  191POPC  H16X22116   1.182   3.929   8.524 -1.0616 -1.3257 -1.7942
  191POPC  H16Y22117   1.079   3.793   8.556 -1.4211  1.2936 -1.8273
  191POPC  H16Z22118   1.130   3.902   8.698 -0.0447  1.7627  0.4992
  192POPC     N22119   1.252   0.123   5.988 -0.2847 -0.8342 -0.2208
  192POPC   C1222120   1.228   0.228   6.104  0.4873  0.4131 -0.3423
  192POPC  H12A22121   1.122   0.224   6.124  0.3236  3.9417  0.0765
  192POPC  H12B22122   1.236   0.327   6.062 -1.4876  0.4133 -0.8436
  192POPC   C1322123   1.388   0.148   5.927 -0.4849 -0.9907  1.1284
  192POPC  H13A22124   1.381   0.241   5.873 -0.2733 -2.5483 -1.7886
  192POPC  H13B22125   1.470   0.158   5.997 -0.3606 -0.5201  0.9171
  192POPC  H13C22126   1.421   0.065   5.866 -0.4906 -0.6026  0.5914
  192POPC   C1422127   1.238  -0.013   6.043  0.3552  0.2292 -0.4123
  192POPC  H14A22128   1.265  -0.083   5.966  1.0962  0.0874 -0.0289
  192POPC  H14B22129   1.303  -0.029   6.127 -0.4812 -1.1940 -0.0020
  192POPC  H14C22130   1.137  -0.024   6.080  1.4524 -1.6306  2.3800
  192POPC   C1522131   1.144   0.154   5.889 -0.1294 -0.2519 -0.0334
  192POPC  H15A22132   1.049   0.147   5.939  0.1837  0.2233  0.6416
  192POPC  H15B22133   1.153   0.084   5.807  0.6493  0.7561 -0.8531
  192POPC  H15C22134   1.156   0.251   5.842  0.7455  0.3815  1.4275
  192POPC   C1122135   1.301   0.223   6.240  0.2515  0.3982 -0.5791
  192POPC  H11A22136   1.276   0.312   6.301 -0.5233 -0.4311  0.3620
  192POPC  H11B22137   1.410   0.227   6.222  0.3339  2.3724  0.1465
  192POPC     P22138   1.164   0.090   6.415  0.1336  0.4720  0.2512
  192POPC   O1322139   1.129  -0.054   6.437 -0.4864 -0.5418 -0.2930
  192POPC   O1422140   1.053   0.175   6.369 -0.9345  0.2004 -0.6428
  192POPC   O1222141   1.278   0.102   6.312 -0.4381 -0.1016 -0.4396
  192POPC   O1122142   1.233   0.148   6.540  0.2417  0.5588 -0.6514
  192POPC    C122143   1.372   0.119   6.571  0.1814  0.2570  0.6118
  192POPC    HA22144   1.415   0.181   6.653 -0.2964  0.3132  0.8185
  192POPC    HB22145   1.442   0.127   6.485  1.9723 -0.2483  1.9488
  192POPC    C222146   1.398  -0.032   6.615 -0.0666 -0.2036  0.6439
  192POPC    HS22147   1.356  -0.094   6.532 -0.4832  1.0964 -0.1502
  192POPC   O2122148   1.333  -0.057   6.739  0.3750  0.0835  0.2996
  192POPC   C2122149   1.301  -0.180   6.759 -0.7273 -0.3524 -0.9272
  192POPC   O2222150   1.343  -0.271   6.695 -0.4159  0.6205  0.4513
  192POPC   C2222151   1.197  -0.184   6.862  0.2906  0.1456 -0.2886
  192POPC   H2R22152   1.107  -0.132   6.823  0.9688  0.9172 -0.8526
  192POPC   H2S22153   1.237  -0.143   6.957  0.1207  0.7290 -0.4659
  192POPC    C322154   1.549  -0.074   6.605 -0.3954  0.2229  0.3328
  192POPC    HX22155   1.581  -0.071   6.499 -0.4466 -0.3389  0.2966
  192POPC    HY22156   1.558  -0.182   6.631  1.5042 -0.3332 -2.2538
  192POPC   O3122157   1.633   0.008   6.685  0.3793  0.7271 -0.5308
  192POPC   C3122158   1.761  -0.006   6.668  0.3691  0.0495 -0.4026
  192POPC   O3222159   1.810  -0.098   6.606  0.1278  0.1582 -0.2197
  192POPC   C3222160   1.843   0.091   6.752  0.0319 -0.3667  0.0882
  192POPC   H2X22161   1.785   0.137   6.835  0.8018 -1.4783  1.2722
  192POPC   H2Y22162   1.870   0.171   6.679  2.3930  1.3999  2.7114
  192POPC   C2322163   1.140  -0.324   6.893  0.0428  0.6865  0.4707
  192POPC   H3R22164   1.228  -0.385   6.924 -1.0388 -3.7370 -3.8427
  192POPC   H3S22165   1.092  -0.371   6.804  1.0286 -4.3409  2.2604
  192POPC   C2422166   1.030  -0.328   6.997  0.8766  0.8730 -0.0285
  192POPC   H4R22167   0.947  -0.263   6.963  0.2223  0.0712  0.0153
  192POPC   H4S22168   1.061  -0.280   7.092 -0.5365  1.2455  0.2617
  192POPC   C2522169   0.985  -0.471   7.028 -0.0377  0.3090  0.5179
  192POPC   H5R22170   1.079  -0.525   7.047 -0.4728 -1.6827 -2.4219
  192POPC   H5S22171   0.943  -0.520   6.938 -1.2012 -0.2938  1.3585
  192POPC   C2622172   0.889  -0.490   7.155  0.3182  0.0927 -0.1658
  192POPC   H6R22173   0.905  -0.405   7.224 -0.1241  0.2643 -0.2777
  192POPC   H6S22174   0.908  -0.581   7.217  0.8217  1.7892  2.3211
  192POPC   C2722175   0.746  -0.501   7.110  0.4908 -0.4591 -0.4238
  192POPC   H7R22176   0.711  -0.601   7.077  2.1758 -1.0304 -0.5612
  192POPC   H7S22177   0.744  -0.429   7.025  2.2832  0.2546  0.1012
  192POPC   C2822178   0.648  -0.481   7.230 -0.0057 -0.2971  0.3141
  192POPC   H8R22179   0.541  -0.484   7.200 -0.0922 -0.0119  0.5894
  192POPC   H8S22180   0.659  -0.376   7.263  2.0892 -0.8352  1.5141
  192POPC   C2922181   0.679  -0.574   7.350  0.2667  0.2064  0.0654
  192POPC   H9122182   0.658  -0.681   7.336 -0.8854  0.2150  1.5155
  192POPC  C21022183   0.733  -0.534   7.469  0.3244  0.0140 -0.5799
  192POPC  H10122184   0.759  -0.622   7.530 -1.3402 -0.0526  0.0715
  192POPC  C21122185   0.755  -0.401   7.524 -0.2218 -0.2916  0.0194
  192POPC  H11R22186   0.703  -0.396   7.622 -0.9756 -0.2307 -0.3834
  192POPC  H11S22187   0.703  -0.324   7.463 -1.2245 -0.5087  0.5853
  192POPC  C21222188   0.908  -0.362   7.543 -0.5628 -0.2019 -0.1981
  192POPC  H12R22189   0.918  -0.257   7.577  2.5128 -0.0729 -1.1776
  192POPC  H12S22190   0.950  -0.373   7.441 -1.2025 -0.8979 -0.3940
  192POPC  C21322191   0.988  -0.464   7.630 -0.3073  0.0201  0.3366
  192POPC  H13R22192   1.095  -0.438   7.617 -0.0279 -2.1884 -3.2862
  192POPC  H13S22193   0.977  -0.569   7.595 -0.2244  0.6887 -1.8465
  192POPC  C21422194   0.962  -0.454   7.781  0.1994  0.0949  1.0007
  192POPC  H14R22195   0.862  -0.504   7.785  0.5428 -0.7446 -0.3205
  192POPC  H14S22196   0.958  -0.344   7.793  2.5641  0.3602 -0.1064
  192POPC  C21522197   1.072  -0.527   7.864 -0.0282 -0.7158 -0.3071
  192POPC  H15R22198   1.163  -0.462   7.859  0.4141 -1.1585  1.2117
  192POPC  H15S22199   1.082  -0.629   7.823 -1.7088 -0.4027 -1.5924
  192POPC  C21622200   1.037  -0.540   8.013 -0.5631 -0.4231  0.7606
  192POPC  H16R22201   1.132  -0.561   8.067  0.0125  0.6329  0.2049
  192POPC  H16S22202   0.970  -0.628   8.017  1.1182 -1.8603 -0.7805
  192POPC  C21722203   0.972  -0.411   8.067 -0.9117 -0.1154 -0.0129
  192POPC  H17R22204   0.961  -0.435   8.175  2.0554  2.7813  1.1166
  192POPC  H17S22205   0.874  -0.384   8.023 -0.7231  0.2960 -0.1821
  192POPC  C21822206   1.068  -0.294   8.072  0.4269 -0.4084  0.3378
  192POPC  H18R22207   1.028  -0.216   8.140 -0.4811 -0.2797 -0.3291
  192POPC  H18S22208   1.089  -0.248   7.973  1.2969 -0.0156  0.6933
  192POPC  H18T22209   1.167  -0.322   8.114  0.6884 -0.1724 -0.1183
  192POPC   C3322210   1.969   0.022   6.816  0.4719 -0.1135 -0.0257
  192POPC   H3X22211   2.006  -0.053   6.743 -2.4614  0.9599 -2.9125
  192POPC   H3Y22212   1.949  -0.035   6.909 -0.8665 -2.6538 -1.7180
  192POPC   C3422213   2.078   0.115   6.843 -0.2452 -0.2438  0.4284
  192POPC   H4X22214   2.104   0.166   6.748 -0.6337 -1.1923 -0.2081
  192POPC   H4Y22215   2.169   0.053   6.862 -0.1981  0.1123  1.4181
  192POPC   C3522216   2.050   0.207   6.954 -0.3776 -0.6761 -0.1978
  192POPC   H5X22217   1.956   0.263   6.937 -0.2278  0.0846  1.2481
  192POPC   H5Y22218   2.136   0.277   6.967 -1.4749  0.3419  2.2117
  192POPC   C3622219   2.044   0.137   7.090 -0.3312 -0.2949 -0.3093
  192POPC   H6X22220   2.130   0.069   7.105 -1.4739 -1.8374 -0.5993
  192POPC   H6Y22221   1.947   0.084   7.092 -1.7067  2.0794  0.3015
  192POPC   C3722222   2.034   0.233   7.204 -0.0517  0.3719 -0.7902
  192POPC   H7X22223   1.934   0.283   7.197  0.9111  2.4175 -0.6545
  192POPC   H7Y22224   2.109   0.313   7.186  0.5887  0.1299  0.6594
  192POPC   C3822225   2.066   0.162   7.340  0.4670 -0.3176  0.1803
  192POPC   H8X22226   2.174   0.140   7.350  0.0771 -2.0452  1.0817
  192POPC   H8Y22227   2.015   0.064   7.340  0.0734 -0.1609  2.1819
  192POPC   C3922228   2.029   0.256   7.459  0.0423  0.3832 -0.5764
  192POPC   H9X22229   1.922   0.288   7.454 -0.1181  0.1150  0.8623
  192POPC   H9Y22230   2.096   0.344   7.458 -0.2583  0.6515  0.6552
  192POPC  C31022231   2.046   0.179   7.592 -0.5874 -0.2742 -0.2242
  192POPC  H10X22232   2.145   0.131   7.607 -0.5023 -0.6658 -1.8355
  192POPC  H10Y22233   1.980   0.090   7.592  0.2508 -0.9333  1.6446
  192POPC  C31122234   2.033   0.271   7.713 -0.5227 -0.0089 -0.2432
  192POPC  H11X22235   1.928   0.286   7.747  0.4514  0.5028  2.8198
  192POPC  H11Y22236   2.076   0.367   7.677  0.3284 -0.4634 -0.4656
  192POPC  C31222237   2.100   0.226   7.839 -0.5731 -0.9149  0.0577
  192POPC  H12X22238   2.085   0.305   7.916 -1.2716 -0.6959 -0.2955
  192POPC  H12Y22239   2.210   0.223   7.823 -0.0099  2.0774  2.3779
  192POPC  C31322240   2.048   0.090   7.895 -0.5279  0.2736 -0.6059
  192POPC  H13X22241   2.052   0.008   7.820 -0.6045 -0.0060 -0.3087
  192POPC  H13Y22242   1.941   0.091   7.925 -0.3085 -2.5352  0.5659
  192POPC  C31422243   2.130   0.034   8.009  0.5592 -0.7688  0.0501
  192POPC  H14X22244   2.106   0.102   8.094 -3.0978 -1.5026 -0.2409
  192POPC  H14Y22245   2.237   0.045   7.982  0.1933  1.8787 -0.6542
  192POPC  C31522246   2.089  -0.107   8.033 -0.0291 -0.0053  0.6045
  192POPC  H15X22247   2.112  -0.165   7.941  1.2100 -0.7862  1.3765
  192POPC  H15Y22248   1.981  -0.108   8.059 -0.1392 -0.6138  0.1570
  192POPC  C31622249   2.183  -0.169   8.142  0.1978  0.0823 -0.6295
  192POPC  H16X22250   2.285  -0.142   8.107  0.3495 -0.3696 -0.5493
  192POPC  H16Y22251   2.172  -0.280   8.141  0.6577  0.0087  0.6231
  192POPC  H16Z22252   2.154  -0.141   8.245  1.8437 -1.1039  0.1939
  193SOD    SOD22253   4.493   1.338   2.294 -0.2523 -0.1084  0.1318
  194SOD    SOD22254   6.261   0.888   0.728 -0.2956  0.0367  0.4401
  195SOD    SOD22255   6.770   5.478  12.394  0.0241 -0.9165  0.1015
  196SOD    SOD22256   1.823   2.448   4.526  0.5495 -0.0546 -0.5965
  197SOD    SOD22257   4.027   2.549   5.123 -0.5875  0.3972 -0.0678
  198SOD    SOD22258   3.383   3.156   4.218  0.2314 -0.0834 -0.3275
  199SOD    SOD22259   0.605   2.880  11.611  0.1711  0.3745  0.2843
  200SOD    SOD22260   5.514   5.264  13.929 -0.0669  0.1277 -0.2552
  201SOD    SOD22261   5.026   4.272  11.490  0.5660 -0.1760 -0.4548
  202SOD    SOD22262   3.211   6.232  14.790 -0.0634  0.4703 -0.1391
  203SOD    SOD22263   2.937   1.583  16.207  0.3330  0.3409 -0.1279
  204SOD    SOD22264   4.493   4.510  13.702  0.1008  0.5029  0.0492
  205SOD    SOD22265   5.626   6.490   6.189  0.0679  0.2946 -0.3024
  206SOD    SOD22266   6.282   0.451   5.079  0.3419 -0.3366 -0.1105
  207SOD    SOD22267   1.762   3.855  14.374  0.0729  0.1246 -0.0163
  208SOD    SOD22268   1.594   0.110  13.586 -0.0560 -0.3084  0.1057
  209SOD    SOD22269   4.844   3.870   2.694  0.1421  0.3275  0.2903
  210SOD    SOD22270   6.735   5.477  14.691 -0.0734 -0.3426 -0.1052
  211SOD    SOD22271   6.047   2.410  12.300 -0.0519 -0.5595  0.2140
  212SOD    SOD22272   3.610   1.180   3.162  0.1498 -0.1685  0.0838
  213SOD    SOD22273   5.518   1.772   4.497 -0.1824 -0.1008 -0.3662
  214SOD    SOD22274   1.186   3.792  16.179 -0.2444  0.2798 -0.1664
  215SOD    SOD22275   6.709   4.165   2.800 -0.7571 -1.0237  0.0877
  216SOD    SOD22276   5.153   1.218   0.707  0.0767  0.0935  0.2314
  217SOD    SOD22277   1.807   5.402  12.448 -0.0622 -0.2387 -0.0343
  218SOD    SOD22278   4.637   1.756   6.541  0.6256  0.1455  0.0482
  219SOD    SOD22279   0.205   3.266   5.950  0.1083 -0.5287  0.1405
  220SOD    SOD22280   3.168   6.487   5.733  0.3165 -0.0564  0.7105
  221SOD    SOD22281   4.167   5.623   4.307  0.1390 -0.3420  0.3309
  222SOD    SOD22282   5.586   0.660   5.397 -0.2221  0.2290  0.0074
  223SOD    SOD22283   2.285   4.560   4.799 -0.1535  0.6025  0.0318
  224SOD    SOD22284   0.361   3.403  11.752 -0.4173 -0.7246  0.4262
  225SOD    SOD22285   1.134   2.268   1.888  0.2869 -0.0388  0.1083
  226SOD    SOD22286   0.431   1.337  14.106  0.2665  0.5120  0.7327
  227SOD    SOD22287   0.532   6.120   4.419  0.1099  0.4391  0.2525
  228SOD    SOD22288   4.355   4.625  12.238  0.2451  0.0239  0.3229
  229SOD    SOD22289   4.183   0.794  15.603  0.4019 -0.0573 -0.0721
  230SOD    SOD22290   1.663   4.582   1.638 -0.0101  0.1007 -0.3069
  231SOD    SOD22291   1.270   1.502  15.871 -0.3552  0.3835  0.2713
  232SOD    SOD22292   3.908   5.401  10.991  0.1869 -0.0266 -0.1107
  233SOD    SOD22293   1.199   0.578   6.528 -0.1123 -0.3404  0.1741
  234SOD    SOD22294   3.099   2.437   6.293 -0.3219  0.0758 -0.3325
  235SOD    SOD22295   3.845   1.038  11.439  0.0628 -0.1590  0.2050
  236SOD    SOD22296   6.119   5.848  16.303  0.5351  0.1533 -0.2388
  237SOD    SOD22297   4.044   4.462  16.838  0.0384  0.2243 -0.3835
  238SOD    SOD22298   5.529   5.271   0.695 -0.0317  0.0076  0.0307
  239SOD    SOD22299   1.767   5.836   1.323  0.3040 -0.4666  0.2427
  240SOD    SOD22300   0.112   3.766  14.060 -0.0739  0.0121  0.0900
  241SOD    SOD22301   1.670   1.413  14.001  0.0034 -0.1652  0.2698
  242SOD    SOD22302   5.000   4.223   5.111  0.3925 -0.3851 -0.5832
  243SOD    SOD22303   1.298   2.529   5.949 -0.3408 -0.1695  0.0645
  244SOD    SOD22304   0.734   4.747   4.225  0.1768 -1.0425 -0.1481
  245SOD    SOD22305   0.413   4.827  15.600 -0.0515  0.2516 -0.1628
  246SOD    SOD22306   6.151   5.765   4.925 -0.2708 -0.2469 -0.2088
  247SOD    SOD22307   6.626   6.407   3.239  0.4309  0.6633  0.6592
  248SOD    SOD22308   4.268   5.727  16.868 -0.4245  0.7640 -0.1404
  249SOD    SOD22309   3.992   4.656   1.773 -0.2058 -0.0229 -0.3145
  250SOD    SOD22310   1.951   5.780   5.485 -0.4688  0.4178  0.0516
  251SOD    SOD22311   4.099   0.017  11.845  0.2377 -0.0546  0.4026
  252SOD    SOD22312   2.319   1.882  10.754 -0.0335  0.5605 -0.4281
  253SOD    SOD22313   1.536   0.910  11.172 -0.0577 -0.6745 -0.4752
  254SOD    SOD22314   1.938   2.097   3.516  0.2507 -0.4864 -0.2953
  255SOD    SOD22315   0.904   2.570  16.425 -0.2627  0.1475  0.4492
  256SOD    SOD22316   4.435   5.619   2.309  0.4558 -0.0453 -0.1378
  257SOD    SOD22317   6.379   6.260   2.100  0.2455 -0.6134 -0.3140
  258SOD    SOD22318   3.262   2.249   1.858 -0.1898 -0.3088  0.2380
  259SOD    SOD22319   0.596   0.131  10.518 -0.0192  0.0680  0.1736
  260SOD    SOD22320   4.809   1.647   6.206 -0.3924 -0.4424  0.2540
  261SOD    SOD22321   3.135   4.501   0.346 -0.3625  0.0147 -0.2147
  262SOD    SOD22322   6.395   0.734   3.449  0.2654 -0.2515  0.4694
  263SOD    SOD22323   6.752   4.370   5.092  0.2497 -0.2377 -0.0587
  264SOD    SOD22324   0.876   1.400   2.237 -0.2226  0.6716 -0.4606
  265SOD    SOD22325   5.640   0.835  11.095  0.1308 -0.1021 -0.3531
  266SOD    SOD22326   5.776   1.923  14.599 -0.4244 -0.0080  0.3261
  267SOD    SOD22327   5.583   2.872  15.195  0.3358 -0.6091  0.3239
  268SOD    SOD22328   4.167   6.728  14.781  0.2035  0.1571 -0.4875
  269SOD    SOD22329   2.252   1.634   1.678 -0.3094  0.0956  0.3301
  270CLA    CLA22330   0.258   4.726   2.744 -0.1526  0.2889  0.1738
  271CLA    CLA22331   0.368   4.121   4.150  0.3068 -0.4591 -0.2049
  272CLA    CLA22332   0.577   5.947  11.996 -0.1778 -0.0529  0.2218
  273CLA    CLA22333   1.140   4.025  14.019  0.3252  0.1919 -0.0456
  274CLA    CLA22334   0.878   5.166  15.726 -0.0803 -0.1365 -0.1787
  275CLA    CLA22335   6.211   4.848   4.570  0.0783 -0.3543  0.2711
  276CLA    CLA22336   2.967   3.787   5.837 -0.0068 -0.2635  0.0869
  277CLA    CLA22337   5.357   5.714  14.208  0.0511 -0.4553  0.1495
  278CLA    CLA22338   2.215   0.099  14.549 -0.1715 -0.2806  0.3229
  279CLA    CLA22339   3.819   6.467   1.479 -0.0037  0.1858  0.2659
  280CLA    CLA22340   6.344   6.008   1.563  0.5731  0.2472  0.2955
  281CLA    CLA22341   3.272   2.720   3.140 -0.0328  0.2884  0.0554
  282CLA    CLA22342   5.631   0.244   2.919  0.2191 -0.4790 -0.3346
  283CLA    CLA22343   1.346   5.746   4.450 -0.2036  0.0641  0.1888
  284CLA    CLA22344   5.352   5.741   5.747 -0.0873 -0.2953  0.4555
  285CLA    CLA22345   4.440   4.099   2.495 -0.0502  0.2526 -0.1631
  286CLA    CLA22346   6.469   5.019  13.594  0.3416  0.1995 -0.0163
  287CLA    CLA22347   5.058   1.571   2.639  0.0238  0.1206  0.0997
  288CLA    CLA22348   0.589   3.053  14.106 -0.1247 -0.1369 -0.2335
  289CLA    CLA22349   6.576   2.489  16.051 -0.1899  0.1297 -0.2343
  290CLA    CLA22350   1.098   4.096   1.851  0.1044  0.2431 -0.2132
  291CLA    CLA22351   0.047   1.515  15.222 -0.1040 -0.5346 -0.2162
  292CLA    CLA22352   4.922   5.070  15.673  0.0801  0.4607 -0.3367
  293CLA    CLA22353   2.844   3.574  13.776  0.2155  0.3920 -0.2485
  294CLA    CLA22354   2.752   4.009  16.155 -0.2567 -0.2297  0.0074
  295CLA    CLA22355   2.438   3.099   1.144 -0.0544  0.0819 -0.2022
  296CLA    CLA22356   1.690   5.848  15.559 -0.3512  0.0729 -0.1728
  297CLA    CLA22357   5.447   0.216   0.332  0.3169 -0.4392  0.1863
  298CLA    CLA22358   3.194   1.865   2.411  0.2401 -0.1015  0.2448
  299CLA    CLA22359   5.758   6.427  15.554 -0.1843  0.3436  0.1967
  300CLA    CLA22360   4.758   0.933   2.957 -0.3681 -0.2237  0.1775
  301CLA    CLA22361   4.867   3.430  15.796 -0.3047 -0.2775  0.0798
  302CLA    CLA22362   0.298   5.983   3.998 -0.3035  0.3626  0.1995
  303CLA    CLA22363   1.625   0.455  14.103 -0.5058  0.6640 -0.2503
  304CLA    CLA22364   3.160   4.188  15.877  0.0832 -0.3971 -0.3945
  305CLA    CLA22365   0.811   2.151  16.698 -0.1253 -0.1974  0.0900
  306CLA    CLA22366   1.746   4.366   0.187 -0.3408 -0.3176  0.3234
  307CLA    CLA22367   0.083   5.788  15.008  0.1199  0.3597  0.6821
  308CLA    CLA22368   1.336   3.548  16.196  0.3087  0.3893  0.2314
  309CLA    CLA22369   0.760   1.418   4.655  0.1421  0.5736  0.0558
  310CLA    CLA22370   0.290   1.796   2.009  0.4048  0.1141 -0.1795
  311CLA    CLA22371   4.332   5.159  15.135 -0.8097  0.4680  0.2982
  312CLA    CLA22372   0.657   6.016   3.702  0.1992  0.0219  0.1337
  313CLA    CLA22373   0.761   5.179   1.569  0.2404  0.1540  0.1046
  314CLA    CLA22374   0.540   0.772   4.395 -0.2497 -0.6113  0.1794
  315CLA    CLA22375   4.968   0.021   5.677 -0.0316  0.1998 -0.0610
  316CLA    CLA22376   5.840   5.333   4.611 -0.0003  0.3304  0.1562
  317CLA    CLA22377   0.633   5.750  12.885 -0.0641  0.4392 -0.0476
  318CLA    CLA22378   4.985   2.642  15.605 -0.0623 -0.0226 -0.3665
  319CLA    CLA22379   4.301   0.998   4.709  0.1280  0.0912  0.7984
  320CLA    CLA22380   2.077   1.505   1.830 -0.4711 -0.3197 -0.2509
  321CLA    CLA22381   5.702   1.618  12.334 -0.2191  0.3146  0.0247
  322CLA    CLA22382   4.768   2.424  14.445 -0.1489 -0.0319  0.0508
  323TIP3   OH222383   2.125   0.997  15.324 -0.1832 -0.5399 -0.1283
  323TIP3    H122384   2.170   0.965  15.402 -0.5689 -1.5641 -0.3036
  323TIP3    H222385   2.048   0.940  15.316  0.4516 -1.2240 -1.9057
  324TIP3   OH222386   6.781   4.497   2.387  0.3775  0.1101 -0.3031
  324TIP3    H122387   6.834   4.525   2.313 -0.7175  0.4392 -0.9928
  324TIP3    H222388   6.804   4.557   2.458  0.1324  0.9528 -0.9193
  325TIP3   OH222389   6.103   4.748  11.485  0.0519  0.3233  0.0922
  325TIP3    H122390   6.080   4.658  11.465  2.0734 -0.1874 -0.0885
  325TIP3    H222391   6.019   4.791  11.502 -1.1027 -1.1411 -1.5457
  326TIP3   OH222392   0.343   1.016   2.978  0.4519  0.1589  0.0223
  326TIP3    H122393   0.345   0.990   2.886 -0.2558  0.2723 -0.0291
  326TIP3    H222394   0.404   1.090   2.983  0.1284  0.4656 -0.4624
  327TIP3   OH222395   0.603   0.680   4.737 -0.1327  0.6572  0.2815
  327TIP3    H122396   0.579   0.704   4.647  0.6319  0.2229 -0.0549
  327TIP3    H222397   0.530   0.626   4.768 -0.3257  0.6724 -0.1372
  328TIP3   OH222398   1.746   5.725  17.319 -0.6550 -0.0099  0.2610
  328TIP3    H122399   1.767   5.656  17.381  2.8782  1.9245  1.4922
  328TIP3    H222400   1.772   5.690  17.234  0.7492 -0.3681  0.8196
  329TIP3   OH222401   3.481   2.245  15.216  0.2203  0.0538 -0.0636
  329TIP3    H122402   3.436   2.289  15.145 -0.2598  0.1103  0.2739
  329TIP3    H222403   3.574   2.255  15.195  0.0830 -0.1898 -0.8330
  330TIP3   OH222404   1.595   3.153  13.479 -0.1413  0.4850 -0.0468
  330TIP3    H122405   1.691   3.156  13.472  0.1687  0.8066  2.9211
  330TIP3    H222406   1.577   3.064  13.511 -0.6621  0.8534  0.7133
  331TIP3   OH222407   1.812   2.265  12.356 -0.3514 -0.2413 -0.2613
  331TIP3    H122408   1.789   2.183  12.314  1.1116 -0.8282  0.0168
  331TIP3    H222409   1.860   2.314  12.288  0.0917 -0.2559  0.0397
  332TIP3   OH222410   5.104   5.875   1.796  0.1256  0.5268  0.1538
  332TIP3    H122411   5.175   5.939   1.794 -0.7260  1.5275  0.6456
  332TIP3    H222412   5.081   5.870   1.889 -2.3034  2.3940 -0.2435
  333TIP3   OH222413   2.969   3.105   0.003 -0.1907  0.1720 -0.1918
  333TIP3    H122414   2.902   3.117  -0.065  0.8402  2.8120 -0.8605
  333TIP3    H222415   2.925   3.127   0.085 -0.3413  1.2634 -0.5523
  334TIP3   OH222416   5.235   4.329   4.039 -0.3915  0.1623 -0.7564
  334TIP3    H122417   5.185   4.332   4.120 -1.0723 -0.1486 -1.1531
  334TIP3    H222418   5.236   4.420   4.008  1.1664  0.5502  0.3521
  335TIP3   OH222419   0.268   0.378   3.266  0.7202 -0.0817  0.0059
  335TIP3    H122420   0.329   0.442   3.304 -0.1880  1.2770 -0.7479
  335TIP3    H222421   0.183   0.403   3.301  0.6482 -2.7040  2.0345
  336TIP3   OH222422   2.655   3.609   1.373 -0.1603 -0.3010  0.6818
  336TIP3    H122423   2.663   3.573   1.284 -1.2269  0.4782  0.2506
  336TIP3    H222424   2.636   3.533   1.428 -2.4422 -0.4564 -0.2151
  337TIP3   OH222425   0.423   6.428   2.726 -0.6306  0.3050  0.0044
  337TIP3    H122426   0.448   6.432   2.634  0.5203 -1.8431  0.1724
  337TIP3    H222427   0.478   6.494   2.768  0.3356 -0.1175 -0.5644
  338TIP3   OH222428   4.791   6.532   3.064 -0.4884 -0.4090 -0.2609
  338TIP3    H122429   4.776   6.604   3.002  1.9235  2.1511  1.8220
  338TIP3    H222430   4.844   6.469   3.015 -0.7038  0.3551 -1.5192
  339TIP3   OH222431   6.380   5.534   4.433 -0.4185 -0.3717 -0.3020
  339TIP3    H122432   6.388   5.456   4.486  1.4750 -1.0030 -1.4013
  339TIP3    H222433   6.313   5.513   4.368 -0.6215 -0.6908  0.0086
  340TIP3   OH222434   6.183   5.096  17.169  0.4506  0.5593 -0.1293
  340TIP3    H122435   6.134   5.028  17.123  0.8423  1.4338 -1.9470
  340TIP3    H222436   6.120   5.131  17.233  0.0927 -1.1313  0.4800
  341TIP3   OH222437   1.475   4.990  13.131 -0.4807 -0.3843  0.4643
  341TIP3    H122438   1.414   4.923  13.103  0.2608 -0.5821 -0.7169
  341TIP3    H222439   1.553   4.976  13.078  0.8366 -0.5043  2.3232
  342TIP3   OH222440   3.311   3.990  16.128  0.5142 -1.0963  0.3951
  342TIP3    H122441   3.254   4.066  16.121 -0.9006 -2.1413  0.1878
  342TIP3    H222442   3.338   3.971  16.038  0.3001 -1.2601  0.3657
  343TIP3   OH222443   2.291   1.172  13.330 -0.1981  0.6562  0.3805
  343TIP3    H122444   2.215   1.225  13.352 -0.2449  0.7768 -0.0713
  343TIP3    H222445   2.267   1.127  13.248 -0.0683  0.1221  0.6267
  344TIP3   OH222446   3.240   4.401  14.700 -0.5225  0.3297  0.4320
  344TIP3    H122447   3.231   4.322  14.753 -1.6809 -0.5288 -0.9703
  344TIP3    H222448   3.332   4.403  14.674 -1.1035 -2.5936 -2.4272
  345TIP3   OH222449   4.298   2.779  11.938 -0.6321 -0.3862 -0.4273
  345TIP3    H122450   4.317   2.685  11.944 -0.6487 -0.3682 -0.0955
  345TIP3    H222451   4.215   2.790  11.985 -1.4708 -0.4587 -1.8232
  346TIP3   OH222452   2.197   3.322   1.769  0.2925  0.0784 -0.3119
  346TIP3    H122453   2.291   3.328   1.755  0.3935 -2.2679 -1.0307
  346TIP3    H222454   2.186   3.335   1.863  1.1936  1.3298 -0.3466
  347TIP3   OH222455   0.288   4.762   3.598 -0.0666  0.0429 -0.0103
  347TIP3    H122456   0.240   4.738   3.676 -1.3602  0.4360 -0.6565
  347TIP3    H222457   0.371   4.797   3.630  0.2204 -1.5269  1.0852
  348TIP3   OH222458   2.890   4.135   1.996  0.4362 -0.0861  0.1227
  348TIP3    H122459   2.922   4.155   1.908  0.8871 -0.3717  0.2173
  348TIP3    H222460   2.862   4.043   1.992  0.7625 -0.2002  0.3573
  349TIP3   OH222461   2.175   1.904  10.929  0.0394 -0.4796  0.4095
  349TIP3    H122462   2.136   1.985  10.961 -1.4767 -1.6236  1.5618
  349TIP3    H222463   2.125   1.834  10.971  1.0074 -2.0377 -0.9028
  350TIP3   OH222464   4.082   5.658   5.350  0.0169 -0.1067  0.8615
  350TIP3    H122465   4.171   5.690   5.334 -0.2371  1.4007  2.1839
  350TIP3    H222466   4.091   5.598   5.424 -0.0494 -0.0655  0.9029
  351TIP3   OH222467   4.668   5.787  12.234 -0.3726  0.5787  0.0487
  351TIP3    H122468   4.731   5.850  12.270 -0.2447  1.2188 -1.2325
  351TIP3    H222469   4.648   5.729  12.307  1.2368  0.7309  0.6549
  352TIP3   OH222470   6.391   6.085  10.560  0.1808 -0.0350 -0.7445
  352TIP3    H122471   6.314   6.050  10.604  2.6260 -1.5270  2.7290
  352TIP3    H222472   6.411   6.167  10.606  0.1785  0.8635 -2.2617
  353TIP3   OH222473   3.594   4.676   2.690  0.5725  0.4758 -0.1994
  353TIP3    H122474   3.564   4.600   2.641 -1.8619  0.7851  0.6587
  353TIP3    H222475   3.680   4.697   2.654 -0.8348  0.3983 -4.0004
  354TIP3   OH222476   3.665   3.448   4.673 -0.2342  0.3560 -0.2914
  354TIP3    H122477   3.570   3.440   4.686 -0.1045 -1.6955 -0.1650
  354TIP3    H222478   3.702   3.415   4.755  0.6037  1.1065 -0.3609
  355TIP3   OH222479   1.553   3.052   2.668 -0.3963  0.0181 -0.6858
  355TIP3    H122480   1.524   3.106   2.595 -2.9681  1.5983  1.3075
  355TIP3    H222481   1.478   2.995   2.688  0.5314 -0.9503  0.2258
  356TIP3   OH222482   3.928   2.734   5.899  0.3737  0.9583 -0.0996
  356TIP3    H122483   3.929   2.722   5.994  0.9923 -0.6126 -0.2677
  356TIP3    H222484   3.879   2.815   5.885  0.7954  1.5355  1.5827
  357TIP3   OH222485   4.518   6.355  16.812  0.0131 -0.4314  0.4264
  357TIP3    H122486   4.599   6.374  16.858  1.0663 -0.2040 -1.4129
  357TIP3    H222487   4.451   6.355  16.880  1.4002  0.3295  1.8594
  358TIP3   OH222488   6.532   3.200  11.640  0.1159 -0.1285  0.2590
  358TIP3    H122489   6.522   3.105  11.642  0.7246 -0.3921 -3.1437
  358TIP3    H222490   6.626   3.214  11.640  0.0782  0.2996 -1.5287
  359TIP3   OH222491   1.205   5.003   4.714  0.3308 -0.1251 -0.3966
  359TIP3    H122492   1.292   5.038   4.694  0.0060  0.0066 -1.6203
  359TIP3    H222493   1.177   5.051   4.792  2.2074 -1.6338  1.3468
  360TIP3   OH222494   0.151   1.317  12.813 -0.0120  0.5152 -0.4225
  360TIP3    H122495   0.192   1.272  12.739 -0.9857  2.0069 -1.9397
  360TIP3    H222496   0.058   1.294  12.805 -0.1697  0.9533  0.1413
  361TIP3   OH222497   0.184   5.884   0.724  0.3907 -0.3522  0.4296
  361TIP3    H122498   0.168   5.861   0.632 -0.6594 -0.0594  0.5290
  361TIP3    H222499   0.209   5.801   0.765  4.4493  0.0690 -0.8134
  362TIP3   OH222500   4.855   0.329   2.837 -0.2044  0.4473  0.4928
  362TIP3    H122501   4.852   0.355   2.745  0.2208 -0.2280  0.2782
  362TIP3    H222502   4.816   0.241   2.838 -0.8434  0.7282  1.0691
  363TIP3   OH222503   0.397   4.558  14.789  0.0371  0.0975 -0.4828
  363TIP3    H122504   0.401   4.463  14.792 -0.4978  0.0268 -1.6883
  363TIP3    H222505   0.488   4.586  14.793  0.2625 -0.5099 -1.1601
  364TIP3   OH222506   4.230   4.434   4.759  0.0029  0.0145  0.0331
  364TIP3    H122507   4.160   4.375   4.787 -0.0682  0.7318  1.5167
  364TIP3    H222508   4.240   4.494   4.833  1.1942  0.8272 -0.7610
  365TIP3   OH222509   3.637   1.076  14.072 -0.1519 -0.5951  0.0170
  365TIP3    H122510   3.652   1.085  14.166 -2.2202 -0.8113  0.4224
  365TIP3    H222511   3.687   1.146  14.033  0.7755 -0.5210  1.2807
  366TIP3   OH222512   5.503   0.425   3.626 -0.2644  0.3746  0.3342
  366TIP3    H122513   5.538   0.347   3.583 -2.2474 -0.6227  0.4171
  366TIP3    H222514   5.504   0.493   3.558  0.0877 -0.1422 -0.1815
  367TIP3   OH222515   0.025   3.730  11.797  0.0972  0.5235 -0.0525
  367TIP3    H122516   0.041   3.638  11.819  0.5826  0.6927  0.3148
  367TIP3    H222517   0.111   3.765  11.773 -0.2995  0.5510 -1.4954
  368TIP3   OH222518   3.210   2.778  14.874 -0.0412 -0.0903 -0.2792
  368TIP3    H122519   3.191   2.706  14.813  0.0519 -1.0853  0.8278
  368TIP3    H222520   3.169   2.855  14.835  1.3870 -0.3380 -2.4192
  369TIP3   OH222521   5.059   1.673  17.042 -0.3323 -0.5720 -0.2594
  369TIP3    H122522   5.007   1.648  17.119 -1.4237  3.8574  0.6860
  369TIP3    H222523   5.093   1.590  17.009 -4.3656 -3.3201  1.6880
  370TIP3   OH222524   2.405   0.943  16.519  0.1398 -0.5988  0.2457
  370TIP3    H122525   2.501   0.951  16.515  0.3712 -2.3337  1.0448
  370TIP3    H222526   2.391   0.856  16.556 -1.7698 -0.5446 -0.2759
  371TIP3   OH222527   0.077   4.286  12.909 -1.1558  0.2623 -0.1248
  371TIP3    H122528   0.051   4.290  12.817 -0.1062  0.6321 -0.4221
  371TIP3    H222529   0.081   4.192  12.929 -0.8757  0.1647 -0.6156
  372TIP3   OH222530   1.442   3.385  13.285 -0.4051  0.3350  0.2726
  372TIP3    H122531   1.507   3.437  13.331  0.7407 -0.5880 -0.2337
  372TIP3    H222532   1.390   3.344  13.354 -0.0769  0.6362  0.7007
  373TIP3   OH222533   5.118   0.177  17.312 -0.2556 -0.3496  0.1058
  373TIP3    H122534   5.202   0.193  17.270 -0.9341  0.1486 -1.1283
  373TIP3    H222535   5.055   0.174  17.239 -1.2036 -1.4066  0.9367
  374TIP3   OH222536   5.317   6.183  12.394  0.2994 -0.6389  0.1734
  374TIP3    H122537   5.402   6.142  12.379  0.3451 -0.3609 -0.3813
  374TIP3    H222538   5.261   6.112  12.426  0.4738 -1.0511 -0.4145
  375TIP3   OH222539   4.795   4.987  13.946 -0.3642 -0.1544 -0.7124
  375TIP3    H122540   4.862   4.922  13.926  0.9407 -0.1250  2.7932
  375TIP3    H222541   4.843   5.069  13.957 -1.1583  0.1939  0.3313
  376TIP3   OH222542   0.843   3.193   6.104  0.7617  0.0633  0.0155
  376TIP3    H122543   0.887   3.170   6.186  0.7242  1.1654  0.3624
  376TIP3    H222544   0.764   3.139   6.102 -0.7488  2.0251  2.1390
  377TIP3   OH222545   4.092   4.642  15.639  0.3128 -0.2647  0.3250
  377TIP3    H122546   4.183   4.671  15.632  0.0061  0.5785 -0.4087
  377TIP3    H222547   4.066   4.620  15.549 -0.5449  0.6314  0.3273
  378TIP3   OH222548   0.834   1.122  15.897 -0.0259 -0.1472 -0.2994
  378TIP3    H122549   0.772   1.195  15.899  0.4719  0.2874  1.1867
  378TIP3    H222550   0.852   1.105  15.990  1.3729 -0.8608 -0.6858
  379TIP3   OH222551   3.273   4.600   2.185  0.1513 -0.0780 -0.4015
  379TIP3    H122552   3.291   4.655   2.108  1.4607  2.9385  1.8467
  379TIP3    H222553   3.181   4.618   2.205 -0.2860 -1.1238 -1.3977
  380TIP3   OH222554   2.867   0.833   5.824  0.2219 -0.2864  0.3406
  380TIP3    H122555   2.901   0.801   5.907  0.0832 -1.3420 -0.0016
  380TIP3    H222556   2.942   0.874   5.781  0.0100  1.4823  1.5340
  381TIP3   OH222557   6.351   0.799  13.852 -0.4515 -0.1395  0.6504
  381TIP3    H122558   6.314   0.862  13.791 -1.4032  1.7651  3.0133
  381TIP3    H222559   6.280   0.737  13.869 -0.2489 -0.5558  0.0235
  382TIP3   OH222560   3.639   4.382  12.782 -0.4946  0.2868  0.4157
  382TIP3    H122561   3.698   4.387  12.858 -0.9611  0.3998  0.7769
  382TIP3    H222562   3.560   4.340  12.816 -1.0955  1.2563  0.2410
  383TIP3   OH222563   2.785   6.172  17.015 -0.2197  0.1168  0.5366
  383TIP3    H122564   2.763   6.188  16.923 -1.5611  0.8496  0.9502
  383TIP3    H222565   2.862   6.226  17.031 -1.3840  1.9086  0.4257
  384TIP3   OH222566   2.844   5.295  13.228  0.1672 -0.1530 -0.1056
  384TIP3    H122567   2.891   5.316  13.309 -0.0551  0.4798 -0.1288
  384TIP3    H222568   2.781   5.367  13.218  0.8122  0.2729 -1.3179
  385TIP3   OH222569   3.605   5.493  16.854 -0.5944  0.1684  0.0897
  385TIP3    H122570   3.610   5.399  16.834 -0.7155 -0.4114  2.5109
  385TIP3    H222571   3.512   5.514  16.843 -0.5892 -0.0134 -0.3338
  386TIP3   OH222572   3.138   3.151   3.094  0.1875  0.4037  0.1572
  386TIP3    H122573   3.221   3.127   3.134 -0.0116 -0.5290  0.0503
  386TIP3    H222574   3.071   3.117   3.154 -0.1087 -0.4709 -0.6352
  387TIP3   OH222575   2.381   1.187  15.595  0.4584  0.2987  0.1305
  387TIP3    H122576   2.417   1.271  15.566  1.6564  0.2098  1.3051
  387TIP3    H222577   2.423   1.122  15.538  1.3630  0.2916  0.7950
  388TIP3   OH222578   1.655   0.203   6.171  0.2784  0.0830  0.3520
  388TIP3    H122579   1.642   0.286   6.217 -0.5206 -1.5751  3.3834
  388TIP3    H222580   1.718   0.155   6.226  0.1083 -1.6361 -0.8648
  389TIP3   OH222581   0.134   5.346   5.881  0.7872  0.6747 -0.0600
  389TIP3    H122582   0.043   5.320   5.867 -0.1883  3.5669  0.3299
  389TIP3    H222583   0.141   5.359   5.976  1.2175  1.7238 -0.2266
  390TIP3   OH222584   5.186   2.102   0.460 -0.9116  0.1524  0.4779
  390TIP3    H122585   5.093   2.119   0.475 -0.7546  1.3952  0.1596
  390TIP3    H222586   5.192   2.081   0.367 -0.8717  0.0740  0.4979
  391TIP3   OH222587   5.215   0.448   0.622 -0.2307 -0.2535 -0.2239
  391TIP3    H122588   5.149   0.481   0.562  0.1433  0.1856 -0.4018
  391TIP3    H222589   5.297   0.455   0.573  0.1299  0.4236  0.4459
  392TIP3   OH222590   0.784   2.013   3.598 -0.0178  0.1279  0.4616
  392TIP3    H122591   0.693   1.991   3.577 -0.0071 -0.2160  0.7712
  392TIP3    H222592   0.813   2.067   3.524 -0.3270 -0.1474  0.1374
  393TIP3   OH222593   3.308   3.647   2.710  0.1602 -0.3448  0.3798
  393TIP3    H122594   3.219   3.636   2.675 -0.7858  2.3587  1.6236
  393TIP3    H222595   3.345   3.717   2.656  1.2437 -0.8735  0.4265
  394TIP3   OH222596   0.472   6.055   4.626 -0.4921 -0.2232 -0.2008
  394TIP3    H122597   0.444   5.967   4.647 -3.3228  0.0692 -2.2529
  394TIP3    H222598   0.449   6.107   4.703 -0.9379 -0.8852  0.1189
  395TIP3   OH222599   3.397   2.687   1.435 -0.3510  0.0079  0.4297
  395TIP3    H122600   3.396   2.661   1.342 -1.8026 -0.1698  0.4686
  395TIP3    H222601   3.454   2.764   1.437 -0.5803  0.2323 -0.6812
  396TIP3   OH222602   2.589   3.315   3.424  0.6208  0.4039 -0.2022
  396TIP3    H122603   2.540   3.233   3.419  1.1025  0.0478  0.6562
  396TIP3    H222604   2.653   3.301   3.494  1.9447  0.8693 -1.2792
  397TIP3   OH222605   3.705   5.480  12.117 -0.5008  0.1221 -0.2626
  397TIP3    H122606   3.773   5.523  12.066  1.0972 -0.7411  1.0205
  397TIP3    H222607   3.725   5.504  12.208 -1.3107 -0.9289  0.2157
  398TIP3   OH222608   2.163   5.083   4.244 -0.2103 -0.0242 -0.8789
  398TIP3    H122609   2.213   5.146   4.193  0.6315 -0.2113 -0.3013
  398TIP3    H222610   2.113   5.033   4.179  0.1833  0.3089 -1.4418
  399TIP3   OH222611   5.834   4.434  17.146  0.1113  0.1814  0.1772
  399TIP3    H122612   5.899   4.463  17.211  2.7148  0.4618 -2.3527
  399TIP3    H222613   5.820   4.342  17.165 -0.0532  0.4943  1.7534
  400TIP3   OH222614   4.139   4.608   2.267 -0.2678 -0.0857 -0.2541
  400TIP3    H122615   4.198   4.669   2.313  0.8794 -2.2400  1.2930
  400TIP3    H222616   4.196   4.561   2.207 -1.1694  0.3677 -1.5149
  401TIP3   OH222617   2.535   1.557  13.096 -0.4536 -0.1251 -0.2003
  401TIP3    H122618   2.598   1.541  13.026 -0.4072 -0.0942 -0.1657
  401TIP3    H222619   2.559   1.643  13.131 -1.0355  0.2650 -0.7401
  402TIP3   OH222620   0.849   1.365   5.262 -0.2435  0.5119  0.2452
  402TIP3    H122621   0.862   1.455   5.234 -0.4240  0.3006 -0.5363
  402TIP3    H222622   0.859   1.313   5.182  2.6346 -0.4513  1.0847
  403TIP3   OH222623   1.132   5.963  14.539  0.3303  0.3257 -0.3686
  403TIP3    H122624   1.207   5.947  14.597  0.3359  0.2475 -0.3990
  403TIP3    H222625   1.118   6.058  14.545  0.3450  0.3210 -0.2551
  404TIP3   OH222626   0.594   2.723  12.056  0.0251 -0.2230 -0.1214
  404TIP3    H122627   0.678   2.726  12.102  0.2492 -0.0602 -0.5347
  404TIP3    H222628   0.605   2.654  11.991  0.3169  0.7115 -1.0869
  405TIP3   OH222629   5.659   5.828   3.685  0.5775  0.0076  0.3150
  405TIP3    H122630   5.710   5.751   3.712 -0.1144 -0.1981  1.0937
  405TIP3    H222631   5.600   5.795   3.617 -0.2968 -0.3680  1.2262
  406TIP3   OH222632   5.174   5.137  14.803  0.5451 -0.1802 -0.0917
  406TIP3    H122633   5.136   5.188  14.875  0.0256  2.3187 -1.9641
  406TIP3    H222634   5.269   5.151  14.811  0.4384  0.8049 -0.3081
  407TIP3   OH222635   6.115   1.982  11.304 -0.7811 -0.2361  0.4208
  407TIP3    H122636   6.132   1.912  11.242  2.5627 -1.3718  2.3227
  407TIP3    H222637   6.036   1.955  11.350 -0.7994 -1.6169 -0.3672
  408TIP3   OH222638   4.557   3.044   1.749 -0.1115 -0.3741  0.3884
  408TIP3    H122639   4.461   3.044   1.745 -0.1081  0.0038  0.3055
  408TIP3    H222640   4.578   3.030   1.841 -0.2485 -0.0612  0.4674
  409TIP3   OH222641   0.025   6.718   2.664  0.8881  0.5048  0.2977
  409TIP3    H122642   0.090   6.667   2.713 -0.4620  0.5325  2.2494
  409TIP3    H222643  -0.042   6.739   2.729 -0.3957  1.6520 -1.3235
  410TIP3   OH222644   1.446   0.157  14.829 -0.7788  0.3961  0.0901
  410TIP3    H122645   1.400   0.150  14.745  1.3297  1.6449 -1.2566
  410TIP3    H222646   1.494   0.075  14.838 -0.7730  0.3826 -0.0688
  411TIP3   OH222647   4.157   6.152   5.712  0.3322 -0.2082 -0.4963
  411TIP3    H122648   4.208   6.085   5.667 -0.8021 -0.5294 -1.3296
  411TIP3    H222649   4.154   6.225   5.652 -0.7744 -0.4575 -0.7755
  412TIP3   OH222650   3.067   3.321  15.816  0.3857  0.4784  0.5659
  412TIP3    H122651   3.105   3.326  15.728 -1.7984  0.4706 -0.4517
  412TIP3    H222652   3.093   3.403  15.858 -0.0997  1.3759 -0.8051
  413TIP3   OH222653   2.337   4.226  16.905  0.2407  0.2323  0.0300
  413TIP3    H122654   2.304   4.316  16.901  0.4013  0.2825 -0.1767
  413TIP3    H222655   2.402   4.221  16.836 -0.4208 -0.3096 -0.5713
  414TIP3   OH222656   0.504   4.144   2.072 -0.4442  0.6476  0.5497
  414TIP3    H122657   0.563   4.070   2.083 -0.4332  0.6878  0.7667
  414TIP3    H222658   0.416   4.106   2.079 -0.4487  0.5516 -0.0058
  415TIP3   OH222659   1.842   6.350   1.549 -0.1521  0.2229  0.1692
  415TIP3    H122660   1.808   6.260   1.545  0.8244 -0.1240 -0.8830
  415TIP3    H222661   1.769   6.401   1.584 -0.7531 -0.9578  0.7320
  416TIP3   OH222662   6.358   2.031   3.651  0.2531 -0.1879 -0.4306
  416TIP3    H122663   6.439   1.986   3.629  1.1925  1.4879 -0.5869
  416TIP3    H222664   6.372   2.121   3.623 -1.7534  0.1049 -0.6353
  417TIP3   OH222665   5.355   2.162   2.610 -0.2090 -0.1090 -0.4414
  417TIP3    H122666   5.374   2.126   2.523 -0.6727  2.5703 -1.7841
  417TIP3    H222667   5.282   2.111   2.642  0.1572 -1.3582 -1.5033
  418TIP3   OH222668   6.279   4.035   2.944 -0.6833 -0.2577  0.2750
  418TIP3    H122669   6.348   4.072   2.999  0.3898 -0.8030 -0.6510
  418TIP3    H222670   6.324   3.968   2.892 -1.6157  0.2774 -1.2973
  419TIP3   OH222671   2.449   0.143   1.446  0.7969  0.7582 -0.0943
  419TIP3    H122672   2.364   0.186   1.433  0.5425  0.1571 -0.4381
  419TIP3    H222673   2.433   0.051   1.427  1.3114  0.4778  0.7420
  420TIP3   OH222674   0.143   3.313  11.848 -0.3624 -0.4724 -0.2675
  420TIP3    H122675   0.086   3.297  11.772 -0.0719  0.4967 -0.7099
  420TIP3    H222676   0.100   3.385  11.894  0.2045 -0.1270 -0.2833
  421TIP3   OH222677   0.710   5.204  16.025 -0.3013  0.2324  0.1468
  421TIP3    H122678   0.768   5.133  15.999  0.9212  1.1682  0.2185
  421TIP3    H222679   0.668   5.231  15.943 -0.0256  0.0782 -0.0463
  422TIP3   OH222680   2.179   4.714  14.527 -0.6637 -0.2709  0.1652
  422TIP3    H122681   2.202   4.801  14.560 -0.3169 -0.6261  0.8875
  422TIP3    H222682   2.181   4.658  14.605 -1.4543 -0.8136 -0.1925
  423TIP3   OH222683   4.605   1.357  16.037  0.2731 -0.6151 -0.6520
  423TIP3    H122684   4.595   1.309  15.955  1.7280  0.8264 -1.7440
  423TIP3    H222685   4.670   1.424  16.017  1.8357 -1.1695  2.1202
  424TIP3   OH222686   4.448   2.455   4.451 -0.1820  0.6067  0.6415
  424TIP3    H122687   4.373   2.494   4.405  0.5057 -0.5064 -1.5394
  424TIP3    H222688   4.522   2.510   4.426  0.6489 -1.4370 -1.7779
  425TIP3   OH222689   0.619   2.292   3.817  0.7123 -0.0995  0.3012
  425TIP3    H122690   0.565   2.358   3.859  0.2182 -0.9613  1.0621
  425TIP3    H222691   0.644   2.232   3.888  1.4240 -0.5491 -0.3056
  426TIP3   OH222692   5.030   0.892  13.890 -0.1696 -0.3105 -0.2527
  426TIP3    H122693   4.958   0.876  13.830 -0.6571 -0.0394  0.2552
  426TIP3    H222694   5.015   0.981  13.923  1.7907  0.7946 -2.0745
  427TIP3   OH222695   6.708   6.738   2.950  0.6687  0.4196 -0.3531
  427TIP3    H122696   6.736   6.825   2.921  1.5603  1.6647  3.5574
  427TIP3    H222697   6.787   6.699   2.987  0.1767 -1.9745 -1.6387
  428TIP3   OH222698   3.362   5.966  11.791 -0.6381 -0.2051  0.3240
  428TIP3    H122699   3.401   6.032  11.848 -0.9927  1.0763 -0.8595
  428TIP3    H222700   3.338   5.894  11.850  2.1886 -0.4799  1.2877
  429TIP3   OH222701   3.676   4.140   4.961  0.3689 -0.6125  0.2618
  429TIP3    H122702   3.760   4.169   4.996 -0.1077  1.7216 -0.3520
  429TIP3    H222703   3.681   4.157   4.867 -1.2876  1.0411  0.4183
  430TIP3   OH222704   3.511   6.220  13.967 -0.1778  0.2687  0.3225
  430TIP3    H122705   3.571   6.294  13.973 -0.2382  0.2945  0.6510
  430TIP3    H222706   3.532   6.179  13.883 -0.1104  0.6265  0.1617
  431TIP3   OH222707   5.321   2.241   1.610  0.4189 -0.2634 -0.0812
  431TIP3    H122708   5.281   2.320   1.646  0.1155 -0.7886  0.7530
  431TIP3    H222709   5.396   2.223   1.667 -0.7709 -1.7831  1.0717
  432TIP3   OH222710   6.444   1.649  14.579 -0.0066  0.0252  0.1572
  432TIP3    H122711   6.428   1.621  14.669  0.4282 -1.5999 -0.2346
  432TIP3    H222712   6.540   1.651  14.572 -0.0395  0.2800 -0.2366
  433TIP3   OH222713   1.959   4.410   6.278  0.5829 -0.4960 -0.2111
  433TIP3    H122714   1.953   4.465   6.356  1.2561 -2.0034  0.9394
  433TIP3    H222715   1.880   4.431   6.228 -0.7719 -0.7275  1.7168
  434TIP3   OH222716   1.251   1.857  16.152  0.5029  0.1193  1.2011
  434TIP3    H122717   1.178   1.880  16.209 -1.7672  1.3444 -1.8895
  434TIP3    H222718   1.299   1.939  16.141  1.5474 -0.3514  2.0786
  435TIP3   OH222719   6.704   1.451   1.226 -0.5489 -0.0422  0.3476
  435TIP3    H122720   6.786   1.430   1.181  0.4332  0.6489  1.7515
  435TIP3    H222721   6.661   1.514   1.169 -0.3455 -0.7508 -0.6258
  436TIP3   OH222722   4.100   3.186   0.228  0.9269  0.6288 -0.1058
  436TIP3    H122723   4.067   3.106   0.186 -0.5440  0.9124  0.4337
  436TIP3    H222724   4.045   3.256   0.192  0.3816  1.0216  1.4014
  437TIP3   OH222725   4.486   3.365  15.719  0.4975  0.2832 -0.3252
  437TIP3    H122726   4.437   3.442  15.747  0.1439  0.0676 -0.3514
  437TIP3    H222727   4.515   3.323  15.800  0.8782  0.5589 -0.3140
  438TIP3   OH222728   2.523   1.967   0.211  0.2210  0.0292  0.1608
  438TIP3    H122729   2.535   2.046   0.264 -1.3814 -0.4094  1.2505
  438TIP3    H222730   2.473   1.908   0.267  1.4109 -1.7939 -0.6293
  439TIP3   OH222731   6.182   1.799  14.620 -0.4117  0.1736 -0.3574
  439TIP3    H122732   6.210   1.886  14.595 -0.0763  0.3646  0.6299
  439TIP3    H222733   6.184   1.748  14.539  2.3968  0.2676 -0.4184
  440TIP3   OH222734   1.185   3.887   3.860 -0.0708 -0.1196  0.6214
  440TIP3    H122735   1.237   3.808   3.870 -0.7551 -0.6361  0.2758
  440TIP3    H222736   1.216   3.927   3.778  0.2290 -0.0685  0.7621
  441TIP3   OH222737   0.370   0.890   0.948  0.3807  0.0080 -0.4858
  441TIP3    H122738   0.343   0.804   0.980 -0.1668  0.5306  0.5317
  441TIP3    H222739   0.288   0.932   0.923  0.7214 -0.0388 -1.7069
  442TIP3   OH222740   0.675   2.118  14.517 -0.3208 -0.7977 -0.0518
  442TIP3    H122741   0.685   2.058  14.591  2.1758  1.3270  1.5535
  442TIP3    H222742   0.760   2.114  14.473 -0.0839  1.4249  0.0995
  443TIP3   OH222743   1.869   2.184   0.355 -0.5234  0.2929  0.1162
  443TIP3    H122744   1.928   2.164   0.282  0.9808  0.0959  1.3294
  443TIP3    H222745   1.784   2.153   0.326  0.0214  0.2168 -1.5478
  444TIP3   OH222746   3.908   4.213  13.566  0.1570 -0.9084  0.0486
  444TIP3    H122747   3.859   4.291  13.593  1.1484 -0.0585 -0.5072
  444TIP3    H222748   3.842   4.155  13.529 -0.6436 -0.4551  0.7204
  445TIP3   OH222749   0.347   5.636   0.824 -0.6081  0.1096  0.3583
  445TIP3    H122750   0.397   5.717   0.825  0.5371 -0.4809 -1.7703
  445TIP3    H222751   0.401   5.573   0.872 -0.2170 -0.0294 -0.2506
  446TIP3   OH222752   1.477   1.561   2.927 -0.5906  0.1570  0.4184
  446TIP3    H122753   1.463   1.475   2.965 -0.9087  0.1185  0.2190
  446TIP3    H222754   1.507   1.544   2.838  1.2097  0.2299  0.9687
  447TIP3   OH222755   1.932   4.270  15.819  0.1629  0.5100 -0.1562
  447TIP3    H122756   1.994   4.198  15.803  0.6070  1.0479 -0.9049
  447TIP3    H222757   1.900   4.254  15.908  2.9547  1.3483  1.1233
  448TIP3   OH222758   0.680   5.340  10.897 -0.0729  0.8774 -0.3007
  448TIP3    H122759   0.651   5.257  10.933  0.0472  0.6484 -0.7240
  448TIP3    H222760   0.604   5.373  10.848 -0.0325  0.8857 -0.3584
  449TIP3   OH222761   4.285   4.516   1.109  0.0824  0.3426  0.5293
  449TIP3    H122762   4.301   4.423   1.129 -0.9791  0.2420  1.0252
  449TIP3    H222763   4.295   4.560   1.193 -0.5922  0.4882  0.5432
  450TIP3   OH222764   2.248   2.048  10.619  0.6034 -0.2437  0.4174
  450TIP3    H122765   2.172   2.103  10.599  2.2008  0.8834 -3.4159
  450TIP3    H222766   2.298   2.099  10.683  1.0197  1.9352 -1.5171
  451TIP3   OH222767   3.929   0.376   3.659  0.1679 -0.2393  0.2135
  451TIP3    H122768   4.010   0.375   3.608  0.9173  1.3256  1.2859
  451TIP3    H222769   3.955   0.345   3.746 -0.2831  0.6479  0.6793
  452TIP3   OH222770   1.610   4.993  15.003 -0.3904  0.0273  0.3381
  452TIP3    H122771   1.552   5.069  15.011  0.6767  0.7258  1.9623
  452TIP3    H222772   1.642   4.978  15.092  1.1211 -0.9774 -0.3357
  453TIP3   OH222773   5.400   1.874   1.798 -0.1277 -0.7018 -0.8736
  453TIP3    H122774   5.432   1.862   1.888 -1.2671  0.9259 -0.1955
  453TIP3    H222775   5.464   1.932   1.758 -0.8637  0.5314 -0.3128
  454TIP3   OH222776   0.364   1.768  13.442 -0.3019 -0.0370 -0.0039
  454TIP3    H122777   0.373   1.707  13.369 -1.4600  1.0492 -1.0965
  454TIP3    H222778   0.337   1.850  13.401 -0.5024  0.7315  1.6120
  455TIP3   OH222779   3.126   2.565   2.901  0.0580  0.0438  0.1918
  455TIP3    H122780   3.179   2.607   2.833  0.3226 -1.3441 -0.4768
  455TIP3    H222781   3.142   2.618   2.979  4.9048 -1.9178  0.8825
  456TIP3   OH222782   2.983   3.308  16.639 -0.1618  0.1092  0.7251
  456TIP3    H122783   3.011   3.296  16.548  0.6196 -0.4484  1.0212
  456TIP3    H222784   3.053   3.267  16.691  0.6946  2.5950  1.6762
  457TIP3   OH222785   4.006   0.300   5.250  0.1717 -0.0698 -0.2821
  457TIP3    H122786   4.073   0.315   5.183 -0.0217 -0.8150 -0.6509
  457TIP3    H222787   4.007   0.380   5.303  0.4991  0.4297 -1.0224
  458TIP3   OH222788   3.057   3.885  15.817  0.0984 -0.1295  0.1252
  458TIP3    H122789   3.104   3.968  15.818 -1.4990  0.8115  0.7115
  458TIP3    H222790   3.017   3.878  15.904 -1.2509 -0.6237 -0.5012
  459TIP3   OH222791   4.554   6.204  13.681 -0.2680  0.1789  0.2320
  459TIP3    H122792   4.526   6.147  13.610 -1.2771  1.9555 -0.8636
  459TIP3    H222793   4.622   6.154  13.727  0.4052 -1.0173 -1.9486
  460TIP3   OH222794   0.939   0.090  13.645 -0.5711  0.0341 -0.5479
  460TIP3    H122795   0.896   0.015  13.686 -1.5199  0.7313 -0.2147
  460TIP3    H222796   1.027   0.059  13.623 -0.7620 -0.9981  0.0788
  461TIP3   OH222797   6.780   4.699  14.172  0.1450  0.5587 -0.7236
  461TIP3    H122798   6.687   4.687  14.153  0.1324 -0.0849 -0.2913
  461TIP3    H222799   6.796   4.646  14.250  0.8119  0.8959 -0.6214
  462TIP3   OH222800   0.032   6.212   1.684  0.0136 -0.0788 -0.0123
  462TIP3    H122801  -0.040   6.192   1.743  1.0537 -0.6131  1.1203
  462TIP3    H222802   0.109   6.174   1.726  0.8805  0.0041 -1.4519
  463TIP3   OH222803   3.350   2.423   1.476  0.5308  0.3235  0.3480
  463TIP3    H122804   3.342   2.516   1.453 -2.0373  0.3859  1.1398
  463TIP3    H222805   3.426   2.418   1.533  0.7588  1.9249  0.2191
  464TIP3   OH222806   4.625   3.612   2.383  0.1658 -0.4039  0.6883
  464TIP3    H122807   4.567   3.667   2.331  0.8189 -0.1121  0.2481
  464TIP3    H222808   4.575   3.531   2.397 -0.4942 -0.0061  0.6675
  465TIP3   OH222809   0.530   2.256  16.707 -0.0908 -0.2779 -0.4997
  465TIP3    H122810   0.570   2.314  16.772 -0.2963 -1.4112  0.7027
  465TIP3    H222811   0.603   2.207  16.670 -0.0477 -0.1392 -0.5993
  466TIP3   OH222812   4.647   6.157  11.293 -0.1393  0.3865  0.0816
  466TIP3    H122813   4.571   6.199  11.333 -0.8962 -0.5806 -0.2956
  466TIP3    H222814   4.620   6.066  11.281  0.5263  0.3523 -1.4188
  467TIP3   OH222815   5.866   2.885   5.202  0.4695  0.1193 -0.5182
  467TIP3    H122816   5.846   2.816   5.266  1.6680 -1.3622 -1.6656
  467TIP3    H222817   5.877   2.838   5.119  1.6080  1.6658 -1.2882
  468TIP3   OH222818   5.207   2.440  16.169 -0.1355 -0.2905  0.2081
  468TIP3    H122819   5.271   2.511  16.168 -1.1517  0.6619  0.6628
  468TIP3    H222820   5.221   2.393  16.087  1.7313 -0.6642  0.7015
  469TIP3   OH222821   5.429   3.788   5.124  0.4950  0.0637 -0.7515
  469TIP3    H122822   5.365   3.781   5.195  1.0499  0.2950 -0.2197
  469TIP3    H222823   5.501   3.731   5.150  0.8918  0.4771 -0.9223
  470TIP3   OH222824   6.001   5.544  12.486  0.1055 -0.1724 -0.3983
  470TIP3    H122825   5.974   5.572  12.398  0.1675 -0.0581 -0.3806
  470TIP3    H222826   6.050   5.464  12.472  1.6622  0.7897 -0.6342
  471TIP3   OH222827   6.069   3.214   5.599 -0.0407 -0.1402 -0.0835
  471TIP3    H122828   6.081   3.148   5.667  0.0992  0.6546  0.6866
  471TIP3    H222829   6.016   3.171   5.531  0.4355 -1.1687  0.1931
  472TIP3   OH222830   5.720   0.589  14.091  0.0651 -0.3200  0.1982
  472TIP3    H122831   5.629   0.607  14.113  0.1298  0.9311 -0.4851
  472TIP3    H222832   5.766   0.591  14.175 -0.1222  1.6772  0.2851
  473TIP3   OH222833   1.745   0.665   4.421 -0.7356 -0.2577  0.1815
  473TIP3    H122834   1.713   0.681   4.510 -1.4004 -1.1964  0.1230
  473TIP3    H222835   1.827   0.618   4.432 -1.0935 -0.8561  0.2909
  474TIP3   OH222836   3.172   0.090  12.268  0.1781  0.3947  0.3421
  474TIP3    H122837   3.244   0.146  12.296  1.3204 -1.2320  0.8304
  474TIP3    H222838   3.214   0.007  12.246 -1.5371 -0.5494  0.4711
  475TIP3   OH222839   4.752   5.453  14.864  0.1845  0.0699  0.2849
  475TIP3    H122840   4.665   5.421  14.889  0.3485  0.7449  1.8569
  475TIP3    H222841   4.756   5.541  14.901  1.5878 -0.0084  0.3587
  476TIP3   OH222842   3.774   4.538  15.454 -0.3338 -0.1041 -0.3557
  476TIP3    H122843   3.776   4.547  15.550 -0.4229 -1.6831 -0.1831
  476TIP3    H222844   3.861   4.506  15.431 -0.1034  0.8560 -0.8995
  477TIP3   OH222845   1.299   3.070   0.555 -0.0998  0.3108 -0.4824
  477TIP3    H122846   1.243   3.075   0.633 -0.2074 -1.7522 -0.3737
  477TIP3    H222847   1.322   3.161   0.536  1.5578  0.7875  3.1207
  478TIP3   OH222848   1.640   5.424  15.767 -0.2508  0.0598 -0.0009
  478TIP3    H122849   1.612   5.416  15.676 -0.9562 -1.8240  0.3234
  478TIP3    H222850   1.561   5.402  15.818  1.2462 -3.7861  0.9725
  479TIP3   OH222851   0.574   5.742   2.658  0.1605 -0.2293 -0.0749
  479TIP3    H122852   0.563   5.768   2.749 -0.0164 -0.1575 -0.1153
  479TIP3    H222853   0.637   5.670   2.660 -0.5700 -0.8773  0.2039
  480TIP3   OH222854   5.694   6.673  12.457 -0.0759  0.0152 -0.6092
  480TIP3    H122855   5.750   6.740  12.415  0.8123  0.8836  1.8021
  480TIP3    H222856   5.628   6.653  12.391  1.5920  0.8209 -2.6472
  481TIP3   OH222857   2.453   4.501   3.084  0.2179  0.6672  0.1441
  481TIP3    H122858   2.388   4.454   3.032 -2.0011  1.6713  1.8736
  481TIP3    H222859   2.518   4.435   3.107 -1.3200 -0.9011  0.1638
  482TIP3   OH222860   2.351   5.959  14.880 -0.3780  0.6527  0.3271
  482TIP3    H122861   2.264   5.929  14.852  0.6107 -0.0850 -2.1964
  482TIP3    H222862   2.368   6.037  14.828  0.7365  0.3970  0.2731
  483TIP3   OH222863   3.752   2.719  12.012  0.1182 -0.9158  0.0983
  483TIP3    H122864   3.662   2.687  12.020 -0.3229  0.1846 -0.2720
  483TIP3    H222865   3.758   2.752  11.923  0.1395  1.1450  0.8029
  484TIP3   OH222866   3.791   6.593  13.705 -0.4052  0.4865  0.1831
  484TIP3    H122867   3.763   6.684  13.717 -0.6753  0.6590 -1.4377
  484TIP3    H222868   3.835   6.593  13.620  0.0542 -0.8088  0.3934
  485TIP3   OH222869   3.358   6.001  12.771  0.4809  0.1673  0.6360
  485TIP3    H122870   3.401   5.944  12.708 -0.4740  0.8998 -0.7179
  485TIP3    H222871   3.367   5.956  12.855 -1.0342 -2.4504 -0.5037
  486TIP3   OH222872   0.283   1.681  15.033  0.1018 -0.2044  0.5075
  486TIP3    H122873   0.326   1.766  15.024 -0.0269 -0.2270 -0.3844
  486TIP3    H222874   0.199   1.701  15.075 -0.7385  0.3732 -1.3469
  487TIP3   OH222875   1.225   0.296  12.048  0.1595  0.1253  0.3481
  487TIP3    H122876   1.307   0.320  12.005 -0.0621  1.5647  0.6850
  487TIP3    H222877   1.176   0.250  11.980  0.3026  1.2935 -0.5928
  488TIP3   OH222878   5.860   1.233   0.818 -0.4008 -0.1266  0.0173
  488TIP3    H122879   5.954   1.248   0.823 -0.3670 -0.1072 -0.5547
  488TIP3    H222880   5.822   1.300   0.875 -0.0366 -0.6231  0.8678
  489TIP3   OH222881   4.102   6.651   3.545 -0.2375  0.4118  0.1464
  489TIP3    H122882   4.161   6.715   3.585 -1.2082  0.8730  0.8743
  489TIP3    H222883   4.087   6.587   3.614 -0.4991  0.2348 -0.0744
  490TIP3   OH222884   5.841   5.075  16.548 -1.0699 -0.2598  0.6117
  490TIP3    H122885   5.792   5.128  16.485  1.2765  0.3161 -0.8508
  490TIP3    H222886   5.885   5.138  16.604 -0.6224 -0.7144  0.7803
  491TIP3   OH222887   2.331   6.645  15.600  0.0254 -0.3228  0.6290
  491TIP3    H122888   2.422   6.655  15.626  0.3994 -2.0789  0.1649
  491TIP3    H222889   2.306   6.559  15.634 -0.4837 -1.2277 -1.8028
  492TIP3   OH222890   0.291   4.788   6.010 -0.1596  0.7450  0.2840
  492TIP3    H122891   0.270   4.880   6.030  0.5364  1.5380 -2.2482
  492TIP3    H222892   0.386   4.783   6.019 -0.3186 -0.1140  1.6943
  493TIP3   OH222893   5.756   0.502   0.747 -0.8126 -0.2787  0.2740
  493TIP3    H122894   5.783   0.587   0.781 -0.4575  1.0474 -2.9558
  493TIP3    H222895   5.661   0.501   0.757 -0.9844  1.1546 -0.8775
  494TIP3   OH222896   5.666   5.891  10.732  0.3867 -0.1331 -0.0948
  494TIP3    H122897   5.715   5.809  10.728  1.6862  0.6325 -0.8000
  494TIP3    H222898   5.616   5.894  10.651  0.6601 -0.0529 -0.2630
  495TIP3   OH222899   0.481   6.386   2.462 -0.5604 -0.3935 -0.0446
  495TIP3    H122900   0.496   6.309   2.407  0.7460  0.3564 -0.8065
  495TIP3    H222901   0.489   6.460   2.401 -0.7050  0.3935  0.8724
  496TIP3   OH222902   5.316   0.463  10.785 -0.4688 -0.1473  0.1973
  496TIP3    H122903   5.319   0.402  10.858  0.1248  0.6531  0.8603
  496TIP3    H222904   5.321   0.549  10.825 -0.3086  0.3122 -0.7718
  497TIP3   OH222905   3.792   5.038  13.077 -0.0690 -0.0646 -0.0311
  497TIP3    H122906   3.730   5.110  13.093 -1.9137 -1.6697  0.3802
  497TIP3    H222907   3.752   4.987  13.007  0.4807 -1.4857  0.6574
  498TIP3   OH222908   5.511   3.498   3.616  0.0961  0.1577 -0.1517
  498TIP3    H122909   5.535   3.590   3.617 -1.1602  0.5001  1.2297
  498TIP3    H222910   5.562   3.459   3.687  2.3396 -0.7418 -2.1149
  499TIP3   OH222911   3.590   5.720   5.780 -0.1963 -0.4888  0.3198
  499TIP3    H122912   3.549   5.698   5.864  0.5723 -0.2487  0.7681
  499TIP3    H222913   3.655   5.787   5.802  0.1805 -0.5972 -0.4302
  500TIP3   OH222914   1.611   0.417  12.444 -0.3837 -0.2314  0.1223
  500TIP3    H122915   1.532   0.402  12.497 -1.0615  0.0323 -0.7783
  500TIP3    H222916   1.596   0.502  12.403  2.1452  1.7834  2.9685
  501TIP3   OH222917   3.920   0.641   2.865  0.6486 -0.1182 -0.1439
  501TIP3    H122918   3.909   0.650   2.771  1.9733 -2.0601 -0.5644
  501TIP3    H222919   4.009   0.606   2.875 -0.1421 -1.8047  1.6592
  502TIP3   OH222920   5.943   6.120  16.942 -0.1123 -0.1755 -0.4515
  502TIP3    H122921   5.873   6.057  16.928 -0.5232  0.3237 -0.6988
  502TIP3    H222922   5.969   6.107  17.033 -0.1736 -0.7172 -0.5117
  503TIP3   OH222923   0.393   3.167   0.021  0.1635  0.1092 -0.3415
  503TIP3    H122924   0.425   3.228  -0.045  0.4410 -0.9842 -1.2467
  503TIP3    H222925   0.410   3.211   0.104  1.9622  0.5239 -0.8902
  504TIP3   OH222926   5.570   1.307  11.713  0.4470  0.2099 -0.0826
  504TIP3    H122927   5.544   1.236  11.772 -0.4131  1.4577  1.1084
  504TIP3    H222928   5.640   1.270  11.659 -0.3620 -1.7042  0.1083
  505TIP3   OH222929   1.732   3.204  14.326  0.0572 -0.5254  0.0255
  505TIP3    H122930   1.668   3.133  14.320 -0.9255  0.0879  2.3499
  505TIP3    H222931   1.794   3.176  14.393  2.3870 -1.1186 -2.1965
  506TIP3   OH222932   1.519   1.834  16.962  0.4929 -0.5673 -0.2759
  506TIP3    H122933   1.556   1.822  17.049  0.1234  0.5890  0.0569
  506TIP3    H222934   1.439   1.884  16.976  1.3773  1.2809 -1.3988
  507TIP3   OH222935   1.733   2.198   6.226  0.2406  0.2179 -0.8222
  507TIP3    H122936   1.782   2.233   6.301  0.6921  0.2730 -1.1379
  507TIP3    H222937   1.801   2.171   6.164  0.0096 -2.8687  0.0926
  508TIP3   OH222938   1.696   5.395   3.691 -0.5251 -0.4923 -0.1839
  508TIP3    H122939   1.612   5.402   3.648 -0.9872  0.5393  0.8368
  508TIP3    H222940   1.729   5.484   3.695 -0.4768 -0.5526  1.5061
  509TIP3   OH222941   3.687   0.595   2.984 -0.4474  0.3406  0.4796
  509TIP3    H122942   3.768   0.616   2.939 -0.1461  1.0788  1.3391
  509TIP3    H222943   3.644   0.531   2.928 -1.5725  3.3921 -2.4525
  510TIP3   OH222944   1.921   0.780   1.937  0.9811 -0.2721  0.2404
  510TIP3    H122945   2.013   0.768   1.961  0.5289  0.9715  2.8939
  510TIP3    H222946   1.875   0.708   1.979  0.6478 -0.7055 -0.8193
  511TIP3   OH222947   1.547   6.387   3.712 -0.2604 -0.2828 -1.1138
  511TIP3    H122948   1.622   6.442   3.733  0.1325 -1.1393 -0.1763
  511TIP3    H222949   1.496   6.438   3.649 -0.7024  1.7781  0.8015
  512TIP3   OH222950   5.017   6.619   3.624 -0.5831 -0.0133  0.0615
  512TIP3    H122951   4.985   6.616   3.534  1.2710 -1.4181 -0.6087
  512TIP3    H222952   4.987   6.537   3.663  1.4279 -1.0134 -0.3657
  513TIP3   OH222953   1.251   5.266   2.228  0.7703  0.1701 -0.3673
  513TIP3    H122954   1.249   5.192   2.289  0.7033  0.1631 -0.3764
  513TIP3    H222955   1.284   5.339   2.280  0.8983  0.1178 -0.3758
  514TIP3   OH222956   1.151   5.405  17.129  0.0807 -0.2191  0.2114
  514TIP3    H122957   1.161   5.387  17.222  1.5625 -1.2273 -0.1101
  514TIP3    H222958   1.124   5.322  17.091  0.3575 -0.0506 -0.3682
  515TIP3   OH222959   5.131   0.391   3.208 -0.6393  0.4325  0.8589
  515TIP3    H122960   5.122   0.466   3.149 -2.8345 -1.3766 -1.3140
  515TIP3    H222961   5.208   0.344   3.176 -1.3935 -0.1470 -0.1553
  516TIP3   OH222962   4.837   2.865   3.073 -0.2368  0.1226  0.2062
  516TIP3    H122963   4.870   2.778   3.048 -0.7964  0.2287 -0.9822
  516TIP3    H222964   4.858   2.873   3.165 -1.8225 -2.0640  0.8536
  517TIP3   OH222965   2.850   5.416   5.375  0.6854  0.3857 -0.3997
  517TIP3    H122966   2.945   5.432   5.376  1.1756 -2.0251 -1.0222
  517TIP3    H222967   2.828   5.399   5.467  1.4961 -1.8028 -0.5261
  518TIP3   OH222968   1.487   6.525  15.423  0.2544  0.2149 -0.3563
  518TIP3    H122969   1.548   6.573  15.366  1.7630  0.4059  1.3248
  518TIP3    H222970   1.401   6.537  15.382  1.3642 -0.5855 -3.1846
  519TIP3   OH222971   4.920   4.609   5.946 -0.4256  0.2179 -0.2918
  519TIP3    H122972   4.828   4.594   5.921  0.4907 -1.7148 -3.0138
  519TIP3    H222973   4.924   4.702   5.968 -2.8350  0.5975 -1.1545
  520TIP3   OH222974   1.251   0.098  17.060 -0.4299 -0.3082 -0.7393
  520TIP3    H122975   1.257   0.051  16.977  0.4260 -1.3298 -0.1333
  520TIP3    H222976   1.292   0.182  17.043  1.2931 -1.1481 -0.9405
  521TIP3   OH222977   5.114   0.521  13.941  0.4846  0.3142 -0.4491
  521TIP3    H122978   5.139   0.431  13.964  0.1030  0.1708 -0.5956
  521TIP3    H222979   5.098   0.518  13.847 -1.3886  0.0886 -0.1523
  522TIP3   OH222980   2.787   3.625   0.666 -0.0418  0.0653 -0.1620
  522TIP3    H122981   2.764   3.582   0.584  0.3922  0.9407 -0.7713
  522TIP3    H222982   2.710   3.614   0.722  1.0380 -3.8935  0.7920
  523TIP3   OH222983   4.757   4.824   4.495  0.1680  0.0481 -0.0934
  523TIP3    H122984   4.770   4.894   4.559 -0.4859 -0.1408  0.2642
  523TIP3    H222985   4.844   4.786   4.481  0.1156 -0.8538  1.7881
  524TIP3   OH222986   6.734   0.105   5.570 -0.0418 -0.3520 -0.0709
  524TIP3    H122987   6.680   0.136   5.643  0.5754 -2.1753  1.2119
  524TIP3    H222988   6.824   0.124   5.597  0.1264  0.3665 -1.0726
  525TIP3   OH222989   1.858   1.540   5.008 -0.6880  0.1302  0.5780
  525TIP3    H122990   1.913   1.461   5.003  2.4511  2.2147 -1.5220
  525TIP3    H222991   1.829   1.553   4.918 -0.5782  1.6998  0.7526
  526TIP3   OH222992   6.504   3.044   4.366 -0.2202  0.1365  0.2409
  526TIP3    H122993   6.427   3.068   4.315 -1.0959 -2.0740  0.4259
  526TIP3    H222994   6.527   2.957   4.334  1.7751  0.4408  0.7234
  527TIP3   OH222995   2.664   5.480  16.557 -0.0177  0.0776 -0.3042
  527TIP3    H122996   2.704   5.436  16.482 -0.3028  1.2493 -1.1716
  527TIP3    H222997   2.573   5.495  16.530  0.0093  0.9565  0.0636
  528TIP3   OH222998   1.596   1.600   6.503  0.4778 -0.4418  0.4805
  528TIP3    H122999   1.637   1.541   6.566  0.1189 -3.0293 -1.5825
  528TIP3    H223000   1.502   1.589   6.517  0.4059 -0.2363  0.1728
  529TIP3   OH223001   1.046   3.780   4.161  0.1252 -0.1348  0.1958
  529TIP3    H123002   1.059   3.721   4.235 -0.7679  1.0585  1.3548
  529TIP3    H223003   1.068   3.866   4.195 -2.0753  0.7179 -0.3346
  530TIP3   OH223004   2.517   6.085   2.840  0.2572 -0.2821 -0.0415
  530TIP3    H123005   2.580   6.060   2.773 -0.9466  0.7597 -1.6431
  530TIP3    H223006   2.451   6.015   2.839  0.1605 -0.1912 -0.0513
  531TIP3   OH223007   5.005   5.508   6.772 -0.1119 -0.1988 -0.0051
  531TIP3    H123008   4.972   5.597   6.788 -1.1120 -0.5585  0.0066
  531TIP3    H223009   5.099   5.519   6.761 -0.1499  0.7971  0.5318
  532TIP3   OH223010   1.364   5.812   0.891  0.7325 -0.1744 -0.4504
  532TIP3    H123011   1.346   5.754   0.964  0.5395 -0.3186 -0.6094
  532TIP3    H223012   1.442   5.861   0.917  1.1056 -0.7521 -0.4593
  533TIP3   OH223013   3.218   4.581   4.238 -0.4765  0.3401  0.2137
  533TIP3    H123014   3.202   4.492   4.208  2.3586  0.2755 -1.4604
  533TIP3    H223015   3.272   4.570   4.317 -0.2252  0.5589  0.0744
  534TIP3   OH223016   5.760   4.168  13.389 -0.0804  0.6922  0.5671
  534TIP3    H123017   5.821   4.241  13.377  1.7276 -0.7314  0.7195
  534TIP3    H223018   5.805   4.093  13.352 -2.2354 -0.2493 -0.3195
  535TIP3   OH223019   4.502   1.202   4.841 -0.1556 -0.4039  0.0850
  535TIP3    H123020   4.474   1.292   4.821 -2.0081 -0.9456  0.0315
  535TIP3    H223021   4.432   1.147   4.805  0.9413 -1.8822  0.1167
  536TIP3   OH223022   4.060   5.618  15.337  0.3083 -0.1745 -0.0906
  536TIP3    H123023   4.116   5.561  15.390  0.7534  0.8310  0.5586
  536TIP3    H223024   4.019   5.559  15.274  1.0483 -1.1487  0.3027
  537TIP3   OH223025   1.830   4.226   4.147  0.2673 -0.5380  0.4203
  537TIP3    H123026   1.878   4.148   4.119 -0.0309 -0.2150 -1.0768
  537TIP3    H223027   1.866   4.297   4.094  0.2603  0.2880  1.4909
  538TIP3   OH223028   1.731   5.151  11.122  0.8161 -0.5514  0.0773
  538TIP3    H123029   1.719   5.140  11.028 -0.4692  0.1368  0.1415
  538TIP3    H223030   1.758   5.242  11.132 -0.6569 -0.1268  0.4737
  539TIP3   OH223031   6.526   3.426  16.806 -0.0140 -0.0445  0.6891
  539TIP3    H123032   6.469   3.383  16.869 -1.0929  0.4351  0.0546
  539TIP3    H223033   6.556   3.505  16.850 -0.0676 -0.1421  0.9029
  540TIP3   OH223034   5.422   4.444   0.535 -0.3005  0.3616 -0.1005
  540TIP3    H123035   5.457   4.379   0.595 -0.8737  0.1062 -0.0444
  540TIP3    H223036   5.327   4.433   0.539 -0.3838  0.9154 -0.4061
  541TIP3   OH223037   0.197   6.039  16.360 -0.1980  0.0306 -0.3473
  541TIP3    H123038   0.260   6.054  16.431 -1.6780  0.0755  1.0185
  541TIP3    H223039   0.214   5.949  16.332 -1.4199 -1.0679  2.0978
  542TIP3   OH223040   3.630   2.471  15.655 -0.1915  0.1926 -0.1858
  542TIP3    H123041   3.624   2.383  15.692 -0.1979 -0.9230 -2.6534
  542TIP3    H223042   3.545   2.484  15.612  0.3572  0.7824 -1.1051
  543TIP3   OH223043   2.509   3.480   2.751 -0.3389  0.1248 -1.0156
  543TIP3    H123044   2.491   3.389   2.727  0.5650 -0.7424  1.3150
  543TIP3    H223045   2.487   3.485   2.844 -0.2895  2.2922 -1.0705
  544TIP3   OH223046   3.296   6.269   4.273 -0.2582  0.5879  0.3664
  544TIP3    H123047   3.332   6.358   4.276  2.3089 -0.3695  1.8152
  544TIP3    H223048   3.277   6.248   4.364 -1.2667 -0.2060 -0.0179
  545TIP3   OH223049   2.657   5.596   2.517 -0.0644 -0.1268  0.2491
  545TIP3    H123050   2.653   5.678   2.469  0.9882 -0.4518 -0.4353
  545TIP3    H223051   2.586   5.543   2.481 -1.9338  1.0925  1.9541
  546TIP3   OH223052   0.060   4.615   5.144  0.6585  0.0243  0.4142
  546TIP3    H123053   0.069   4.693   5.089 -0.1443 -0.6429 -0.7065
  546TIP3    H223054   0.145   4.573   5.140  0.4726 -0.2896 -0.7770
  547TIP3   OH223055   4.437   1.663  15.926 -0.1086 -0.0279 -0.3340
  547TIP3    H123056   4.423   1.587  15.870 -1.7102  1.0498 -1.5145
  547TIP3    H223057   4.378   1.650  16.000 -1.0841  0.4743 -1.0040
  548TIP3   OH223058   2.571   6.150  13.817  0.2479 -0.2190 -0.2565
  548TIP3    H123059   2.648   6.198  13.786 -0.2699  0.7444 -0.0607
  548TIP3    H223060   2.512   6.148  13.741  0.8578 -1.8408 -0.7309
  549TIP3   OH223061   5.911   4.853   4.448  0.0615 -0.2075 -0.8331
  549TIP3    H123062   5.940   4.881   4.361  0.5051  0.6046 -0.4309
  549TIP3    H223063   5.991   4.847   4.499 -0.2703  0.0255 -0.2773
  550TIP3   OH223064   0.232   1.161  13.304  0.1271 -0.5268 -0.6393
  550TIP3    H123065   0.189   1.236  13.262 -0.5189  0.0053  0.9231
  550TIP3    H223066   0.164   1.122  13.359  0.7702 -1.6117 -0.5871
  551TIP3   OH223067   1.533   3.475   6.141  0.1699 -0.3201 -0.1145
  551TIP3    H123068   1.623   3.447   6.125  0.1493  0.0227 -0.8555
  551TIP3    H223069   1.502   3.417   6.210  1.0064 -0.3474  0.2473
  552TIP3   OH223070   4.793   0.343   1.078  0.0353  0.0648 -0.0081
  552TIP3    H123071   4.702   0.359   1.102 -0.1298 -3.0060  1.9764
  552TIP3    H223072   4.789   0.308   0.989 -0.4366  1.8838 -0.7481
  553TIP3   OH223073   1.389   6.692   0.987 -0.2054 -0.4669 -0.5108
  553TIP3    H123074   1.469   6.640   1.001  0.1346  0.3534  0.6996
  553TIP3    H223075   1.421   6.775   0.951 -0.6337 -0.5774 -1.1600
  554TIP3   OH223076   6.302   4.830  14.447  0.3491  0.1259  0.3571
  554TIP3    H123077   6.264   4.743  14.457 -0.2912 -0.0009 -2.3886
  554TIP3    H223078   6.282   4.875  14.529 -1.2989 -1.5713  0.9530
  555TIP3   OH223079   0.307   6.380   0.855  0.1743  0.1276 -0.5230
  555TIP3    H123080   0.263   6.430   0.924 -0.5079  1.5094 -1.8818
  555TIP3    H223081   0.302   6.289   0.884 -0.3005  0.6326  1.1142
  556TIP3   OH223082   2.330   5.855  15.754  0.6403 -0.0295  0.4260
  556TIP3    H123083   2.283   5.897  15.682  1.4589  2.0782  1.0276
  556TIP3    H223084   2.392   5.796  15.712 -0.9840 -1.2020 -0.4364
  557TIP3   OH223085   1.174   2.518   1.854  0.1225 -0.3570  0.2949
  557TIP3    H123086   1.194   2.599   1.900  2.3020 -0.4265 -0.4004
  557TIP3    H223087   1.092   2.535   1.808  0.7058  1.5868 -0.0983
  558TIP3   OH223088   5.922   1.977   4.699 -0.0096 -0.1401  0.5223
  558TIP3    H123089   5.986   1.965   4.629  0.0521  0.0033  0.5506
  558TIP3    H223090   5.968   2.032   4.763 -0.5353  0.9017  0.0363
  559TIP3   OH223091   3.643   5.256  16.683 -0.3941 -0.0556  0.4542
  559TIP3    H123092   3.701   5.257  16.607 -2.3912 -1.5166 -1.2089
  559TIP3    H223093   3.698   5.228  16.756  1.5144  1.1150 -0.4555
  560TIP3   OH223094   1.303   0.703   3.707 -1.2668  0.2344 -0.2607
  560TIP3    H123095   1.349   0.695   3.624  0.0523 -2.2063  0.6162
  560TIP3    H223096   1.210   0.700   3.683 -0.9381  0.7398 -1.7075
  561TIP3   OH223097   6.432   3.081   6.456 -0.0458 -0.0830 -0.6916
  561TIP3    H123098   6.438   3.098   6.551  2.8196  0.4979 -0.9000
  561TIP3    H223099   6.345   3.114   6.432  0.6742  3.6636  1.0801
  562TIP3   OH223100   2.024   3.601   3.950 -0.7383  0.0767  0.3004
  562TIP3    H123101   2.061   3.620   4.037 -0.6294 -1.6775  0.6702
  562TIP3    H223102   2.101   3.584   3.895 -0.7870  1.5639 -0.2612
  563TIP3   OH223103   2.024   3.236   5.981 -0.0966  0.6175  0.2878
  563TIP3    H123104   2.063   3.149   5.987 -0.6272  0.2567 -0.9857
  563TIP3    H223105   1.953   3.235   6.044 -0.8292 -0.3129 -0.5122
  564TIP3   OH223106   3.907   6.760  13.172 -0.4303  0.6767  0.2949
  564TIP3    H123107   3.832   6.819  13.166 -0.7792  0.2650  0.5634
  564TIP3    H223108   3.983   6.816  13.155 -0.6946  1.3542  1.3030
  565TIP3   OH223109   3.484   6.155  16.990  0.1935  0.1079 -0.1436
  565TIP3    H123110   3.533   6.218  16.937 -1.0812  1.0620 -0.2255
  565TIP3    H223111   3.431   6.209  17.049  0.5260 -0.9179  1.1470
  566TIP3   OH223112   3.009   5.242  14.002 -1.3024 -0.3861 -0.3558
  566TIP3    H123113   2.951   5.246  14.078 -0.1746  0.3726  0.4949
  566TIP3    H223114   2.969   5.301  13.938 -2.5464 -1.4407 -0.5863
  567TIP3   OH223115   4.066   6.453  12.132 -0.4969  0.5182  0.9182
  567TIP3    H123116   4.031   6.401  12.204  0.5481 -1.3897  0.1206
  567TIP3    H223117   4.034   6.542  12.149 -2.8559 -0.4472  2.0284
  568TIP3   OH223118   4.247   3.454  15.026 -0.2376 -0.0113 -0.1265
  568TIP3    H123119   4.153   3.456  15.014 -0.2877 -1.1317  0.0282
  568TIP3    H223120   4.263   3.513  15.100 -1.0593 -1.4784  1.2649
  569TIP3   OH223121   1.091   5.383  13.778  0.3149  0.2574 -0.0518
  569TIP3    H123122   1.119   5.415  13.692 -0.2692 -0.3365 -0.4699
  569TIP3    H223123   1.000   5.412  13.786  0.2548 -0.0013  0.2114
  570TIP3   OH223124   4.903   0.681   1.566 -0.1527 -0.4113 -0.2379
  570TIP3    H123125   4.967   0.631   1.617 -0.5990  0.4763  1.2613
  570TIP3    H223126   4.930   0.670   1.475  2.0176 -0.1907  0.3390
  571TIP3   OH223127   0.052   4.573  16.593 -0.1942  0.0779 -0.2628
  571TIP3    H123128   0.133   4.571  16.543  0.6851  0.7419  1.0769
  571TIP3    H223129  -0.008   4.518  16.543  0.9263 -0.0562 -1.5238
  572TIP3   OH223130   5.419   3.790  12.487  0.1135  0.2111 -0.1275
  572TIP3    H123131   5.445   3.790  12.395 -0.7822  0.0281 -0.4008
  572TIP3    H223132   5.460   3.868  12.524  2.3731 -0.9166 -0.0937
  573TIP3   OH223133   4.514   1.390  12.958 -0.0562  0.0586 -0.0467
  573TIP3    H123134   4.587   1.357  13.011 -1.4750 -2.4074  0.5220
  573TIP3    H223135   4.541   1.375  12.868 -0.5249 -2.6925  0.1728
  574TIP3   OH223136   2.320   4.352  11.825  0.5277  0.4419 -0.3057
  574TIP3    H123137   2.263   4.276  11.808  0.0637  0.7222 -0.0254
  574TIP3    H223138   2.308   4.408  11.749 -0.6075  1.1240  0.3552
  575TIP3   OH223139   5.118   3.673  16.205  0.1106 -0.1311 -0.1940
  575TIP3    H123140   5.162   3.616  16.143  0.2054 -1.0317  0.6722
  575TIP3    H223141   5.188   3.712  16.257 -0.0572 -1.4920  1.1217
  576TIP3   OH223142   6.100   1.304   2.228  0.3130 -0.0237 -0.2245
  576TIP3    H123143   6.067   1.258   2.306 -1.9480  0.1366 -1.0231
  576TIP3    H223144   6.120   1.234   2.166  1.0085 -0.0926  0.0631
  577TIP3   OH223145   4.239   1.718  14.493  0.3108 -0.3624  0.3369
  577TIP3    H123146   4.201   1.640  14.534 -0.1268 -0.7888 -0.8308
  577TIP3    H223147   4.178   1.741  14.423  1.4574 -0.1962 -0.6505
  578TIP3   OH223148   3.444   2.182  13.795 -0.1284  0.2171 -0.1551
  578TIP3    H123149   3.466   2.095  13.828 -1.4901  0.3320  1.1651
  578TIP3    H223150   3.357   2.173  13.759 -0.8629  1.2902  1.2298
  579TIP3   OH223151   0.633   0.862  10.944  0.9241 -0.3981  0.0795
  579TIP3    H123152   0.677   0.794  10.996 -1.3017 -1.6741  0.4042
  579TIP3    H223153   0.604   0.817  10.865  0.1180  0.3774 -0.0718
  580TIP3   OH223154   4.860   5.183   0.048  0.2777 -0.4019  0.4447
  580TIP3    H123155   4.868   5.204   0.141  0.5395 -1.0705  0.5758
  580TIP3    H223156   4.766   5.186   0.031  0.3109  1.5506  0.2857
  581TIP3   OH223157   4.338   5.618   2.547 -0.1367 -0.3983 -0.7437
  581TIP3    H123158   4.310   5.554   2.614  0.2750 -1.6040 -1.6842
  581TIP3    H223159   4.403   5.671   2.591  0.8555 -1.8082 -0.4306
  582TIP3   OH223160   0.497   4.394   1.969 -0.2651 -0.6339 -0.0709
  582TIP3    H123161   0.492   4.299   1.970  0.4674 -0.7444 -2.1689
  582TIP3    H223162   0.578   4.413   1.921  0.1064  1.0536  1.1312
  583TIP3   OH223163   3.950   0.413  11.731  0.0024  0.4512 -0.3797
  583TIP3    H123164   4.005   0.358  11.676 -0.1242  1.2383 -1.3192
  583TIP3    H223165   3.902   0.469  11.669 -0.5331  0.9948  0.5011
  584TIP3   OH223166   0.347   0.508  14.962 -0.1450  0.0322 -0.5840
  584TIP3    H123167   0.337   0.504  14.867 -0.0478 -0.3577 -0.5761
  584TIP3    H223168   0.274   0.563  14.991 -0.9713 -0.9446 -0.7560
  585TIP3   OH223169   2.887   0.392   1.805  0.2624 -0.4820 -0.0125
  585TIP3    H123170   2.822   0.462   1.806  0.5956 -0.1291 -1.2234
  585TIP3    H223171   2.892   0.365   1.713  3.7549  1.3699 -0.5348
  586TIP3   OH223172   4.777   3.987  12.411  0.4925  0.4684  0.9311
  586TIP3    H123173   4.761   3.944  12.495  0.0843 -1.1935  0.0298
  586TIP3    H223174   4.693   3.981  12.364  1.0167  0.4109 -0.0220
  587TIP3   OH223175   0.886   6.583   3.117 -0.0452  0.1946  0.2189
  587TIP3    H123176   0.815   6.610   3.175  1.7698  0.2890  2.5443
  587TIP3    H223177   0.956   6.554   3.176  1.6200 -0.5440 -1.9621
  588TIP3   OH223178   1.143   4.961  14.242  0.1002  0.3162  0.1462
  588TIP3    H123179   1.228   5.005  14.233  0.3677  0.0271  1.1507
  588TIP3    H223180   1.140   4.899  14.169  0.2577  1.1250 -0.5549
  589TIP3   OH223181   0.495   2.461  12.893  0.1245 -0.3870 -0.0148
  589TIP3    H123182   0.505   2.492  12.803  0.8719  1.2098  0.5725
  589TIP3    H223183   0.537   2.529  12.946 -3.5365  0.6837  1.8263
  590TIP3   OH223184   0.136   2.058  11.592 -0.7137 -0.2110  0.2033
  590TIP3    H123185   0.109   2.040  11.502 -2.9803  0.4914  0.6806
  590TIP3    H223186   0.106   1.982  11.642 -0.5399 -0.0460  0.5616
  591TIP3   OH223187   2.963   3.468   1.213  0.5082 -0.8594 -0.2687
  591TIP3    H123188   2.870   3.453   1.200  0.4824 -0.6397 -0.3321
  591TIP3    H223189   3.005   3.388   1.180  0.2685 -1.5144  0.9716
  592TIP3   OH223190   3.783   4.208   1.877 -0.4459  0.4420  0.7132
  592TIP3    H123191   3.718   4.244   1.938 -0.2821 -0.6611  1.5608
  592TIP3    H223192   3.731   4.169   1.807 -0.7389 -0.6862  1.5287
  593TIP3   OH223193   1.926   4.616   4.286 -0.0812  0.0135 -0.0052
  593TIP3    H123194   1.940   4.570   4.369  0.5522 -0.6152 -0.4378
  593TIP3    H223195   1.842   4.583   4.255 -1.1484  1.4969  1.1518
  594TIP3   OH223196   3.486   5.037  16.450 -0.3221 -0.1959 -0.4872
  594TIP3    H123197   3.405   5.079  16.478  0.9971  2.1312  0.1786
  594TIP3    H223198   3.510   5.083  16.370  1.0503  0.2146  0.1252
  595TIP3   OH223199   2.898   6.531  15.277  0.2419  0.0948 -0.0813
  595TIP3    H123200   2.849   6.455  15.309  0.5788 -0.0856  0.0227
  595TIP3    H223201   2.861   6.606  15.324 -1.7168  0.3665 -1.8999
  596TIP3   OH223202   3.019   2.198   4.413  0.4227  0.1158 -0.4096
  596TIP3    H123203   2.940   2.148   4.397  1.2994 -1.1794 -0.8356
  596TIP3    H223204   3.056   2.161   4.493 -0.2637  1.8671  0.7772
  597TIP3   OH223205   2.844   3.588   0.402  0.0589  0.4463  0.5250
  597TIP3    H123206   2.878   3.677   0.410 -0.5743  0.6271  1.4665
  597TIP3    H223207   2.915   3.539   0.361  1.2567  0.9278  1.9067
  598TIP3   OH223208   4.977   1.729   4.075  0.1154 -0.2786 -0.6156
  598TIP3    H123209   4.987   1.667   4.002  1.0303 -1.5866  0.5624
  598TIP3    H223210   4.883   1.733   4.090 -0.0207 -0.6561 -1.3006
  599TIP3   OH223211   1.750   1.633  14.040 -0.5964  0.3234 -0.1056
  599TIP3    H123212   1.738   1.722  14.006  2.6311  0.6651 -0.6746
  599TIP3    H223213   1.777   1.645  14.131 -0.4274 -0.0802 -0.0995
  600TIP3   OH223214   4.946   5.383   3.820 -0.5466  0.0468  0.0315
  600TIP3    H123215   4.934   5.289   3.810  2.3589 -0.3847 -0.5220
  600TIP3    H223216   4.957   5.396   3.915  1.7083 -0.6812 -0.0651
  601TIP3   OH223217   0.657   2.608  13.052  0.1161 -0.7020  0.5815
  601TIP3    H123218   0.697   2.563  13.127 -0.1404  0.2238  1.2874
  601TIP3    H223219   0.723   2.672  13.025  0.1202 -0.8891  0.1415
  602TIP3   OH223220   2.834   1.875  14.948  0.6273  0.7129  1.4291
  602TIP3    H123221   2.797   1.947  14.897  0.1421 -0.0953  0.6127
  602TIP3    H223222   2.768   1.858  15.016 -0.4822 -0.5824  0.1067
  603TIP3   OH223223   0.016   2.011  12.335 -0.1324  0.4315 -0.2276
  603TIP3    H123224   0.067   1.956  12.395 -1.5685 -1.8686 -1.0020
  603TIP3    H223225  -0.055   2.046  12.388  0.7584  1.5740  0.2574
  604TIP3   OH223226   6.158   5.945  16.500  0.0006  0.5804 -0.0746
  604TIP3    H123227   6.245   5.956  16.540 -0.0556  0.2863  0.1301
  604TIP3    H223228   6.101   6.003  16.551  0.2394  1.4233 -0.7522
  605TIP3   OH223229   4.856   6.121   0.183 -0.2538 -0.8361  0.4853
  605TIP3    H123230   4.846   6.076   0.267 -1.3015 -1.5396  0.0213
  605TIP3    H223231   4.930   6.078   0.142  1.2135  0.5045  1.6235
  606TIP3   OH223232   1.987   6.725  13.927  0.0424  0.3360  0.7984
  606TIP3    H123233   2.044   6.801  13.909  1.1708 -0.7233 -0.2736
  606TIP3    H223234   2.029   6.681  14.001 -0.5455  0.6734  1.3406
  607TIP3   OH223235   0.567   3.254  13.864 -0.7027 -0.3145  0.0631
  607TIP3    H123236   0.623   3.332  13.855  1.2997 -1.8020 -1.7656
  607TIP3    H223237   0.614   3.198  13.926 -1.6075 -0.4877  0.6034
  608TIP3   OH223238   1.109   6.565   4.632  0.2495 -0.5486 -0.2460
  608TIP3    H123239   1.022   6.538   4.661  1.0316 -0.4716  2.4068
  608TIP3    H223240   1.092   6.637   4.571 -1.5613 -1.0813 -0.4268
  609TIP3   OH223241   2.022   2.112   5.514 -0.3289  0.7263 -0.4151
  609TIP3    H123242   1.945   2.087   5.463  0.1092 -1.1264 -0.2558
  609TIP3    H223243   2.094   2.062   5.476  0.0295 -0.7154  1.9090
  610TIP3   OH223244   2.825   3.195   4.799 -0.0771  0.1193 -0.0486
  610TIP3    H123245   2.748   3.251   4.805  0.8144  1.4059 -0.1566
  610TIP3    H223246   2.881   3.223   4.872  1.2136  0.7065 -1.2189
  611TIP3   OH223247   2.372   1.370   3.509  0.0407 -0.0748  0.0570
  611TIP3    H123248   2.294   1.424   3.508 -0.3832 -0.5829  1.8143
  611TIP3    H223249   2.373   1.331   3.597  1.8085 -0.7383 -0.2154
  612TIP3   OH223250   0.831   0.923   4.533 -0.0259 -0.3972 -0.3180
  612TIP3    H123251   0.758   0.879   4.488  0.4485 -2.2101  0.5648
  612TIP3    H223252   0.829   1.013   4.500 -1.9081 -0.7102 -1.2144
  613TIP3   OH223253   3.662   0.037   6.227  0.4183  0.4737  0.4163
  613TIP3    H123254   3.642  -0.052   6.254 -0.5584  0.4448 -0.3248
  613TIP3    H223255   3.636   0.091   6.302 -1.0738  0.2953  0.0719
  614TIP3   OH223256   3.756   2.188   1.211 -0.6951  0.4783  0.3285
  614TIP3    H123257   3.738   2.095   1.193  0.5871  0.2804 -0.0476
  614TIP3    H223258   3.669   2.228   1.217 -1.3237 -0.9468  1.6229
  615TIP3   OH223259   4.144   4.912  12.143 -0.0132 -0.1829 -0.0550
  615TIP3    H123260   4.163   5.001  12.115 -1.0472  0.0228 -0.1390
  615TIP3    H223261   4.157   4.914  12.238 -1.2665  0.3956  0.1128
  616TIP3   OH223262   5.560   4.325  13.499  0.3710 -0.6470 -0.0805
  616TIP3    H123263   5.584   4.249  13.446  0.5777 -1.1515  0.7212
  616TIP3    H223264   5.511   4.381  13.439  0.4096 -1.3041 -0.7449
  617TIP3   OH223265   2.181   3.889  14.009  0.3814 -0.0502 -0.1903
  617TIP3    H123266   2.250   3.878  14.074  2.6412  2.9143 -1.8141
  617TIP3    H223267   2.139   3.972  14.032 -0.2699 -0.0841 -1.2036
  618TIP3   OH223268   6.610   5.845   4.799 -0.1909 -0.3714  0.0788
  618TIP3    H123269   6.655   5.929   4.792  1.1893 -1.1472 -0.8693
  618TIP3    H223270   6.591   5.821   4.708 -1.5061 -0.6150  0.3998
  619TIP3   OH223271   0.075   1.212  16.625 -0.8364  0.4423 -0.1104
  619TIP3    H123272   0.009   1.192  16.691 -2.6916  0.4070 -1.8847
  619TIP3    H223273   0.059   1.148  16.556  1.8161 -0.2873 -0.1536
  620TIP3   OH223274   2.380   1.170   1.367 -0.4010 -0.0202 -0.4350
  620TIP3    H123275   2.285   1.170   1.365 -0.4454  1.8333  0.0159
  620TIP3    H223276   2.402   1.179   1.460  0.2317 -0.6721 -0.5110
  621TIP3   OH223277   6.553   0.190   5.776 -0.4180  0.4787 -0.5079
  621TIP3    H123278   6.486   0.128   5.805  0.9211  0.0177  1.8150
  621TIP3    H223279   6.589   0.227   5.856  2.8516 -0.1067 -1.5559
  622TIP3   OH223280   5.743   6.204  17.315  0.3161  0.1163 -0.5057
  622TIP3    H123281   5.770   6.112  17.312 -0.5644 -0.1670 -0.1852
  622TIP3    H223282   5.782   6.243  17.237 -1.1655 -1.0740 -1.9087
  623TIP3   OH223283   6.704   0.048  12.149 -0.0963  0.1624  0.2176
  623TIP3    H123284   6.763   0.116  12.182  0.5340 -1.0853  1.8402
  623TIP3    H223285   6.761  -0.011  12.099  0.6289 -2.1392  3.4144
  624TIP3   OH223286   0.591   2.678  15.293 -0.1581 -0.3575 -0.0173
  624TIP3    H123287   0.678   2.648  15.321  1.1072  1.1632 -2.0308
  624TIP3    H223288   0.577   2.759  15.342 -0.6033 -0.7351  0.4998
  625TIP3   OH223289   4.531   6.698  14.848  0.6519  0.0666  0.2295
  625TIP3    H123290   4.583   6.682  14.927  0.4738  0.9138  0.5289
  625TIP3    H223291   4.500   6.611  14.822 -0.3407 -0.0952  1.8188
  626TIP3   OH223292   3.238   2.176   5.729 -0.4789 -0.7849 -0.7169
  626TIP3    H123293   3.312   2.155   5.786 -0.9597 -0.8000 -0.0976
  626TIP3    H223294   3.221   2.095   5.680 -0.8103 -1.1261 -0.0423
  627TIP3   OH223295   1.690   3.409   1.501  0.5017 -0.2546  0.5046
  627TIP3    H123296   1.617   3.463   1.531 -1.0015 -1.3960 -0.8996
  627TIP3    H223297   1.677   3.401   1.407  2.5970 -0.3167  0.1702
  628TIP3   OH223298   4.464   0.064  11.325 -0.2651  0.3723  0.4172
  628TIP3    H123299   4.503  -0.024  11.319  0.8098  0.8061  0.7944
  628TIP3    H223300   4.500   0.111  11.250  0.6455  1.0405  1.2584
  629TIP3   OH223301   2.317   6.476  11.654 -0.0713  0.7629  0.0487
  629TIP3    H123302   2.316   6.520  11.739 -1.3422 -1.8023  1.4675
  629TIP3    H223303   2.225   6.463  11.633  0.2344  1.1473 -1.6590
  630TIP3   OH223304   2.156   5.677  12.310 -0.1809  0.0336 -0.3095
  630TIP3    H123305   2.116   5.738  12.372  0.7952 -0.4718  0.8471
  630TIP3    H223306   2.200   5.734  12.246  1.1792  0.5974  1.0520
  631TIP3   OH223307   3.980   4.140   2.830 -0.0131 -0.4425 -0.3318
  631TIP3    H123308   3.892   4.143   2.868  0.5793 -1.5228  1.2177
  631TIP3    H223309   3.976   4.200   2.755 -1.6343  0.6678  0.5890
  632TIP3   OH223310   0.519   2.818  14.646  0.5265 -0.2794  0.1770
  632TIP3    H123311   0.470   2.797  14.725  1.6801  1.8363  1.5493
  632TIP3    H223312   0.467   2.886  14.603  0.3414 -0.8134 -0.4721
  633TIP3   OH223313   1.668   2.771  16.617  0.0586  0.1403 -0.1898
  633TIP3    H123314   1.642   2.690  16.661  0.0867  0.2310 -0.0021
  633TIP3    H223315   1.588   2.824  16.616  0.0046  0.0509 -0.4431
  634TIP3   OH223316   3.399   2.587   1.153 -0.0997  0.0109  0.4430
  634TIP3    H123317   3.468   2.588   1.087 -1.8179  0.5804 -1.4330
  634TIP3    H223318   3.319   2.570   1.104 -1.3553 -0.3580  2.5103
  635TIP3   OH223319   0.905   3.368   1.833  0.1634 -0.1654  0.1200
  635TIP3    H123320   0.925   3.376   1.740  0.6429 -2.1950  0.0006
  635TIP3    H223321   0.822   3.321   1.835  0.5693 -0.8897  0.6847
  636TIP3   OH223322   3.641   3.753  12.180  0.2376  0.2115 -0.6025
  636TIP3    H123323   3.653   3.805  12.100 -0.7467 -0.4745 -1.2146
  636TIP3    H223324   3.602   3.671  12.150 -2.7181  0.9507  0.7997
  637TIP3   OH223325   1.099   2.817   4.954  0.2870  1.1536 -0.5952
  637TIP3    H123326   1.166   2.824   4.886  0.6203  1.2296 -0.2624
  637TIP3    H223327   1.016   2.821   4.907  0.5056  2.1233 -0.9145
  638TIP3   OH223328   4.238   1.731   4.779  0.0644 -0.7890  0.3250
  638TIP3    H123329   4.147   1.706   4.796  0.2287 -1.4782  0.2280
  638TIP3    H223330   4.269   1.666   4.716  0.9021 -1.1066  1.0592
  639TIP3   OH223331   0.626   4.916  15.610  1.2612 -0.3802 -0.5531
  639TIP3    H123332   0.666   4.830  15.626  0.1535 -0.4700  2.1063
  639TIP3    H223333   0.680   4.977  15.660  2.3815  0.6736 -2.8597
  640TIP3   OH223334   4.995   3.264  12.282  0.0553  0.0956  0.1124
  640TIP3    H123335   4.918   3.308  12.319  1.1933  1.1798  1.2967
  640TIP3    H223336   4.979   3.262  12.188 -2.2398 -1.3652  0.4671
  641TIP3   OH223337   1.622   2.812  12.867  0.1534 -0.1034  0.1932
  641TIP3    H123338   1.632   2.781  12.777  1.5726 -1.3315  0.7322
  641TIP3    H223339   1.654   2.739  12.921  0.0627  0.9066  1.6603
  642TIP3   OH223340   2.515   1.243   1.611 -0.6527  0.1340  0.4249
  642TIP3    H123341   2.588   1.299   1.638  1.8199 -2.5351 -0.2906
  642TIP3    H223342   2.441   1.274   1.663  1.4068  1.7823  2.6073
  643TIP3   OH223343   1.081   0.140   1.261  0.3286 -0.3773  0.1817
  643TIP3    H123344   0.994   0.168   1.292  1.1740  1.9279  0.7002
  643TIP3    H223345   1.069   0.122   1.168 -0.8496 -0.8258  0.4015
  644TIP3   OH223346   2.354   3.685  15.660 -0.0107 -0.3752  0.4526
  644TIP3    H123347   2.335   3.775  15.688  1.0423  0.1099 -0.3406
  644TIP3    H223348   2.371   3.692  15.566  0.1106 -1.4034  0.3867
  645TIP3   OH223349   2.005   3.402  15.869 -0.0015 -0.2003 -0.2460
  645TIP3    H123350   1.998   3.496  15.887  1.4191  0.0558 -0.9169
  645TIP3    H223351   2.014   3.362  15.955  0.2460  0.3669 -0.0015
  646TIP3   OH223352   5.491   5.239   4.305 -0.3277  0.5688  0.1845
  646TIP3    H123353   5.576   5.227   4.262 -0.0059  0.6055  0.8013
  646TIP3    H223354   5.451   5.313   4.260  0.1420  0.8057  0.1506
  647TIP3   OH223355   1.868   3.907  11.402 -0.1092  0.3684  0.3077
  647TIP3    H123356   1.877   3.988  11.453  1.8309 -0.0443  0.6935
  647TIP3    H223357   1.774   3.901  11.384 -0.2839  2.8242  0.0501
  648TIP3   OH223358   2.810   3.919   0.630 -0.1228  0.1894 -0.6438
  648TIP3    H123359   2.799   3.826   0.650  0.7647  0.1566 -0.2460
  648TIP3    H223360   2.756   3.964   0.694  0.1936 -0.0310 -0.2103
  649TIP3   OH223361   3.920   0.141   4.377 -0.2018 -0.6885  0.2014
  649TIP3    H123362   4.002   0.189   4.374  0.4965 -1.7777 -4.0876
  649TIP3    H223363   3.946   0.049   4.389 -1.1511 -0.7167  2.6141
  650TIP3   OH223364   4.333   2.744   2.924 -0.5460 -0.5975  0.1167
  650TIP3    H123365   4.244   2.710   2.929 -0.8945  0.1254 -0.8251
  650TIP3    H223366   4.381   2.679   2.872 -0.3873 -1.2290  1.0321
  651TIP3   OH223367   1.223   1.985   5.660  0.5701  0.3434 -0.0012
  651TIP3    H123368   1.191   2.009   5.746  0.1902  0.6142 -0.2174
  651TIP3    H223369   1.214   1.890   5.657 -0.9663  0.4756 -0.3491
  652TIP3   OH223370   0.348   5.819  11.633 -0.0392 -0.0453 -0.1077
  652TIP3    H123371   0.254   5.821  11.619 -0.1255 -2.4661 -0.3113
  652TIP3    H223372   0.359   5.794  11.725  0.4522  1.7232  0.3530
  653TIP3   OH223373   3.969   5.171   3.163  0.6061 -0.3762  0.3911
  653TIP3    H123374   3.936   5.225   3.235  2.3011  0.7984  0.3467
  653TIP3    H223375   3.979   5.084   3.201 -1.3094 -0.4891  0.7290
  654TIP3   OH223376   5.465   2.483   5.833  0.1763 -0.1491 -0.2678
  654TIP3    H123377   5.377   2.507   5.862  1.0416  1.6548  0.9692
  654TIP3    H223378   5.510   2.566   5.817  2.1241 -0.9809  0.5423
  655TIP3   OH223379   1.200   6.053   5.250  0.1504 -0.7844 -0.0315
  655TIP3    H123380   1.141   6.056   5.175 -1.2633 -0.1669  1.0523
  655TIP3    H223381   1.286   6.031   5.213 -0.4137 -0.0790 -1.8544
  656TIP3   OH223382   2.731   3.567  16.173  0.3117 -0.1144  0.7253
  656TIP3    H123383   2.672   3.568  16.248 -0.8789 -1.2209 -0.1578
  656TIP3    H223384   2.700   3.638  16.117 -2.0767 -2.3865 -1.0628
  657TIP3   OH223385   3.583   6.138  12.951 -0.3203  0.2563 -0.5038
  657TIP3    H123386   3.511   6.075  12.948  0.0575 -0.1878 -2.6768
  657TIP3    H223387   3.565   6.198  12.878  1.1659  0.4885 -0.7167
  658TIP3   OH223388   1.301   2.849  11.015  0.0904  0.3991  0.4247
  658TIP3    H123389   1.266   2.761  11.006 -1.5084  0.9980  0.3979
  658TIP3    H223390   1.234   2.906  10.975  1.0699  1.6169  0.4541
  659TIP3   OH223391   4.823   5.284  14.666  0.1019  0.2217  0.2906
  659TIP3    H123392   4.824   5.356  14.729 -0.2604 -1.5581  2.4734
  659TIP3    H223393   4.768   5.217  14.708 -4.0907  0.5396 -3.8884
  660TIP3   OH223394   6.338   3.472  14.102 -0.4664 -0.2530  0.3255
  660TIP3    H123395   6.395   3.500  14.030  1.2644 -2.0848  0.8818
  660TIP3    H223396   6.390   3.492  14.181 -1.2917 -0.5218  0.9431
  661TIP3   OH223397   5.509   5.889  10.507 -0.5506  0.1837  0.6539
  661TIP3    H123398   5.467   5.948  10.445 -1.5962 -2.1325 -0.9852
  661TIP3    H223399   5.462   5.806  10.497  1.2166 -1.1307  2.4102
  662TIP3   OH223400   1.260   0.301   5.457 -0.2221  0.2370 -0.5475
  662TIP3    H123401   1.308   0.383   5.454  0.9897 -0.4608 -0.7880
  662TIP3    H223402   1.205   0.302   5.379  0.9923  0.1195 -1.4279
  663TIP3   OH223403   0.774   5.290  13.160  0.6502 -0.2077 -0.3081
  663TIP3    H123404   0.749   5.363  13.217  2.3381  0.2794 -0.1344
  663TIP3    H223405   0.726   5.215  13.195 -0.4257  0.6268  0.0645
  664TIP3   OH223406   3.031   5.165  11.416  0.0382 -0.2086 -0.3917
  664TIP3    H123407   3.002   5.074  11.422 -1.4185  0.3156  1.4979
  664TIP3    H223408   2.958   5.212  11.374 -0.0265  0.3766  0.3423
  665TIP3   OH223409   5.302   3.269  12.102 -0.1061  0.4838 -0.3645
  665TIP3    H123410   5.265   3.232  12.183  0.9596 -1.4208 -0.6984
  665TIP3    H223411   5.333   3.356  12.128  1.5244 -0.6239  1.7035
  666TIP3   OH223412   1.369   3.854   5.831 -0.1657 -0.0931  0.4815
  666TIP3    H123413   1.436   3.843   5.764 -2.1601 -1.6053 -1.4165
  666TIP3    H223414   1.384   3.782   5.892 -0.1811 -0.5943 -0.0915
  667TIP3   OH223415   6.452   6.114   2.296 -0.1865  0.6064 -0.2907
  667TIP3    H123416   6.506   6.138   2.372 -1.4024 -0.8903  1.1301
  667TIP3    H223417   6.501   6.043   2.253  1.1931  2.3863 -1.8194
  668TIP3   OH223418   2.560   1.033   2.259 -0.4033 -0.7236  0.0344
  668TIP3    H123419   2.559   1.124   2.288  1.3370  0.4893 -3.2257
  668TIP3    H223420   2.472   1.001   2.279 -1.3617  1.9370  0.4843
  669TIP3   OH223421   5.955   2.891   6.392 -0.3075  0.4239 -0.3071
  669TIP3    H123422   5.867   2.895   6.430 -0.7091 -0.3953 -1.0870
  669TIP3    H223423   6.013   2.924   6.460 -0.4809 -4.3354  2.5980
  670TIP3   OH223424   3.987   6.713   0.047  0.1154 -0.3419  0.3278
  670TIP3    H123425   3.916   6.752  -0.003  1.0277 -1.3941 -1.8821
  670TIP3    H223426   4.066   6.761   0.020  0.5488 -0.4459  1.3321
  671TIP3   OH223427   3.822   6.250  14.421  0.0773 -0.1807  0.2209
  671TIP3    H123428   3.772   6.188  14.475 -1.9961  0.0360 -1.2947
  671TIP3    H223429   3.885   6.195  14.375 -0.4404 -0.8945  0.3405
  672TIP3   OH223430   6.442   1.968  15.348  0.0789 -0.6839 -0.2458
  672TIP3    H123431   6.426   2.062  15.338  0.7020 -0.3606  1.5153
  672TIP3    H223432   6.398   1.945  15.430  1.2382 -1.5974  0.1425
  673TIP3   OH223433   4.729   0.229   3.658 -0.6271  0.6480 -0.5319
  673TIP3    H123434   4.807   0.215   3.605  1.2600  0.0848  2.1774
  673TIP3    H223435   4.720   0.148   3.710 -2.7786  0.8753 -0.4488
  674TIP3   OH223436   3.954   0.938   1.559 -0.2366  0.4347 -0.4716
  674TIP3    H123437   4.040   0.941   1.601  0.0110  1.9294 -1.0312
  674TIP3    H223438   3.969   0.972   1.470 -1.3726  0.5511 -0.6378
  675TIP3   OH223439   4.768   6.661   2.006 -0.2500 -0.1798 -0.5036
  675TIP3    H123440   4.819   6.580   2.011 -0.3573 -0.3800 -2.2087
  675TIP3    H223441   4.681   6.633   1.977 -1.2291  0.2230  1.8451
  676TIP3   OH223442   0.109   0.510   3.469  0.2228  0.1369  0.2007
  676TIP3    H123443   0.151   0.592   3.441 -0.4330  0.9804  1.5337
  676TIP3    H223444   0.165   0.478   3.539 -1.8317  1.9428  2.8898
  677TIP3   OH223445   1.742   0.767  13.721  0.0910 -0.8674 -0.4151
  677TIP3    H123446   1.666   0.728  13.765  0.6607 -2.1449 -0.4981
  677TIP3    H223447   1.814   0.705  13.738  0.8164 -0.3257 -1.3719
  678TIP3   OH223448   3.445   6.363   3.748 -0.6234  0.0277 -0.0488
  678TIP3    H123449   3.394   6.445   3.745 -1.7336 -0.6495 -0.6349
  678TIP3    H223450   3.435   6.326   3.660  0.9604 -0.1107 -0.1930
  679TIP3   OH223451   5.240   4.839  17.254  0.0280  0.2357  0.5965
  679TIP3    H123452   5.327   4.804  17.237  0.4762  0.8105  1.5776
  679TIP3    H223453   5.242   4.928  17.217 -0.5537 -0.1597 -0.4334
  680TIP3   OH223454   5.602   1.448   0.345 -0.2619 -0.0619  0.3242
  680TIP3    H123455   5.588   1.543   0.355 -1.5410 -0.1584 -0.3451
  680TIP3    H223456   5.578   1.411   0.430 -0.9813  0.0994  0.1944
  681TIP3   OH223457   6.084   1.518  14.450  0.0092  0.1553  0.8335
  681TIP3    H123458   6.130   1.490  14.529 -1.1083  0.5721  1.6653
  681TIP3    H223459   6.119   1.462  14.380  0.0368 -1.1719  1.8827
  682TIP3   OH223460   0.135   4.883  14.508  0.5987 -0.3119  0.5367
  682TIP3    H123461   0.072   4.846  14.570  1.3488 -0.1029  1.4482
  682TIP3    H223462   0.214   4.830  14.520  0.4000 -1.0644 -1.1336
  683TIP3   OH223463   5.182   4.829  13.143 -0.0764 -0.0083 -0.1210
  683TIP3    H123464   5.264   4.792  13.110  0.1014  0.6329 -0.4176
  683TIP3    H223465   5.130   4.753  13.170  1.0918 -0.3860  1.1972
  684TIP3   OH223466   3.755   6.746  16.866 -0.0716  0.6158 -0.2918
  684TIP3    H123467   3.810   6.815  16.903 -0.1150  0.3901  0.2025
  684TIP3    H223468   3.671   6.788  16.851 -0.8382  0.1426  2.1705
  685TIP3   OH223469   5.019   1.625  15.527 -0.4441  0.0904 -0.5074
  685TIP3    H123470   4.990   1.587  15.445 -0.4632 -0.5524 -0.2081
  685TIP3    H223471   4.996   1.718  15.521 -1.6703 -0.2091 -0.6712
  686TIP3   OH223472   2.978   4.410  13.311 -0.2606 -0.4795  0.8021
  686TIP3    H123473   2.930   4.402  13.394 -1.1705 -0.1791  0.3150
  686TIP3    H223474   2.949   4.335  13.259 -2.3579  1.1532 -0.5417
  687TIP3   OH223475   1.326   2.691  16.107 -0.2783  0.2312 -0.1565
  687TIP3    H123476   1.371   2.673  16.189 -0.2855 -0.9472 -0.3917
  687TIP3    H223477   1.358   2.778  16.081  0.8577 -0.0164  0.3446
  688TIP3   OH223478   4.410   5.506   3.832  0.2184  0.3035 -0.5699
  688TIP3    H123479   4.460   5.431   3.799  0.0801 -0.3666  0.6870
  688TIP3    H223480   4.321   5.473   3.842  0.0377  0.7981 -0.5276
  689TIP3   OH223481   4.090   0.762  16.231  0.6138 -0.6545  0.5810
  689TIP3    H123482   4.024   0.714  16.282  0.2503 -1.3020 -0.4897
  689TIP3    H223483   4.103   0.843  16.281 -0.2035 -0.9915  1.3718
  690TIP3   OH223484   3.545   2.525   5.993 -0.5643 -0.6979 -0.0523
  690TIP3    H123485   3.548   2.466   6.069 -1.2009 -0.5370  0.1036
  690TIP3    H223486   3.537   2.612   6.031  1.8143 -0.3504 -0.2424
  691TIP3   OH223487   6.736   3.148   1.931 -0.1916 -0.4609  0.2752
  691TIP3    H123488   6.774   3.133   2.017  0.4799 -0.9077 -0.0857
  691TIP3    H223489   6.707   3.239   1.933  2.4288  0.4845  0.0341
  692TIP3   OH223490   2.691   6.732  15.021  0.2849  0.0244 -0.0722
  692TIP3    H123491   2.773   6.695  15.055  0.1277 -0.7759 -0.5520
  692TIP3    H223492   2.633   6.737  15.097  0.2446 -0.8989 -0.0406
  693TIP3   OH223493   4.478   2.834  13.101 -0.2096  0.0834  0.0385
  693TIP3    H123494   4.418   2.775  13.147 -1.2164 -1.4278 -2.9165
  693TIP3    H223495   4.559   2.829  13.151 -0.8024 -2.4847  0.9164
  694TIP3   OH223496   3.862   1.982  12.205  0.1056 -0.7121  0.4323
  694TIP3    H123497   3.861   1.894  12.245  2.2021 -1.1793 -0.4017
  694TIP3    H223498   3.954   1.998  12.187 -0.4389  0.9146 -1.1208
  695TIP3   OH223499   1.467   5.647   0.302 -1.0603 -0.3425 -0.1917
  695TIP3    H123500   1.423   5.578   0.353 -0.9216 -0.5707 -0.3812
  695TIP3    H223501   1.560   5.625   0.307 -1.1121 -0.8604 -1.2695
  696TIP3   OH223502   6.533   0.236   4.161 -0.8038 -0.0966 -0.4420
  696TIP3    H123503   6.500   0.146   4.164  0.6515 -0.6539  0.0408
  696TIP3    H223504   6.579   0.241   4.077  1.3778 -0.7114  0.6261
  697TIP3   OH223505   2.037   0.544  13.007 -0.2825  0.3128 -0.0755
  697TIP3    H123506   1.969   0.481  13.030  0.7278 -1.2371 -1.1571
  697TIP3    H223507   1.991   0.614  12.962 -1.3065 -0.1306  0.2582
  698TIP3   OH223508   3.289   4.377  11.488  0.2796  0.6625 -0.1175
  698TIP3    H123509   3.340   4.431  11.427  1.0309 -0.1441 -0.2244
  698TIP3    H223510   3.248   4.440  11.547  0.3075  1.4087 -0.8653
  699TIP3   OH223511   4.152   0.019  15.444  0.1594 -0.2163 -0.0637
  699TIP3    H123512   4.198   0.028  15.527 -1.1172 -0.8877  0.7352
  699TIP3    H223513   4.061   0.007  15.468 -0.4120  0.7932 -1.6088
  700TIP3   OH223514   3.409   1.725   0.809 -0.2662  0.4607  0.4727
  700TIP3    H123515   3.476   1.757   0.748 -1.2540 -1.1429 -1.6048
  700TIP3    H223516   3.327   1.739   0.763 -1.3482  1.5221  2.5821
  701TIP3   OH223517   0.991   5.263   5.933 -0.2900  0.1537  0.0270
  701TIP3    H123518   1.075   5.224   5.956 -0.4005  0.3784  0.8300
  701TIP3    H223519   0.990   5.261   5.837 -0.6554 -2.6240 -0.0064
  702TIP3   OH223520   6.407   2.241   4.478  0.4667 -0.3612  0.1859
  702TIP3    H123521   6.398   2.276   4.566 -3.1598 -0.3166 -0.0645
  702TIP3    H223522   6.451   2.157   4.490  1.0486  0.1454  1.8588
  703TIP3   OH223523   4.646   1.957  17.113  0.0504 -0.7318 -0.4130
  703TIP3    H123524   4.700   1.882  17.141  0.1863  0.4718  2.9859
  703TIP3    H223525   4.710   2.024  17.089 -0.0599 -0.9566 -1.3937
  704TIP3   OH223526   1.819   4.065   6.297 -0.3818 -0.6837 -0.1507
  704TIP3    H123527   1.848   3.993   6.352  1.5199 -0.1007 -0.3212
  704TIP3    H223528   1.776   4.126   6.358 -0.5133 -1.1820  0.2626
  705TIP3   OH223529   1.064   3.531  10.846 -0.0401  0.3220 -0.1085
  705TIP3    H123530   0.977   3.525  10.886 -0.2217  2.0914 -0.1289
  705TIP3    H223531   1.057   3.607  10.787  1.0957 -0.4123 -1.2395
  706TIP3   OH223532   1.399   1.304   3.056  0.4551 -0.5197  0.1045
  706TIP3    H123533   1.408   1.235   2.990  0.1881 -1.9783  1.5280
  706TIP3    H223534   1.482   1.303   3.103  0.2028 -0.3155  0.5566
  707TIP3   OH223535   4.779   3.890   1.427 -0.2969 -0.5845 -0.1701
  707TIP3    H123536   4.788   3.848   1.342 -2.1294  1.9070 -1.7277
  707TIP3    H223537   4.837   3.966   1.422 -0.9703 -0.0095  0.5033
  708TIP3   OH223538   3.925   5.980   3.871 -0.2823  0.0088  0.5063
  708TIP3    H123539   3.857   5.922   3.837 -0.5694  0.4038  0.3970
  708TIP3    H223540   3.997   5.921   3.896 -0.3115 -0.3376 -0.2034
  709TIP3   OH223541   1.988   2.586  11.842  0.0157 -0.1025  0.5115
  709TIP3    H123542   2.071   2.553  11.874 -0.3077  0.1412  1.6554
  709TIP3    H223543   1.967   2.659  11.900 -0.0264  1.1603 -0.9978
  710TIP3   OH223544   3.589   6.382   0.217  0.6240 -0.2604 -0.4849
  710TIP3    H123545   3.633   6.464   0.198 -0.8584  0.1263 -2.6035
  710TIP3    H223546   3.502   6.408   0.249  0.9733 -1.0208  1.2167
  711TIP3   OH223547   2.269   2.504  12.978  0.2069  0.3568  0.3770
  711TIP3    H123548   2.320   2.423  12.975 -1.7065 -0.9460  1.1593
  711TIP3    H223549   2.321   2.562  13.034  1.3550 -0.5054  0.2479
  712TIP3   OH223550   5.386   2.732  11.126 -0.1997 -0.8137  0.0910
  712TIP3    H123551   5.322   2.792  11.088 -0.3181 -1.4544 -0.7373
  712TIP3    H223552   5.340   2.649  11.134  0.3003 -1.0831  0.2017
  713TIP3   OH223553   3.606   2.079   3.977  0.0846 -0.1923  0.6774
  713TIP3    H123554   3.526   2.130   3.974  0.3774  0.2103 -0.9081
  713TIP3    H223555   3.638   2.091   4.067  0.0695  2.3033  0.4192
  714TIP3   OH223556   0.395   0.312  14.293  0.8834  0.1260  0.2508
  714TIP3    H123557   0.454   0.318  14.368  0.1625  1.4749  0.7370
  714TIP3    H223558   0.326   0.376  14.311  0.6187  0.3865 -1.4940
  715TIP3   OH223559   2.050   3.121  15.671  0.5135  0.2965 -0.4547
  715TIP3    H123560   2.023   3.210  15.697 -0.1217  0.0901 -0.3813
  715TIP3    H223561   2.090   3.133  15.585  1.1699  0.7659 -0.0895
  716TIP3   OH223562   6.024   3.901   1.578 -0.9891 -0.1808 -0.3189
  716TIP3    H123563   6.029   3.807   1.561 -2.7585 -0.1656 -1.1238
  716TIP3    H223564   5.956   3.911   1.644  0.8205  0.3956  1.5741
  717TIP3   OH223565   4.324   1.629   2.838  0.2057 -0.4652 -0.1392
  717TIP3    H123566   4.418   1.612   2.838  0.2099 -0.4400 -0.1250
  717TIP3    H223567   4.308   1.676   2.920  0.3264  0.3175 -0.5513
  718TIP3   OH223568   0.314   4.441   1.546  0.5563 -0.1648  0.2355
  718TIP3    H123569   0.297   4.361   1.496 -2.4800 -0.0913  0.9672
  718TIP3    H223570   0.298   4.512   1.483  0.4893 -0.1026  0.3235
  719TIP3   OH223571   3.178   1.701   5.660 -0.4626 -0.0601 -0.0862
  719TIP3    H123572   3.093   1.716   5.619 -0.1595  0.5663 -0.5040
  719TIP3    H223573   3.170   1.738   5.748  0.0400  1.9985 -0.8501
  720TIP3   OH223574   6.542   6.267   3.033 -0.3880  0.8202  0.0690
  720TIP3    H123575   6.618   6.227   2.990  0.3200  0.3575  1.6823
  720TIP3    H223576   6.467   6.239   2.980  0.4925  0.7969 -1.2132
  721TIP3   OH223577   6.682   3.791  15.578  0.0003  0.3675 -0.4264
  721TIP3    H123578   6.658   3.734  15.505  1.5597 -0.7927 -0.1001
  721TIP3    H223579   6.772   3.764  15.600 -0.3250  0.8874  1.7178
  722TIP3   OH223580   0.986   3.109   4.735 -0.9204 -0.2746 -0.3005
  722TIP3    H123581   0.952   3.103   4.824  0.2888 -0.2872  0.1676
  722TIP3    H223582   1.081   3.109   4.745 -0.7302 -1.8036 -1.6819
  723TIP3   OH223583   6.033   5.077  13.283  0.8634  0.4942  0.2819
  723TIP3    H123584   5.993   4.994  13.259  0.8324  0.9274 -1.2717
  723TIP3    H223585   6.127   5.059  13.284  0.7678 -0.0094  1.8479
  724TIP3   OH223586   6.408   1.558  16.319 -0.4466  0.3335  0.1651
  724TIP3    H123587   6.466   1.504  16.373 -0.4562 -0.4063 -0.5513
  724TIP3    H223588   6.443   1.647  16.327  0.0982  0.0811  0.6469
  725TIP3   OH223589   5.045   5.067   5.819 -0.7541 -0.5315 -0.3814
  725TIP3    H123590   4.953   5.053   5.840 -1.0398  1.0884 -0.4266
  725TIP3    H223591   5.045   5.140   5.757  0.6251  0.4474  0.7016
  726TIP3   OH223592   5.404   1.046  16.434 -0.4691 -0.1342  0.0216
  726TIP3    H123593   5.393   1.123  16.489  0.2292 -0.6639  0.9250
  726TIP3    H223594   5.379   0.972  16.489 -0.5998 -0.6079 -0.6553
  727TIP3   OH223595   3.633   3.877  10.730 -0.2106  0.3863 -0.3676
  727TIP3    H123596   3.717   3.880  10.685 -0.3406 -0.1992 -0.6575
  727TIP3    H223597   3.632   3.956  10.784  0.2178  0.7657 -0.9035
  728TIP3   OH223598   1.843   4.936  12.588 -0.0715 -0.5746  0.1010
  728TIP3    H123599   1.900   4.866  12.556  1.0098  0.9481 -1.4869
  728TIP3    H223600   1.856   4.935  12.683  1.9808 -0.8407 -0.1194
  729TIP3   OH223601   2.061   4.082   4.064 -0.8866 -0.4453 -0.4634
  729TIP3    H123602   2.040   3.998   4.024 -1.4430  0.1325 -1.4262
  729TIP3    H223603   2.118   4.060   4.138 -0.9666 -1.6520 -0.7420
  730TIP3   OH223604   5.101   4.619  12.723 -0.8107 -0.0022 -0.5679
  730TIP3    H123605   5.098   4.714  12.710 -1.2758  0.2596  1.1293
  730TIP3    H223606   5.193   4.596  12.719  0.1024  1.4991  4.4100
  731TIP3   OH223607   5.432   0.295  12.017 -0.2200  0.0483 -0.8635
  731TIP3    H123608   5.475   0.260  12.095 -0.4187 -2.2625 -1.6994
  731TIP3    H223609   5.344   0.319  12.047  0.6738  2.2487  0.2533
  732TIP3   OH223610   4.841   3.546  11.403 -0.1215  1.2037 -0.2035
  732TIP3    H123611   4.911   3.565  11.341 -0.9333  0.8330 -1.2742
  732TIP3    H223612   4.761   3.572  11.357 -0.9833 -1.3913 -0.3585
  733TIP3   OH223613   4.355   5.888   3.512 -0.3210 -0.3151  0.4337
  733TIP3    H123614   4.299   5.929   3.445  0.4011  0.2143  0.1428
  733TIP3    H223615   4.413   5.958   3.541  0.8803 -1.1057 -0.0043
  734TIP3   OH223616   3.469   5.159   4.459  0.5387 -0.5550 -0.3077
  734TIP3    H123617   3.376   5.149   4.478  0.4382 -0.2971 -0.6586
  734TIP3    H223618   3.512   5.149   4.544  0.1529 -0.1708 -0.0640
  735TIP3   OH223619   0.108   0.180   3.135 -0.1355  0.3358  0.0483
  735TIP3    H123620   0.162   0.231   3.195  0.6216 -0.9430  0.4869
  735TIP3    H223621   0.150   0.094   3.132 -2.2328 -0.7748  0.5499
  736TIP3   OH223622   5.853   1.199   3.781 -0.0053 -0.1075  0.1258
  736TIP3    H123623   5.844   1.157   3.866  0.9258  0.5771  0.5758
  736TIP3    H223624   5.803   1.280   3.788 -0.5814 -0.4130 -0.2602
  737TIP3   OH223625   1.206   5.464   4.515  0.3267  0.4502 -0.0416
  737TIP3    H123626   1.275   5.407   4.550 -0.6990 -1.4668 -0.9844
  737TIP3    H223627   1.254   5.538   4.477  1.8409 -0.5427 -0.1733
  738TIP3   OH223628   0.998   1.230  12.089  0.1658 -0.7403  0.0196
  738TIP3    H123629   0.910   1.239  12.052 -0.5010 -0.2473  1.6732
  738TIP3    H223630   0.991   1.159  12.152  0.8101 -0.3417  0.5571
  739TIP3   OH223631   0.846   0.377   5.450 -0.4200 -0.7487  0.0193
  739TIP3    H123632   0.799   0.294   5.443 -1.1726 -0.2568 -1.3233
  739TIP3    H223633   0.858   0.405   5.359  0.6059  0.1883  0.4152
  740TIP3   OH223634   5.464   1.744   3.527  0.0605 -0.7886 -0.0220
  740TIP3    H123635   5.377   1.745   3.487  0.1036  0.3988 -0.1095
  740TIP3    H223636   5.450   1.782   3.614  0.3009 -1.6493  0.4098
  741TIP3   OH223637   1.094   3.446  11.435 -0.2109 -0.5141 -0.5006
  741TIP3    H123638   1.023   3.423  11.375 -0.8932 -0.1735  0.1699
  741TIP3    H223639   1.146   3.510  11.386 -0.8482 -0.1214 -0.6793
  742TIP3   OH223640   1.295   6.348  15.146  0.3835 -0.2862  0.4391
  742TIP3    H123641   1.340   6.328  15.228  0.6251 -0.3244  0.2984
  742TIP3    H223642   1.220   6.402  15.172  0.6606  0.0003  0.6463
  743TIP3   OH223643   5.419   2.314  16.405  0.3974  0.5869  0.0546
  743TIP3    H123644   5.491   2.292  16.465  0.2152 -0.3122 -0.0437
  743TIP3    H223645   5.453   2.387  16.353  1.1570  0.3236  0.1656
  744TIP3   OH223646   4.151   4.017   4.268  0.3716 -0.1593 -0.0572
  744TIP3    H123647   4.076   3.959   4.259 -0.3492  0.7351 -0.0298
  744TIP3    H223648   4.148   4.072   4.189  0.9275 -0.0395  0.0017
  745TIP3   OH223649   3.640   4.189  16.751 -0.1290 -0.3754 -0.0068
  745TIP3    H123650   3.613   4.163  16.663  0.5444 -0.7831 -0.1001
  745TIP3    H223651   3.622   4.113  16.805  0.5050 -0.5361 -0.0096
  746TIP3   OH223652   0.448   1.140   1.228  0.4128  0.1647  0.3580
  746TIP3    H123653   0.507   1.161   1.300 -2.5059 -1.8401  3.5974
  746TIP3    H223654   0.505   1.101   1.161  3.1340  1.3554  1.8266
  747TIP3   OH223655   5.378   5.675  11.527 -0.0817  0.1775 -0.4244
  747TIP3    H123656   5.303   5.616  11.533 -0.9659  1.2944 -0.2192
  747TIP3    H223657   5.373   5.711  11.438 -0.0300  0.5522 -0.2783
  748TIP3   OH223658   5.122   1.804  15.152 -0.1424  0.4888 -0.3748
  748TIP3    H123659   5.141   1.897  15.146 -0.2802  0.4929 -0.7662
  748TIP3    H223660   5.139   1.782  15.243 -0.2200  0.9213 -0.2538
  749TIP3   OH223661   6.248   6.177   2.629 -0.2361  0.1055  0.0977
  749TIP3    H123662   6.274   6.114   2.562 -1.1178 -0.0908 -0.0744
  749TIP3    H223663   6.211   6.250   2.580  0.6572  0.7215  0.3026
  750TIP3   OH223664   2.639   5.520  12.739  0.0319  0.1255 -0.4139
  750TIP3    H123665   2.649   5.425  12.744 -0.8200  0.0125 -0.6393
  750TIP3    H223666   2.544   5.534  12.741  0.1679  1.0332  0.6922
  751TIP3   OH223667   2.783   5.114   6.252  0.1940  0.0900 -0.4231
  751TIP3    H123668   2.725   5.178   6.291 -0.2375 -1.6954  2.1540
  751TIP3    H223669   2.747   5.029   6.279  1.2375 -1.2512 -2.8932
  752TIP3   OH223670   2.439   0.051  16.638  0.2172  0.7780 -0.8615
  752TIP3    H123671   2.352   0.026  16.607 -0.0638  0.6941 -0.0071
  752TIP3    H223672   2.494   0.044  16.560 -0.8046  2.2562 -1.7722
  753TIP3   OH223673   3.471   2.327  14.769 -0.0458  0.2063 -0.2356
  753TIP3    H123674   3.399   2.371  14.723  0.9365 -0.4435 -2.5874
  753TIP3    H223675   3.508   2.268  14.703  0.8364 -1.6199  1.7827
  754TIP3   OH223676   6.496   1.769   4.237 -0.1097  0.1361  0.2665
  754TIP3    H123677   6.535   1.778   4.150 -0.5569  0.9783  0.1490
  754TIP3    H223678   6.534   1.688   4.272  1.1909  0.5485 -0.1320
  755TIP3   OH223679   1.945   4.268   4.871 -0.2592  0.3759  0.1393
  755TIP3    H123680   1.987   4.202   4.816  0.0708  1.0860 -0.4724
  755TIP3    H223681   2.015   4.328   4.896 -0.7983  1.3504 -0.5745
  756TIP3   OH223682   0.108   6.365  12.984  0.0780  0.3191  0.2063
  756TIP3    H123683   0.019   6.360  13.019 -0.3713  2.9821 -0.3416
  756TIP3    H223684   0.163   6.331  13.054 -1.1576  1.3452  1.7441
  757TIP3   OH223685   6.467   2.639   0.855 -0.2015  0.4553  0.5759
  757TIP3    H123686   6.562   2.651   0.850  0.1596 -2.0703  0.3552
  757TIP3    H223687   6.454   2.570   0.920 -1.6989 -0.8200 -0.9753
  758TIP3   OH223688   3.404   0.660  10.649  0.8150  0.2962  0.2769
  758TIP3    H123689   3.462   0.689  10.579  0.3907 -0.4959 -0.4293
  758TIP3    H223690   3.362   0.581  10.614 -0.1099  0.4173  1.0611
  759TIP3   OH223691   0.678   4.907   4.654  0.0446 -0.5675  0.0682
  759TIP3    H123692   0.772   4.922   4.665  0.3020 -2.6451  1.1803
  759TIP3    H223693   0.642   4.916   4.742 -1.1224  1.7799 -0.5659
  760TIP3   OH223694   4.939   6.547   4.562  0.0279  0.2025  0.4040
  760TIP3    H123695   4.986   6.524   4.482  1.8417 -1.8005  1.9278
  760TIP3    H223696   4.850   6.513   4.549  0.2265  0.1333 -0.8348
  761TIP3   OH223697   4.001   0.300   4.728  0.4118 -0.0470  0.2676
  761TIP3    H123698   3.967   0.373   4.779  1.0095  0.0895  0.4811
  761TIP3    H223699   3.924   0.247   4.707 -0.2377  1.3541 -1.0540
  762TIP3   OH223700   3.790   3.545  11.251  0.0051  0.8193  0.0986
  762TIP3    H123701   3.837   3.552  11.335 -0.9482  0.2708  0.7031
  762TIP3    H223702   3.832   3.609  11.194  1.3224  0.5141  0.6876
  763TIP3   OH223703   6.046   0.520  10.951 -0.1433  0.5353 -0.2716
  763TIP3    H123704   6.081   0.525  11.040  2.6924 -1.7307 -1.0836
  763TIP3    H223705   6.097   0.584  10.901  0.2992 -0.1630 -0.7464
  764TIP3   OH223706   6.403   4.912   0.904 -0.0821 -0.6285 -0.1367
  764TIP3    H123707   6.405   4.943   0.994  0.1172 -0.6187 -0.1441
  764TIP3    H223708   6.477   4.852   0.897  0.9701  0.6646 -0.7532
  765TIP3   OH223709   1.631   1.493  14.409  0.0762 -0.3700 -0.6226
  765TIP3    H123710   1.649   1.425  14.344  0.2149 -0.7282 -0.2137
  765TIP3    H223711   1.678   1.464  14.488 -3.4662 -2.1542  1.0359
  766TIP3   OH223712   2.475   6.271  11.535 -0.1063  0.1857  0.1218
  766TIP3    H123713   2.454   6.347  11.589  0.5641  1.0466 -0.7737
  766TIP3    H223714   2.571   6.266  11.537 -0.0630  0.2933 -1.0145
  767TIP3   OH223715   2.893   3.444  12.149  0.6136  0.2574  0.0423
  767TIP3    H123716   2.922   3.536  12.151  0.6557  0.2379  0.4381
  767TIP3    H223717   2.809   3.447  12.104  0.8795  0.4115 -0.4618
  768TIP3   OH223718   4.824   1.033  13.497  0.3357  0.3744 -0.4782
  768TIP3    H123719   4.795   0.954  13.450 -1.1923  0.6723 -0.0724
  768TIP3    H223720   4.880   0.999  13.567 -2.5566 -0.7121  1.5082
  769TIP3   OH223721   0.599   6.021  14.401 -0.3025  0.4927 -0.0711
  769TIP3    H123722   0.554   6.047  14.481  0.0124  0.7719  0.0150
  769TIP3    H223723   0.585   6.094  14.341  1.7224  1.5082  0.6137
  770TIP3   OH223724   6.188   6.658  13.687 -0.2703 -0.0709 -0.5089
  770TIP3    H123725   6.151   6.739  13.724 -1.2091  0.6002 -2.7315
  770TIP3    H223726   6.239   6.688  13.611  0.9582 -1.4324 -0.2565
  771TIP3   OH223727   3.040   0.346   0.078  0.2474  0.0143  0.4936
  771TIP3    H123728   2.968   0.304   0.125 -0.1956  0.6290  0.3827
  771TIP3    H223729   3.114   0.286   0.087 -0.4755 -0.9542  0.0187
  772TIP3   OH223730   1.361   1.007  14.572  0.0912 -0.0573 -0.3199
  772TIP3    H123731   1.328   1.036  14.487  0.4281 -0.4435 -0.5900
  772TIP3    H223732   1.453   1.034  14.573 -0.2759  1.2136  0.5190
  773TIP3   OH223733   0.221   4.883   3.010 -0.0962 -0.2899  0.0178
  773TIP3    H123734   0.303   4.851   3.049  0.2100 -1.0607 -1.2193
  773TIP3    H223735   0.237   4.882   2.916 -0.9906  1.0897 -0.1766
  774TIP3   OH223736   3.124   5.431   1.751  0.0670  0.0413  0.6963
  774TIP3    H123737   3.087   5.345   1.733  0.3057  0.0549  0.1139
  774TIP3    H223738   3.193   5.414   1.815 -0.1988 -0.1352  0.9373
  775TIP3   OH223739   1.549   1.902  13.026  0.2031  0.4916 -0.2651
  775TIP3    H123740   1.479   1.953  12.984  0.4388  0.4672 -0.6993
  775TIP3    H223741   1.573   1.837  12.960  1.5759  1.3588 -0.6871
  776TIP3   OH223742   2.026   0.565  10.261  0.1719 -0.2896 -0.5554
  776TIP3    H123743   1.943   0.537  10.298 -0.4178  2.7912  0.7589
  776TIP3    H223744   2.084   0.489  10.271 -1.7870 -1.7172  0.6642
  777TIP3   OH223745   3.620   3.785  12.461 -0.6257 -0.1498  0.1011
  777TIP3    H123746   3.605   3.754  12.372  1.1806 -0.0575 -0.2779
  777TIP3    H223747   3.568   3.726  12.516  0.7079 -2.2863 -0.7996
  778TIP3   OH223748   4.794   6.647   0.194 -0.5219 -0.4012  0.1646
  778TIP3    H123749   4.752   6.576   0.146  0.9205 -1.1655 -0.0289
  778TIP3    H223750   4.876   6.662   0.148 -0.7509  1.3612  0.2626
  779TIP3   OH223751   0.966   5.838  13.296 -0.7310  0.4284  0.4397
  779TIP3    H123752   1.041   5.838  13.237 -1.2706  1.2373 -0.2746
  779TIP3    H223753   0.898   5.790  13.248 -1.5086  1.9756 -0.0819
  780TIP3   OH223754   6.723   5.139   2.770  0.5701  0.2301 -0.8319
  780TIP3    H123755   6.783   5.124   2.843 -0.6931  2.3531  0.7705
  780TIP3    H223756   6.754   5.219   2.729 -1.6833  2.0703  0.7734
  781TIP3   OH223757   3.083   2.978  14.734 -0.1420  0.7064 -0.3421
  781TIP3    H123758   3.123   3.065  14.743  1.0328  0.0564  1.2389
  781TIP3    H223759   3.077   2.964  14.640  2.7090  1.1877 -0.6809
  782TIP3   OH223760   0.778   3.215  16.578 -0.0635 -0.0244 -0.0399
  782TIP3    H123761   0.763   3.166  16.659 -0.4429  0.7234  0.3484
  782TIP3    H223762   0.695   3.209  16.531 -0.3494  0.8391  0.3373
  783TIP3   OH223763   6.028   6.672   5.406  0.6028 -0.7042 -0.1466
  783TIP3    H123764   6.108   6.678   5.353 -0.0101 -1.5845 -1.2244
  783TIP3    H223765   5.963   6.635   5.347 -0.1035 -1.7977  1.2458
  784TIP3   OH223766   1.251   2.443  11.881 -0.4243 -0.1039 -0.1548
  784TIP3    H123767   1.168   2.443  11.833 -0.2378 -1.0700 -0.5108
  784TIP3    H223768   1.311   2.397  11.823  0.1421 -0.1622  0.4714
  785TIP3   OH223769   4.260   4.328  15.487 -0.4123  0.2274  0.9740
  785TIP3    H123770   4.320   4.392  15.524 -1.4265  0.5036  2.1791
  785TIP3    H223771   4.188   4.323  15.549 -2.0129  0.4390 -0.7705
  786TIP3   OH223772   5.764   5.873  12.886 -0.9054 -0.2379  0.2711
  786TIP3    H123773   5.706   5.927  12.939 -0.5239  0.7616 -0.2838
  786TIP3    H223774   5.707   5.807  12.847 -1.4206 -0.1364  0.8421
  787TIP3   OH223775   5.667   4.662  15.614 -0.3128  0.0498 -0.0391
  787TIP3    H123776   5.593   4.602  15.608  0.3779 -0.8611  0.2828
  787TIP3    H223777   5.684   4.689  15.523 -1.4062  0.7499 -0.0484
  788TIP3   OH223778   0.232   1.726   5.006  0.1071  0.1195  0.4840
  788TIP3    H123779   0.161   1.730   4.942 -0.4332 -1.1359  0.9528
  788TIP3    H223780   0.229   1.810   5.051 -2.0075 -0.3803  1.4095
  789TIP3   OH223781   3.463   0.397   0.147 -0.3107 -0.0673 -0.7950
  789TIP3    H123782   3.411   0.329   0.190  0.4353 -0.9459 -1.2273
  789TIP3    H223783   3.401   0.440   0.088 -0.6011 -0.9823 -1.1841
  790TIP3   OH223784   3.740   0.758  12.225  0.0029 -0.0946 -0.3207
  790TIP3    H123785   3.753   0.730  12.316  0.1338 -1.0031 -0.6045
  790TIP3    H223786   3.667   0.705  12.194 -0.9644  1.1937 -0.3466
  791TIP3   OH223787   2.201   1.695  10.741 -0.0826  0.8983 -0.2206
  791TIP3    H123788   2.215   1.601  10.730 -1.2939  0.9800 -3.7981
  791TIP3    H223789   2.189   1.706  10.835  1.7879 -2.2193  0.5458
  792TIP3   OH223790   5.619   1.178   5.909  0.2907  0.1071  0.4728
  792TIP3    H123791   5.583   1.266   5.901  0.3852  0.0945 -0.0818
  792TIP3    H223792   5.658   1.176   5.997  0.2580  0.6065  0.4980
  793TIP3   OH223793   5.460   0.390  15.561  0.2199  0.2505 -0.3902
  793TIP3    H123794   5.498   0.477  15.559 -0.6123  0.6160 -2.2576
  793TIP3    H223795   5.404   0.386  15.483 -0.6838 -1.5317  0.2903
  794TIP3   OH223796   2.949   0.949   0.483 -0.0091  0.4196 -1.2510
  794TIP3    H123797   3.002   0.891   0.537  0.2241  0.0665 -1.8522
  794TIP3    H223798   2.984   1.037   0.502 -1.0770  0.5158  0.4751
  795TIP3   OH223799   1.646   0.682   4.159  0.4884  0.1962 -0.4568
  795TIP3    H123800   1.608   0.594   4.155  0.1380  0.3280 -0.0595
  795TIP3    H223801   1.687   0.687   4.245 -1.3942  1.1803  0.4547
  796TIP3   OH223802   1.569   3.466   0.384  0.4736 -0.3795  0.1752
  796TIP3    H123803   1.501   3.481   0.449  0.0523 -1.4448 -0.0004
  796TIP3    H223804   1.526   3.479   0.299  0.8796  0.4462  0.0835
  797TIP3   OH223805   5.404   1.263  15.775 -0.4045 -0.1255 -0.0637
  797TIP3    H123806   5.468   1.295  15.712 -2.7464 -0.9983 -3.2141
  797TIP3    H223807   5.371   1.341  15.819 -0.2680  0.8590 -1.6402
  798TIP3   OH223808   0.310   0.379   2.914  0.3374 -0.1660  0.2254
  798TIP3    H123809   0.219   0.406   2.921  0.2740 -0.8174  2.7192
  798TIP3    H223810   0.361   0.457   2.939  0.4096 -0.2562  0.3613
  799TIP3   OH223811   1.133   0.050   4.288 -0.0003 -0.2274  0.3619
  799TIP3    H123812   1.202   0.001   4.243 -0.0781  0.1681 -0.1912
  799TIP3    H223813   1.161   0.141   4.284 -1.6574  0.2608 -1.9456
  800TIP3   OH223814   0.714   6.022  17.257 -0.7171 -0.0965 -0.2059
  800TIP3    H123815   0.751   6.090  17.314  0.2696 -0.3114 -0.5684
  800TIP3    H223816   0.624   6.013  17.287 -0.8630  1.3466 -0.1208
  801TIP3   OH223817   3.021   6.403  11.640  0.1767  0.7790  0.6783
  801TIP3    H123818   2.994   6.361  11.558  0.4976  2.4008 -0.2920
  801TIP3    H223819   2.939   6.428  11.683  0.0366  1.8351 -0.1855
  802TIP3   OH223820   6.713   3.969  16.773  0.3226 -0.6503 -0.1260
  802TIP3    H123821   6.720   3.901  16.839  0.1638 -1.8706 -1.3383
  802TIP3    H223822   6.665   3.929  16.700 -2.5346  1.6638  0.2976
  803TIP3   OH223823   1.772   6.086   1.581 -0.3122  0.7476 -0.0112
  803TIP3    H123824   1.739   6.072   1.669 -0.2131 -0.1739 -0.1163
  803TIP3    H223825   1.703   6.055   1.523 -0.0826  0.6817 -0.2548
  804TIP3   OH223826   6.583   0.162   4.546 -0.7554 -0.3100  0.3217
  804TIP3    H123827   6.522   0.204   4.607 -3.8114  0.4579 -2.9040
  804TIP3    H223828   6.534   0.087   4.512  0.5477 -0.3491 -1.5897
  805TIP3   OH223829   2.755   3.565  15.792  0.0200 -0.2145 -0.4989
  805TIP3    H123830   2.673   3.596  15.831  0.4033  0.4452 -0.2092
  805TIP3    H223831   2.727   3.520  15.712 -0.6766 -0.5557 -0.0868
  806TIP3   OH223832   2.498   2.147  17.084  0.3228 -0.0538  0.0301
  806TIP3    H123833   2.529   2.057  17.076  0.7823 -0.1093  1.9191
  806TIP3    H223834   2.405   2.139  17.101  0.4710 -0.2151  0.7907
  807TIP3   OH223835   3.085   4.833  16.201  0.2776 -0.2270 -0.0678
  807TIP3    H123836   3.135   4.796  16.274  1.8113 -0.9096 -1.4025
  807TIP3    H223837   3.095   4.928  16.210  1.4817 -0.3384 -0.0459
  808TIP3   OH223838   2.450   3.087  11.996  0.4593 -0.0062  0.1999
  808TIP3    H123839   2.395   3.165  11.994 -0.7521 -0.8317 -1.1322
  808TIP3    H223840   2.390   3.015  11.975  1.8869 -1.0578 -0.4567
  809TIP3   OH223841   6.035   2.935   3.829  0.3428  0.2563  0.1699
  809TIP3    H123842   6.124   2.900   3.826 -0.2482 -1.2568 -0.5602
  809TIP3    H223843   6.003   2.929   3.739 -1.1435 -1.0004  0.7351
  810TIP3   OH223844   1.618   6.468  16.852 -0.1886 -0.5846  0.1266
  810TIP3    H123845   1.539   6.449  16.903  0.0386  0.1057  0.7444
  810TIP3    H223846   1.643   6.384  16.814 -1.1276 -0.8459  0.0586
  811TIP3   OH223847   6.137   5.839   5.385  0.1255  0.2628 -0.4120
  811TIP3    H123848   6.084   5.904   5.432 -1.2466 -1.3051  0.3341
  811TIP3    H223849   6.227   5.869   5.396 -0.3758  1.3769  0.9634
  812TIP3   OH223850   5.331   4.176  13.360  1.0274 -0.6044  0.3231
  812TIP3    H123851   5.250   4.225  13.370  1.5340  0.1449  0.8967
  812TIP3    H223852   5.375   4.217  13.285  0.2937 -1.8748 -0.8555
  813TIP3   OH223853   1.621   0.823  16.081 -0.4245 -0.2756  0.3133
  813TIP3    H123854   1.620   0.897  16.021 -0.0841  0.4217  1.1382
  813TIP3    H223855   1.559   0.847  16.150  0.8206 -0.0228  1.4030
  814TIP3   OH223856   1.597   3.095   2.221  0.4019 -0.2099  0.1954
  814TIP3    H123857   1.504   3.092   2.203  0.5322  0.2766 -0.5947
  814TIP3    H223858   1.604   3.139   2.306 -0.1157 -0.8165  0.5544
  815TIP3   OH223859   1.464   3.018  15.726  0.3879 -0.1845 -0.4302
  815TIP3    H123860   1.447   3.106  15.760 -0.7033  0.1302 -1.7378
  815TIP3    H223861   1.558   3.004  15.740  0.2756  0.5303  1.2555
  816TIP3   OH223862   3.347   1.683  16.876 -0.2589 -0.7948  0.6815
  816TIP3    H123863   3.366   1.677  16.970  1.0250 -1.6674  0.3969
  816TIP3    H223864   3.351   1.592  16.846 -0.4296 -0.4955 -0.2677
  817TIP3   OH223865   1.354   2.883   1.817  0.1404  0.8132  0.0706
  817TIP3    H123866   1.300   2.861   1.893  0.5515  0.7377  0.3446
  817TIP3    H223867   1.317   2.965   1.784 -0.6089  0.3851 -0.1941
  818TIP3   OH223868   3.451   5.151   3.160 -0.0825 -0.0895  0.4836
  818TIP3    H123869   3.379   5.090   3.177  0.0505  0.1547  2.0558
  818TIP3    H223870   3.523   5.117   3.212  0.3206  0.8271  0.5306
  819TIP3   OH223871   3.271   3.951  15.071 -0.0518  0.2263 -0.1337
  819TIP3    H123872   3.324   3.886  15.117 -1.6529  0.0196  1.5384
  819TIP3    H223873   3.262   4.023  15.135 -0.1941  1.1016 -1.1135
  820TIP3   OH223874   1.493   2.096  11.328  0.2299 -0.4704  0.1433
  820TIP3    H123875   1.473   2.092  11.422 -0.1892  0.3611  0.1056
  820TIP3    H223876   1.544   2.017  11.310 -0.7496 -1.2680  0.8160
  821TIP3   OH223877   2.127   0.390  16.080  0.2658  0.0487 -0.1871
  821TIP3    H123878   2.198   0.380  16.016  1.7097 -1.8017  1.5966
  821TIP3    H223879   2.166   0.438  16.152 -0.4140 -0.6273  0.6460
  822TIP3   OH223880   4.857   6.403  11.951  0.9226  0.2333  0.2065
  822TIP3    H123881   4.773   6.438  11.923 -0.3690 -1.7471  1.4058
  822TIP3    H223882   4.851   6.309  11.934  2.9282  0.0462  0.2848
  823TIP3   OH223883   2.945   5.860  13.040  0.3416  0.0223 -0.5413
  823TIP3    H123884   3.019   5.799  13.042  0.2661 -0.1198  1.9624
  823TIP3    H223885   2.908   5.854  13.128 -1.7565  1.1981 -1.2864
  824TIP3   OH223886   4.368   4.756  12.056  1.1872  0.0853 -0.0543
  824TIP3    H123887   4.279   4.778  12.027  0.8973  0.5350  1.1378
  824TIP3    H223888   4.425   4.788  11.986  0.5720  1.9050  0.2450
  825TIP3   OH223889   1.245   0.883   4.226 -0.1193 -0.0646 -0.2034
  825TIP3    H123890   1.244   0.928   4.310 -0.7674 -1.0552  0.3369
  825TIP3    H223891   1.338   0.873   4.204  0.0372  0.9833 -0.0487
  826TIP3   OH223892   1.223   5.561   6.097 -0.3431 -0.0664 -0.5047
  826TIP3    H123893   1.229   5.640   6.044 -1.2737  1.1245  1.0725
  826TIP3    H223894   1.295   5.567   6.159 -0.3988 -0.4871 -0.3925
  827TIP3   OH223895   3.532   2.811  15.506 -0.1303  0.3363 -0.6485
  827TIP3    H123896   3.527   2.867  15.429 -1.3031  1.3352  0.1203
  827TIP3    H223897   3.442   2.806  15.538  0.3766  0.2016  0.8399
  828TIP3   OH223898   4.871   5.564   1.933 -0.4580 -0.1169 -0.3462
  828TIP3    H123899   4.824   5.522   2.006  1.0947 -0.4270  0.5355
  828TIP3    H223900   4.947   5.606   1.975 -0.9740  2.0602 -1.4493
  829TIP3   OH223901   6.000   4.267   2.175 -0.5791  0.2511  0.2402
  829TIP3    H123902   5.996   4.226   2.262 -1.0518  1.3291  0.7458
  829TIP3    H223903   6.073   4.328   2.181 -3.0922  3.4597  1.3649
  830TIP3   OH223904   1.472   5.812  12.506 -0.1256 -0.1531 -0.5086
  830TIP3    H123905   1.514   5.825  12.591 -0.3347 -0.3743 -0.3688
  830TIP3    H223906   1.390   5.766  12.526 -0.2666 -0.0387 -0.8112
  831TIP3   OH223907   3.620   4.623  13.960 -0.0754  0.6696 -0.2887
  831TIP3    H123908   3.686   4.554  13.955 -1.3839 -0.5755 -0.8395
  831TIP3    H223909   3.544   4.582  14.000 -1.2838  1.4513 -1.6761
  832TIP3   OH223910   5.326   5.384   0.742  0.1978 -0.5166  0.0899
  832TIP3    H123911   5.251   5.328   0.763  0.5424 -0.8133  0.5498
  832TIP3    H223912   5.295   5.473   0.757 -0.9466 -0.4021 -2.4023
  833TIP3   OH223913   1.706   4.301  14.270 -0.4800 -0.1355  0.3496
  833TIP3    H123914   1.788   4.305  14.221 -0.5051  1.6467  0.3824
  833TIP3    H223915   1.731   4.319  14.361 -0.8808  0.2267  0.3914
  834TIP3   OH223916   0.883   0.533  15.492 -0.3658 -0.0009  0.2431
  834TIP3    H123917   0.795   0.504  15.519 -0.7012  0.2379 -0.5595
  834TIP3    H223918   0.912   0.468  15.429 -0.4756  0.5583 -0.3978
  835TIP3   OH223919   2.646   3.337   0.809 -0.1431 -0.2925 -0.2443
  835TIP3    H123920   2.598   3.418   0.793 -0.7995 -0.7381 -0.5863
  835TIP3    H223921   2.616   3.277   0.740  1.3330 -0.4148 -0.8329
  836TIP3   OH223922   5.218   4.874   2.017  0.2500  0.2106 -0.6653
  836TIP3    H123923   5.307   4.863   1.984 -0.0674 -0.0051 -1.4952
  836TIP3    H223924   5.164   4.823   1.956 -0.5195  0.9306 -0.6124
  837TIP3   OH223925   4.345   0.034  14.183 -0.3087 -0.1096 -0.7056
  837TIP3    H123926   4.366   0.112  14.132 -1.4260 -0.0949 -1.1652
  837TIP3    H223927   4.413  -0.030  14.158  1.9963  1.3651  1.3451
  838TIP3   OH223928   1.679   0.334   1.053  0.1063 -0.1022 -0.5844
  838TIP3    H123929   1.642   0.263   1.104 -1.5055 -1.4164 -3.3320
  838TIP3    H223930   1.609   0.399   1.048  1.0840  1.1156  0.7502
  839TIP3   OH223931   3.284   6.475   5.526  0.4021 -0.3356  0.2472
  839TIP3    H123932   3.285   6.449   5.434 -1.3065  1.6192 -0.4060
  839TIP3    H223933   3.365   6.523   5.538 -0.0619  0.7333 -0.7127
  840TIP3   OH223934   4.582   5.237   0.599  0.1447 -0.1135  0.5285
  840TIP3    H123935   4.591   5.228   0.504 -0.2426  1.2153  0.3461
  840TIP3    H223936   4.662   5.198   0.635  0.6102 -0.0076 -0.3777
  841TIP3   OH223937   3.163   0.511   3.936  0.3921  0.8712 -0.5912
  841TIP3    H123938   3.219   0.452   3.886 -0.8623 -0.0804 -0.9499
  841TIP3    H223939   3.223   0.561   3.992  1.4278 -2.5958  1.7570
  842TIP3   OH223940   5.142   3.619   5.055 -0.6491  0.0233 -0.3115
  842TIP3    H123941   5.176   3.702   5.020  0.0156  0.3358  1.0080
  842TIP3    H223942   5.218   3.577   5.095 -1.3995 -0.1958  0.9552
  843TIP3   OH223943   6.315   4.455   5.656 -0.0062 -0.3500  0.1788
  843TIP3    H123944   6.371   4.504   5.595  1.3633 -2.4097 -0.3154
  843TIP3    H223945   6.226   4.475   5.627  0.3249  3.0813  1.0234
  844TIP3   OH223946   3.904   0.849  16.664  0.6979  0.3731  0.3218
  844TIP3    H123947   3.856   0.890  16.736 -1.9421  0.5118 -1.3942
  844TIP3    H223948   3.931   0.764  16.698 -3.2149 -0.9335  0.6498
  845TIP3   OH223949   1.327   0.863  17.319 -0.0860  0.1491 -0.1838
  845TIP3    H123950   1.297   0.779  17.355  1.3544  0.3090  1.5462
  845TIP3    H223951   1.254   0.894  17.265 -1.5468 -1.1319  0.9745
  846TIP3   OH223952   3.273   1.125  15.977 -0.1096  0.2941 -0.1632
  846TIP3    H123953   3.330   1.117  16.053 -0.6580  1.6416  0.4141
  846TIP3    H223954   3.224   1.043  15.976 -1.4426  0.9700  2.0823
  847TIP3   OH223955   4.866   0.340  16.134 -0.0665  0.3113  0.0441
  847TIP3    H123956   4.959   0.319  16.143 -0.3137 -1.0426 -0.3423
  847TIP3    H223957   4.842   0.377  16.219  0.8227  0.7019  0.1370
  848TIP3   OH223958   0.194   4.436  12.058  0.3859  0.4593 -0.1491
  848TIP3    H123959   0.268   4.495  12.069 -2.1998  3.4494  3.9416
  848TIP3    H223960   0.136   4.482  11.997  0.5538 -0.4985 -1.0693
  849TIP3   OH223961   0.830   4.552   3.676 -0.3172 -0.1032  0.0306
  849TIP3    H123962   0.747   4.591   3.703 -0.9329 -1.3026 -0.0734
  849TIP3    H223963   0.827   4.551   3.581 -0.4637 -0.6986  0.0349
  850TIP3   OH223964   3.261   6.523  14.479 -0.5027 -0.3187 -0.4945
  850TIP3    H123965   3.351   6.534  14.510 -1.0493  1.7281  0.5307
  850TIP3    H223966   3.270   6.523  14.383  0.6733 -1.4286 -0.4267
  851TIP3   OH223967   3.027   5.870  12.214  0.1320 -0.0579  0.0826
  851TIP3    H123968   2.971   5.801  12.177 -1.2076  0.3747  1.2166
  851TIP3    H223969   3.014   5.945  12.157  1.4096 -0.6346 -1.0183
  852TIP3   OH223970   0.482   6.238  16.309  0.3970 -0.0990  0.5012
  852TIP3    H123971   0.550   6.246  16.377  0.8814 -0.9193  0.1291
  852TIP3    H223972   0.506   6.158  16.262 -1.3227 -0.8851  0.9081
  853TIP3   OH223973   3.067   6.595   5.101 -0.0981 -0.2891 -0.5746
  853TIP3    H123974   3.055   6.586   5.196  1.4014 -0.2531 -0.3611
  853TIP3    H223975   3.114   6.678   5.090 -0.7456 -0.0153 -1.4022
  854TIP3   OH223976   2.619   4.409  13.290 -0.0387  0.0166 -0.1710
  854TIP3    H123977   2.652   4.385  13.203 -0.5131  1.6699 -0.8446
  854TIP3    H223978   2.625   4.328  13.341 -0.4545 -1.1836 -1.9509
  855TIP3   OH223979   2.731   3.954   2.546 -0.1565  0.1894  0.2096
  855TIP3    H123980   2.758   3.932   2.457  2.0740 -1.3125  1.1578
  855TIP3    H223981   2.651   4.005   2.536 -0.8386 -1.2713 -2.5717
  856TIP3   OH223982   3.308   1.883  17.235 -0.1567 -0.8944  0.1391
  856TIP3    H123983   3.280   1.966  17.273  0.2025 -1.1373  0.9541
  856TIP3    H223984   3.359   1.909  17.158 -1.3886 -0.4156 -0.5417
  857TIP3   OH223985   4.651   3.044  16.587  0.1604  0.5721 -0.8661
  857TIP3    H123986   4.710   3.069  16.657 -1.7913  3.2577 -0.0091
  857TIP3    H223987   4.677   3.097  16.512 -1.3357  2.1351 -0.3439
  858TIP3   OH223988   2.807   6.589   4.033 -0.2671 -0.3977 -0.1066
  858TIP3    H123989   2.883   6.554   3.986  0.4307 -1.7411  1.9054
  858TIP3    H223990   2.746   6.515   4.039 -1.7361  0.6197 -1.5490
  859TIP3   OH223991   5.667   1.650  14.241  0.4815 -0.1903  0.0061
  859TIP3    H123992   5.603   1.718  14.262  0.3792  0.2461 -1.5708
  859TIP3    H223993   5.677   1.601  14.322 -0.9714  0.4568  0.6246
  860TIP3   OH223994   5.513   1.747   2.435 -0.0554  0.9318 -0.3658
  860TIP3    H123995   5.486   1.709   2.518  2.9254  0.4788  0.5242
  860TIP3    H223996   5.431   1.772   2.392 -1.8971 -1.9494  1.1448
  861TIP3   OH223997   4.473   3.379  12.828 -0.1710 -0.5307 -0.2383
  861TIP3    H123998   4.402   3.317  12.814 -0.7406 -0.0416  0.3915
  861TIP3    H223999   4.434   3.465  12.809  0.3899 -0.2996 -0.3715
  862TIP3   OH224000   4.522   2.447  14.844 -0.1405  0.2560 -0.0232
  862TIP3    H124001   4.593   2.505  14.873  0.4030 -0.7640  0.7617
  862TIP3    H224002   4.466   2.503  14.790 -0.2174  1.7971  1.5532
  863TIP3   OH224003   4.993   1.322   0.857 -0.2143 -0.6863 -0.1450
  863TIP3    H124004   4.964   1.397   0.909 -0.4782 -0.8322 -0.0769
  863TIP3    H224005   4.913   1.271   0.841 -0.4071  0.1134 -1.9682
  864TIP3   OH224006   5.347   3.076  16.996 -0.5515 -0.1577 -0.2397
  864TIP3    H124007   5.369   3.065  17.089 -1.1957  0.8853  0.0502
  864TIP3    H224008   5.410   3.140  16.964 -0.4583 -0.3679 -0.4816
  865TIP3   OH224009   3.844   1.823   0.092 -0.2004 -0.0337  0.0703
  865TIP3    H124010   3.862   1.810   0.185 -0.0838  0.3854  0.1086
  865TIP3    H224011   3.780   1.894   0.089  1.4354  1.5165 -0.2499
  866TIP3   OH224012   2.479   0.950  14.081 -0.1703 -0.6176 -0.1506
  866TIP3    H124013   2.444   1.039  14.077  0.0464 -0.4758  0.8039
  866TIP3    H224014   2.437   0.904  14.008  0.9358  0.6849 -1.6801
  867TIP3   OH224015   3.220   2.043  15.819  0.6136 -0.3517 -0.0823
  867TIP3    H124016   3.257   2.125  15.853 -0.6331 -0.8274  2.6702
  867TIP3    H224017   3.169   2.008  15.892 -3.6082 -0.7906 -2.9420
  868TIP3   OH224018   6.389   4.525   6.240  0.1539 -0.4316  0.8385
  868TIP3    H124019   6.388   4.587   6.313  1.7357  0.7505 -0.0795
  868TIP3    H224020   6.314   4.467   6.257 -3.2941  3.4090  0.3058
  869TIP3   OH224021   4.737   0.085  14.727 -0.0128  0.8344 -0.1891
  869TIP3    H124022   4.716   0.158  14.669 -1.0098  0.7851  0.1025
  869TIP3    H224023   4.653   0.048  14.751  0.4750 -0.5379 -0.4873
  870TIP3   OH224024   6.498   6.481   5.363  0.2076  0.3823  0.3354
  870TIP3    H124025   6.572   6.528   5.402  0.1730  0.7087  0.0076
  870TIP3    H224026   6.426   6.544   5.364 -0.2357 -0.1146  1.1800
  871TIP3   OH224027   0.744   0.229   0.536 -0.6798  0.8160  0.1975
  871TIP3    H124028   0.678   0.198   0.475 -0.5642 -1.6571  1.2046
  871TIP3    H224029   0.773   0.313   0.500 -2.1260  0.4799 -1.9244
  872TIP3   OH224030   2.621   3.199   5.766  0.3650  1.0442  0.1796
  872TIP3    H124031   2.596   3.153   5.846  0.3827  0.5114 -0.1227
  872TIP3    H224032   2.709   3.232   5.784  0.0081  1.7326  0.7259
  873TIP3   OH224033   1.977   6.442  13.066 -0.0516  0.0974 -0.2917
  873TIP3    H124034   2.072   6.444  13.058 -0.1438 -0.4764 -1.8643
  873TIP3    H224035   1.948   6.525  13.028 -0.1718  0.4860  0.6219
  874TIP3   OH224036   4.798   1.550  13.036  0.4609  0.3729  0.8060
  874TIP3    H124037   4.826   1.560  12.945  1.0707 -0.4830  0.8910
  874TIP3    H224038   4.852   1.612  13.085  1.5012 -0.5150  0.8252
  875TIP3   OH224039   6.407   3.169  15.058  0.4342 -0.3487  0.0890
  875TIP3    H124040   6.494   3.137  15.080  1.4370  1.6560 -0.6951
  875TIP3    H224041   6.359   3.167  15.141  1.7887  0.1515  0.9160
  876TIP3   OH224042   3.809   2.774   2.467  0.2576 -0.5317  0.3810
  876TIP3    H124043   3.878   2.723   2.424  1.2700 -0.3570  1.7490
  876TIP3    H224044   3.784   2.722   2.543 -1.6341 -0.9162 -0.4614
  877TIP3   OH224045   6.453   4.446  12.642 -0.4712  0.1195 -0.7439
  877TIP3    H124046   6.519   4.504  12.679 -1.4780 -0.2723  1.8573
  877TIP3    H224047   6.422   4.492  12.564  1.7065  1.0189 -1.1682
  878TIP3   OH224048   1.670   6.667   2.414 -0.2940 -0.5246 -0.1107
  878TIP3    H124049   1.624   6.650   2.332  0.9128  0.7242 -1.1065
  878TIP3    H224050   1.616   6.732   2.459 -0.8272 -1.0217 -0.0206
  879TIP3   OH224051   0.450   5.193   3.896 -0.6620  0.1548  0.2150
  879TIP3    H124052   0.415   5.231   3.815  1.1036 -0.7657 -1.0373
  879TIP3    H224053   0.386   5.125   3.919 -0.2609 -0.8619 -1.5012
  880TIP3   OH224054   2.280   1.498   0.386 -0.4055  0.0188 -0.1179
  880TIP3    H124055   2.240   1.414   0.408 -1.1263 -0.1977 -2.0950
  880TIP3    H224056   2.221   1.563   0.424  0.3822 -0.2951  1.8008
  881TIP3   OH224057   2.893   0.191  12.243 -0.1059  0.1520 -0.0433
  881TIP3    H124058   2.921   0.281  12.222 -0.8166  0.6090  0.9088
  881TIP3    H224059   2.975   0.145  12.262  0.2226  0.7587  0.0521
  882TIP3   OH224060   1.593   3.221  11.388 -0.8391 -0.5178  0.4068
  882TIP3    H124061   1.537   3.181  11.455 -1.0895 -0.7027  0.0914
  882TIP3    H224062   1.647   3.148  11.357 -1.2326 -0.5996 -0.1055
  883TIP3   OH224063   2.913   2.767   5.850 -0.0379  0.4821  0.5285
  883TIP3    H124064   2.864   2.720   5.782 -0.1112 -0.5965  1.2860
  883TIP3    H224065   3.001   2.777   5.814  0.3571 -1.4520  0.8315
  884TIP3   OH224066   4.406   6.649   5.241 -0.1869  0.4440  0.2846
  884TIP3    H124067   4.405   6.725   5.299 -2.6649  2.9791 -2.7356
  884TIP3    H224068   4.330   6.597   5.267  0.2596  0.1209  0.9694
  885TIP3   OH224069   2.460   3.673  15.405  0.4422 -0.4284 -0.3859
  885TIP3    H124070   2.555   3.663  15.416  0.7811  0.0037 -2.4503
  885TIP3    H224071   2.442   3.631  15.320 -1.5378 -2.1509  0.7988
  886TIP3   OH224072   0.327   1.617  14.711 -0.3930 -0.5086 -0.7308
  886TIP3    H124073   0.369   1.693  14.750  1.1366 -1.0342 -1.2879
  886TIP3    H224074   0.306   1.644  14.622  0.7334 -0.9156 -1.1363
  887TIP3   OH224075   5.058   1.180  15.521  0.1871  0.3428  0.7824
  887TIP3    H124076   5.104   1.113  15.571  0.2125 -0.4314 -0.2363
  887TIP3    H224077   5.126   1.243  15.496  0.0405  1.1605  2.3516
  888TIP3   OH224078   5.018   6.189  13.709  0.3844  0.3375  0.2845
  888TIP3    H124079   4.935   6.201  13.664  0.5431 -0.3235 -0.1919
  888TIP3    H224080   5.062   6.118  13.662  2.4443  2.4490 -1.2415
  889TIP3   OH224081   0.439   1.453  12.557 -0.3482 -0.1506  0.0220
  889TIP3    H124082   0.494   1.433  12.481  0.4490  1.7771  0.0471
  889TIP3    H224083   0.353   1.418  12.533 -0.0252  0.1081 -1.6363
  890TIP3   OH224084   0.734   0.846  12.001  0.7342 -0.0382 -0.4363
  890TIP3    H124085   0.722   0.840  12.095  0.8631  3.9324 -0.0332
  890TIP3    H224086   0.829   0.854  11.989  0.6599  0.2230 -0.8583
  891TIP3   OH224087   4.590   0.027  16.704  0.0943 -0.0598  0.1185
  891TIP3    H124088   4.671   0.018  16.655 -0.0032 -2.6008  0.3257
  891TIP3    H224089   4.532   0.077  16.646  1.7509  1.8416 -0.0051
  892TIP3   OH224090   5.882   0.946  15.823  0.2438 -0.2523 -0.0009
  892TIP3    H124091   5.828   0.885  15.874  0.1717 -0.8152 -0.7442
  892TIP3    H224092   5.942   0.983  15.888  1.7096 -2.6590  0.1617
  893TIP3   OH224093   2.024   6.214   6.179  0.0450  0.1929  0.1070
  893TIP3    H124094   1.934   6.242   6.197  0.0193  0.0404  0.2131
  893TIP3    H224095   2.077   6.292   6.194  0.2456 -0.3303  2.5144
  894TIP3   OH224096   2.621   0.052   3.235 -0.4507  0.7677 -0.3408
  894TIP3    H124097   2.535   0.072   3.197 -1.1483  2.1263  1.7939
  894TIP3    H224098   2.616  -0.042   3.256 -1.4606  0.8593 -0.1320
  895TIP3   OH224099   1.410   0.474   1.635  0.1192  0.3733 -0.2989
  895TIP3    H124100   1.485   0.482   1.693 -1.2881  0.5138  1.5992
  895TIP3    H224101   1.345   0.427   1.686 -1.3457  0.8911 -1.6071
  896TIP3   OH224102   1.464   3.234  15.513  0.1292  0.8532 -0.2797
  896TIP3    H124103   1.439   3.163  15.454  0.3356 -0.6908  1.3684
  896TIP3    H224104   1.559   3.223  15.525  0.0623  1.0202  0.4573
  897TIP3   OH224105   4.535   6.622  14.471 -0.5207  0.0937 -0.8211
  897TIP3    H124106   4.442   6.611  14.492 -0.2521  1.6659  1.5712
  897TIP3    H224107   4.570   6.533  14.469 -1.7608 -0.4322 -0.0076
  898TIP3   OH224108   2.626   5.348   4.378 -0.5791  0.2051 -0.1120
  898TIP3    H124109   2.642   5.395   4.296  0.3630 -0.1866 -0.1706
  898TIP3    H224110   2.531   5.347   4.387 -0.6371  2.2091 -0.0490
  899TIP3   OH224111   4.338   2.201   2.355  0.1541 -0.1475 -0.0990
  899TIP3    H124112   4.413   2.173   2.301  0.0985 -1.1863  0.3437
  899TIP3    H224113   4.278   2.242   2.292  0.8131  0.1350 -0.5603
  900TIP3   OH224114   5.338   5.828  15.732  0.5016  0.0166 -0.6085
  900TIP3    H124115   5.328   5.920  15.758  2.1884  0.2411 -0.5987
  900TIP3    H224116   5.375   5.785  15.809 -0.4405 -0.7230 -0.5591
  901TIP3   OH224117   4.357   0.521  14.638 -0.1621 -0.3809 -0.2988
  901TIP3    H124118   4.382   0.525  14.546  0.8395  0.7394  0.0024
  901TIP3    H224119   4.261   0.518  14.636 -0.1653 -0.0374 -1.3679
  902TIP3   OH224120   6.425   5.008  17.133 -0.0465  0.3580 -0.0489
  902TIP3    H124121   6.335   5.032  17.154  0.1947  0.6985  0.6287
  902TIP3    H224122   6.474   5.090  17.139  0.2687  0.2248 -0.6689
  903TIP3   OH224123   4.549   4.523   4.090  0.2636  0.0839  0.2302
  903TIP3    H124124   4.552   4.524   4.186  0.0207 -0.1961  0.2427
  903TIP3    H224125   4.587   4.607   4.064  1.3686 -0.2978  0.5478
  904TIP3   OH224126   4.583   4.854   5.717  0.0774  0.0230 -0.1363
  904TIP3    H124127   4.649   4.844   5.648  0.7102  1.4586  0.2186
  904TIP3    H224128   4.523   4.921   5.683  0.3577  0.6920  0.6480
  905TIP3   OH224129   3.831   5.060   4.264 -0.3748  0.0823 -0.4670
  905TIP3    H124130   3.892   4.987   4.264  0.5360  0.8219 -0.5007
  905TIP3    H224131   3.750   5.025   4.300  0.2086 -0.8057 -0.0138
  906TIP3   OH224132   5.704   5.207  16.850  0.0761  0.0018 -0.1335
  906TIP3    H124133   5.792   5.232  16.823 -0.1952  0.9950 -0.1378
  906TIP3    H224134   5.718   5.147  16.923  0.7640  0.9239  0.5273
  907TIP3   OH224135   3.736   5.003  16.996 -0.5613  0.4099  0.8140
  907TIP3    H124136   3.714   4.910  17.003 -0.6222  0.3982  0.4980
  907TIP3    H224137   3.760   5.029  17.085 -1.5347  0.3425  1.1107
  908TIP3   OH224138   2.376   4.682  10.856 -0.5203  1.0417  0.1154
  908TIP3    H124139   2.290   4.676  10.896 -0.0974  1.1367  1.0533
  908TIP3    H224140   2.363   4.738  10.779 -1.5307  0.0418 -0.4633
  909TIP3   OH224141   4.861   6.253  11.697  0.5977 -0.4413  0.2431
  909TIP3    H124142   4.771   6.227  11.715  0.1139  0.8015 -0.2842
  909TIP3    H224143   4.912   6.173  11.711 -0.6885 -1.3936 -0.3249
  910TIP3   OH224144   3.449   6.145  12.021  0.1793 -0.1532 -0.3309
  910TIP3    H124145   3.427   6.237  12.031  0.1375 -0.3585  2.1896
  910TIP3    H224146   3.379   6.098  12.068  0.2506 -1.4622 -1.4643
  911TIP3   OH224147   5.887   3.858  15.426  0.4795  0.0586 -0.0951
  911TIP3    H124148   5.941   3.937  15.428  1.1400 -0.3927  1.1900
  911TIP3    H224149   5.939   3.796  15.374  0.5399  0.0895 -0.0720
  912TIP3   OH224150   4.050   1.580   0.310  0.3022 -0.2015  0.6369
  912TIP3    H124151   4.062   1.529   0.390  0.4995  1.4950  1.7416
  912TIP3    H224152   4.020   1.665   0.341 -0.1433  0.3283 -1.1551
  913TIP3   OH224153   2.681   2.723  14.539  0.3379 -0.0805 -0.6936
  913TIP3    H124154   2.749   2.661  14.513  0.4100 -0.5556  0.5233
  913TIP3    H224155   2.728   2.804  14.556  0.4703 -0.1326 -0.8092
  914TIP3   OH224156   0.322   3.727   1.239  0.0989  0.1592  0.1378
  914TIP3    H124157   0.229   3.750   1.237  0.7210  3.3313  2.0265
  914TIP3    H224158   0.322   3.631   1.242 -3.0378 -0.0031 -0.8752
  915TIP3   OH224159   1.365   6.665  11.893 -0.2125 -0.1785 -0.5344
  915TIP3    H124160   1.317   6.697  11.969  3.2919 -0.2386  1.9124
  915TIP3    H224161   1.362   6.570  11.902  0.5158 -0.1766 -0.2422
  916TIP3   OH224162   5.384   2.992  15.500 -0.1001  0.0863  0.0222
  916TIP3    H124163   5.470   2.996  15.459  0.7326  1.4198  1.7727
  916TIP3    H224164   5.402   2.985  15.594 -1.8606  1.8886  0.5620
  917TIP3   OH224165   2.502   4.962  15.657 -0.0878  0.0917 -0.2455
  917TIP3    H124166   2.486   4.878  15.700  1.1766 -0.3803 -0.6685
  917TIP3    H224167   2.415   4.991  15.628 -0.5645 -0.9713  0.0801
  918TIP3   OH224168   6.237   0.464  13.215  0.0549  0.7819  0.6385
  918TIP3    H124169   6.147   0.453  13.186  1.1426 -1.7872 -2.2402
  918TIP3    H224170   6.262   0.551  13.183 -0.9263  0.8415  0.0081
  919TIP3   OH224171   0.703   4.355  14.181 -0.2416 -0.0400 -0.3071
  919TIP3    H124172   0.692   4.449  14.193 -0.1621  0.0317 -0.8118
  919TIP3    H224173   0.798   4.341  14.184 -0.2890 -0.4434  2.3330
  920TIP3   OH224174   1.136   4.800  11.217 -0.1718  0.0313 -0.7618
  920TIP3    H124175   1.206   4.851  11.175 -0.8763  0.3635 -1.5623
  920TIP3    H224176   1.055   4.837  11.182 -0.7710 -0.1359  0.3958
  921TIP3   OH224177   2.500   3.325  16.096  0.8200 -0.2969 -0.4962
  921TIP3    H124178   2.483   3.338  16.189 -0.4818  0.4032 -0.8082
  921TIP3    H224179   2.542   3.406  16.068  0.4590 -0.1747 -0.6870
  922TIP3   OH224180   3.201   3.595  14.048 -0.1403  0.2845 -0.5625
  922TIP3    H124181   3.223   3.547  14.128 -1.2100  1.7827  0.6962
  922TIP3    H224182   3.197   3.527  13.980  0.4704 -1.0812  0.6936
  923TIP3   OH224183   5.516   4.496   4.348  0.2403  0.0092 -0.0606
  923TIP3    H124184   5.555   4.500   4.435 -0.0151 -0.8500  0.1087
  923TIP3    H224185   5.437   4.550   4.355  1.0855  1.3174 -0.2560
  924TIP3   OH224186   2.737   6.703   5.315 -0.3757  1.0097 -0.2091
  924TIP3    H124187   2.780   6.633   5.266  0.6509 -1.1759  3.3875
  924TIP3    H224188   2.644   6.685   5.306 -0.1878  0.3764 -0.9498
  925TIP3   OH224189   1.321   5.244   1.448  0.2483 -0.1751  0.5277
  925TIP3    H124190   1.240   5.293   1.463  0.9383  1.0451  0.3529
  925TIP3    H224191   1.357   5.229   1.535  0.4147  0.2966  0.5435
  926TIP3   OH224192   5.225   0.767  14.042 -0.4540 -0.3639  1.0756
  926TIP3    H124193   5.172   0.821  13.984  1.8203 -0.2160 -0.9941
  926TIP3    H224194   5.197   0.677  14.023 -1.5740 -0.1735  1.7442
  927TIP3   OH224195   6.744   0.135  17.047  0.3900 -0.1560  0.3449
  927TIP3    H124196   6.776   0.162  17.133 -0.1310 -1.2201  0.8968
  927TIP3    H224197   6.818   0.090  17.007  1.5169  2.5898 -0.8922
  928TIP3   OH224198   5.287   2.610  13.816 -0.2676 -0.3301 -0.5385
  928TIP3    H124199   5.281   2.701  13.786 -1.2051 -0.0692  0.3681
  928TIP3    H224200   5.324   2.563  13.742 -0.5399  0.6511 -1.3281
  929TIP3   OH224201   6.512   1.701   0.780  0.4662 -0.5895 -0.3768
  929TIP3    H124202   6.474   1.630   0.832  2.1988 -1.0786  0.3029
  929TIP3    H224203   6.477   1.688   0.692 -1.6347 -0.4240  0.3898
  930TIP3   OH224204   3.538   0.142   3.648  0.4643 -1.1753 -0.3172
  930TIP3    H124205   3.521   0.094   3.567 -1.1578 -1.5250  0.1923
  930TIP3    H224206   3.567   0.228   3.619 -1.3468 -0.8491 -1.3342
  931TIP3   OH224207   1.927   0.015  13.492  0.2836 -0.0398 -0.0965
  931TIP3    H124208   1.899   0.060  13.572  0.1855  1.7889 -1.1110
  931TIP3    H224209   1.893   0.068  13.420 -0.0290 -1.8882 -1.3927
  932TIP3   OH224210   3.404   2.588   2.712  0.1509 -0.1466  0.8110
  932TIP3    H124211   3.453   2.647   2.655  0.2728 -1.4736 -0.5322
  932TIP3    H224212   3.353   2.533   2.652 -0.6434 -0.8012  2.0421
  933TIP3   OH224213   3.361   1.285   4.863  0.0366  0.8933 -0.1349
  933TIP3    H124214   3.316   1.232   4.929  1.4683  1.2828  1.1867
  933TIP3    H224215   3.355   1.232   4.783  0.7931 -0.9526  0.9757
  934TIP3   OH224216   4.731   0.107  16.059 -0.1351  0.5567  0.6593
  934TIP3    H124217   4.767   0.193  16.082  0.9827 -0.3691  2.6387
  934TIP3    H224218   4.795   0.069  15.999 -0.4014  0.9019  0.1476
  935TIP3   OH224219   4.627   2.579  12.140  0.4700  0.1353 -0.1103
  935TIP3    H124220   4.614   2.656  12.086  1.5621  1.8803  1.9487
  935TIP3    H224221   4.681   2.520  12.086 -1.7327  0.0018 -2.3317
  936TIP3   OH224222   0.523   3.749  16.054  0.4867 -0.3503 -0.1837
  936TIP3    H124223   0.485   3.827  16.094 -1.3083 -0.9980 -0.5424
  936TIP3    H224224   0.612   3.775  16.032 -0.1038  1.6588 -0.4442
  937TIP3   OH224225   3.562   1.873  12.913 -0.5293 -0.0439 -0.6318
  937TIP3    H124226   3.608   1.953  12.938  0.6666 -0.9837  0.3143
  937TIP3    H224227   3.619   1.831  12.850  0.0366 -1.2828  0.6481
  938TIP3   OH224228   5.488   4.254   0.722 -0.0537 -0.3885  0.0369
  938TIP3    H124229   5.462   4.318   0.789  0.5811  0.8736 -0.8841
  938TIP3    H224230   5.464   4.169   0.760 -1.2334  0.3994  1.1578
  939TIP3   OH224231   4.309   1.793   0.008  0.1501 -0.1780  0.0243
  939TIP3    H124232   4.247   1.864   0.023 -0.2644 -0.9753  2.8423
  939TIP3    H224233   4.264   1.734  -0.052 -1.2333  0.0013  0.8319
  940TIP3   OH224234   4.900   1.875   1.720 -0.2175 -0.4879 -0.2253
  940TIP3    H124235   4.992   1.897   1.729 -0.6243  1.5022 -0.4996
  940TIP3    H224236   4.898   1.779   1.715  1.8835 -0.5177 -1.1311
  941TIP3   OH224237   1.673   5.393  13.360 -0.0089  0.2523 -0.2044
  941TIP3    H124238   1.693   5.369  13.450  0.7373 -0.0617 -0.4513
  941TIP3    H224239   1.645   5.485  13.366  1.6308  0.7546  0.1424
  942TIP3   OH224240   1.153   1.482   2.408  0.0734 -0.3011 -0.1353
  942TIP3    H124241   1.203   1.508   2.330  1.7637  1.0353  1.3062
  942TIP3    H224242   1.061   1.499   2.384  0.5745  0.3918 -1.7082
  943TIP3   OH224243   1.755   2.414   5.048  0.2077 -0.1750 -0.2736
  943TIP3    H124244   1.812   2.441   5.120  0.8843 -0.0881 -0.8300
  943TIP3    H224245   1.666   2.433   5.079  0.6118  2.6090 -0.5908
  944TIP3   OH224246   2.083   3.177   3.304 -0.4367  0.5451 -0.1550
  944TIP3    H124247   2.039   3.196   3.387  0.3432 -0.4535  0.5105
  944TIP3    H224248   2.013   3.149   3.245 -0.9587  1.0287  0.2275
  945TIP3   OH224249   3.816   5.624   0.387 -0.2964  0.0471  0.1235
  945TIP3    H124250   3.721   5.617   0.401 -0.0066 -4.1357  1.2922
  945TIP3    H224251   3.828   5.605   0.294 -0.5552  0.8132 -0.0789
  946TIP3   OH224252   1.023   5.661   1.080 -0.2956 -0.1607  0.1545
  946TIP3    H124253   0.944   5.612   1.104 -0.1958 -0.0507  0.7228
  946TIP3    H224254   0.989   5.741   1.040 -0.4807 -0.1121  0.3999
  947TIP3   OH224255   5.620   3.013   3.291 -0.3038 -0.1361  0.1629
  947TIP3    H124256   5.637   3.106   3.300 -1.9882  0.2435 -0.2429
  947TIP3    H224257   5.706   2.974   3.272  0.3816  1.3423  0.1454
  948TIP3   OH224258   4.307   5.802  15.301  0.1513  0.6470 -0.9448
  948TIP3    H124259   4.271   5.875  15.249  1.3563  0.8166 -1.5682
  948TIP3    H224260   4.230   5.757  15.335 -0.6511  1.2305 -1.9282
  949TIP3   OH224261   3.823   6.717  16.215  0.5272  0.1322  0.1844
  949TIP3    H124262   3.806   6.630  16.178 -2.8816  1.3588 -1.5158
  949TIP3    H224263   3.810   6.705  16.309  0.7900 -1.2935  0.0673
  950TIP3   OH224264   2.835   1.444  12.099  0.1878  0.3392 -0.3540
  950TIP3    H124265   2.845   1.529  12.142 -0.2854  0.7802 -1.0881
  950TIP3    H224266   2.922   1.423  12.067  0.3186  0.5207 -0.1268
  951TIP3   OH224267   2.486   1.702  15.288 -0.2540  0.2902  0.2962
  951TIP3    H124268   2.411   1.651  15.258 -1.2093  1.7640  0.1059
  951TIP3    H224269   2.461   1.734  15.375  0.8392 -0.5418  0.9476
  952TIP3   OH224270   2.421   1.195   2.782 -0.2644  0.0326 -0.3053
  952TIP3    H124271   2.334   1.176   2.747 -0.5235 -1.1848  0.9241
  952TIP3    H224272   2.405   1.222   2.873  0.7124 -1.7129  0.4348
  953TIP3   OH224273   1.965   1.790   2.774 -0.0261 -0.0011 -0.1482
  953TIP3    H124274   1.984   1.880   2.747 -2.9206  0.5416 -0.6896
  953TIP3    H224275   1.925   1.750   2.697  2.0468 -2.1344 -0.2301
  954TIP3   OH224276   3.982   0.016  12.634 -0.5043 -0.0400  0.2927
  954TIP3    H124277   3.981  -0.045  12.560  0.2367  0.8207 -0.4651
  954TIP3    H224278   4.074   0.036  12.647 -0.5806 -0.6366  1.8709
  955TIP3   OH224279   1.720   5.911   3.176  0.6556 -0.1713 -0.1675
  955TIP3    H124280   1.744   6.004   3.173  0.4916 -0.1133  0.3516
  955TIP3    H224281   1.732   5.886   3.267  0.7304 -0.6734 -0.3147
  956TIP3   OH224282   6.376   6.563  12.837  0.3477 -0.0111  0.0428
  956TIP3    H124283   6.328   6.639  12.804  0.6820  0.2017  0.0391
  956TIP3    H224284   6.314   6.491  12.831  0.2419  0.1278 -0.5711
  957TIP3   OH224285   0.232   6.576   5.848 -0.1888  0.2749 -0.1317
  957TIP3    H124286   0.232   6.505   5.785  0.6535  0.3459 -0.2292
  957TIP3    H224287   0.323   6.580   5.880  0.1676  2.2540 -1.2344
  958TIP3   OH224288   3.912   4.180   1.107 -0.0194 -0.0365  0.1743
  958TIP3    H124289   3.933   4.098   1.151 -0.4347  0.2017  0.8401
  958TIP3    H224290   3.938   4.248   1.169 -1.1643  0.2934  0.3181
  959TIP3   OH224291   2.348   3.063   3.886 -0.0058 -0.3769 -0.8737
  959TIP3    H124292   2.320   3.046   3.975  1.4253  0.3358 -0.2434
  959TIP3    H224293   2.403   2.988   3.863 -1.9339 -1.5369 -1.9231
  960TIP3   OH224294   1.795   1.457  12.668  0.4802  0.1523 -0.5415
  960TIP3    H124295   1.846   1.451  12.587 -1.6684 -0.1027 -1.9491
  960TIP3    H224296   1.706   1.472  12.639 -0.3536  0.1133  1.8125
  961TIP3   OH224297   4.977   0.776   5.235  0.2116 -0.9826 -0.2147
  961TIP3    H124298   4.975   0.686   5.267 -3.3510 -0.9435  0.0516
  961TIP3    H224299   4.920   0.776   5.158 -0.4334  1.1529  0.1888
  962TIP3   OH224300   3.060   0.281   4.938 -0.1659  0.1446  0.6555
  962TIP3    H124301   3.044   0.191   4.911 -2.1063  0.1071  1.7713
  962TIP3    H224302   3.117   0.316   4.869 -0.7033 -1.4449 -0.6794
  963TIP3   OH224303   1.893   5.152   5.671 -0.5042  0.4094 -0.2816
  963TIP3    H124304   1.912   5.096   5.595 -1.8394  0.4220 -0.6544
  963TIP3    H224305   1.827   5.213   5.640 -0.5076  0.9196  0.6887
  964TIP3   OH224306   1.040   4.496   5.197 -0.1751  0.5484 -0.7930
  964TIP3    H124307   0.972   4.442   5.157  1.7884 -1.7554 -1.2136
  964TIP3    H224308   1.037   4.473   5.290  1.1174 -0.9000 -1.0767
  965TIP3   OH224309   0.407   6.765  14.647  0.7675  0.2662 -0.0035
  965TIP3    H124310   0.338   6.828  14.625  0.8473  0.9506  1.5745
  965TIP3    H224311   0.360   6.690  14.685  0.8994  1.5344  2.9364
  966TIP3   OH224312   0.010   1.530   0.766 -0.3572 -0.6179  0.0784
  966TIP3    H124313   0.001   1.588   0.842  2.2120 -0.4046  0.3025
  966TIP3    H224314  -0.018   1.583   0.692 -0.8237 -0.0815  0.6310
  967TIP3   OH224315   2.177   6.270   4.307 -0.4823  0.0471 -0.2711
  967TIP3    H124316   2.103   6.216   4.335 -1.2981  1.4039  0.2495
  967TIP3    H224317   2.219   6.218   4.237 -3.4270  0.3456 -2.4452
  968TIP3   OH224318   6.218   2.251  13.881 -0.3479  0.0031  0.4631
  968TIP3    H124319   6.124   2.264  13.866  0.2201  1.1412 -3.2084
  968TIP3    H224320   6.224   2.163  13.919 -2.8415 -0.7058 -0.5513
  969TIP3   OH224321   2.403   2.729  12.010  0.3453  0.4329 -0.1980
  969TIP3    H124322   2.339   2.715  12.080  0.5049  1.1542  0.0970
  969TIP3    H224323   2.350   2.756  11.935  0.3582  1.7602  0.2546
  970TIP3   OH224324   1.375   2.900  14.017  0.0556 -0.3940  0.2898
  970TIP3    H124325   1.460   2.942  14.018  0.0548 -0.3951  0.5325
  970TIP3    H224326   1.376   2.844  13.939  0.5816 -1.0133  0.7328
  971TIP3   OH224327   5.031   5.226  16.567 -0.1222 -0.1003  0.1103
  971TIP3    H124328   4.993   5.210  16.653 -1.2772  0.9283 -0.1895
  971TIP3    H224329   4.965   5.277  16.520  0.3826 -0.8583 -1.4863
  972TIP3   OH224330   4.307   4.438  10.696  0.5631  0.4549  0.2392
  972TIP3    H124331   4.231   4.393  10.660  0.3692  1.2667 -0.3943
  972TIP3    H224332   4.278   4.469  10.782 -0.1301  1.5069 -0.3452
  973TIP3   OH224333   3.715   3.029  16.624  0.7723 -0.1310  0.9076
  973TIP3    H124334   3.768   3.076  16.559  0.1985  0.7374  1.0474
  973TIP3    H224335   3.744   3.064  16.708 -0.2452  0.5978  0.9635
  974TIP3   OH224336   4.174   2.316   0.001  0.5271 -0.1995 -0.0416
  974TIP3    H124337   4.212   2.341  -0.083  0.2151  0.7437  0.0929
  974TIP3    H224338   4.250   2.297   0.057  0.7270 -1.1798 -0.6303
  975TIP3   OH224339   2.401   1.483   5.502 -0.6120  0.3321  0.5306
  975TIP3    H124340   2.386   1.389   5.517 -1.6181  0.4078  0.0954
  975TIP3    H224341   2.469   1.507   5.564  0.9850 -1.0831 -0.5824
  976TIP3   OH224342   3.219   6.399  15.746 -0.1097  0.0209  0.5368
  976TIP3    H124343   3.162   6.471  15.773  1.8194  1.7905  0.1065
  976TIP3    H224344   3.255   6.365  15.828  0.5335  0.9249  0.6459
  977TIP3   OH224345   2.748   4.745   2.383 -0.5056 -0.1627 -0.1697
  977TIP3    H124346   2.679   4.698   2.429 -0.8090 -0.2382 -0.6887
  977TIP3    H224347   2.731   4.837   2.400  0.4672 -0.2266  1.3901
  978TIP3   OH224348   2.861   6.373  16.445  0.0587  0.0201  0.3763
  978TIP3    H124349   2.913   6.327  16.380 -1.3993 -0.1228 -0.7548
  978TIP3    H224350   2.775   6.330  16.442 -0.4719  0.9394  1.3809
  979TIP3   OH224351   3.173   0.911  12.992 -0.3266 -0.1530 -0.1030
  979TIP3    H124352   3.099   0.915  13.053 -0.1923 -0.5780  0.0929
  979TIP3    H224353   3.171   0.995  12.947 -0.4495  0.1525  0.4615
  980TIP3   OH224354   5.213   2.527   1.653 -0.1271 -0.0102 -0.4691
  980TIP3    H124355   5.134   2.559   1.609 -0.3903 -0.9888 -0.7514
  980TIP3    H224356   5.213   2.570   1.738 -0.4412  0.7375 -0.8369
  981TIP3   OH224357   4.814   1.800  16.792 -0.2533 -0.1048  0.2161
  981TIP3    H124358   4.892   1.750  16.768  0.1953  0.6332  0.1330
  981TIP3    H224359   4.847   1.877  16.837 -0.7055  1.7189 -2.3559
  982TIP3   OH224360   1.546   4.986   2.182 -0.1622  0.3732  0.1831
  982TIP3    H124361   1.532   5.080   2.174  0.3249  0.4173 -0.1654
  982TIP3    H224362   1.486   4.959   2.252 -1.7630  0.5912 -1.0653
  983TIP3   OH224363   6.437   6.170  15.632  0.3975  0.4183 -0.1530
  983TIP3    H124364   6.505   6.163  15.698 -1.4150 -0.5281  1.7426
  983TIP3    H224365   6.466   6.112  15.561  1.1372 -0.6918  1.0096
  984TIP3   OH224366   6.007   3.327  12.716 -0.2352 -0.0170  0.7087
  984TIP3    H124367   5.944   3.319  12.788  1.3947 -1.2217  2.0750
  984TIP3    H224368   6.044   3.415  12.726 -0.8153  0.2372  0.6507
  985TIP3   OH224369   2.941   5.214   0.097 -0.3693 -0.9221 -0.1830
  985TIP3    H124370   3.021   5.239   0.050 -1.0775  2.0245 -0.0408
  985TIP3    H224371   2.923   5.125   0.068  2.0434 -1.0662 -1.5116
  986TIP3   OH224372   3.634   1.085  17.235  0.0745 -0.1331 -0.0158
  986TIP3    H124373   3.560   1.104  17.293 -0.9313 -0.2829 -1.2152
  986TIP3    H224374   3.692   1.161  17.246 -1.2951  1.0592 -0.6623
  987TIP3   OH224375   2.824   4.128  11.711  0.1857  0.0430 -0.3062
  987TIP3    H124376   2.828   4.212  11.666  1.3748 -1.2971 -2.9760
  987TIP3    H224377   2.904   4.124  11.763 -0.1328  0.7398  0.2535
  988TIP3   OH224378   2.151   3.458  16.252 -0.3643  0.1981  0.0580
  988TIP3    H124379   2.108   3.462  16.338  1.4049  1.1626  0.9601
  988TIP3    H224380   2.177   3.366  16.243 -0.9221  0.0047  0.3701
  989TIP3   OH224381   6.368   1.860   2.155  0.0030 -0.4384  0.1725
  989TIP3    H124382   6.456   1.825   2.140 -0.0225 -0.1505 -0.7496
  989TIP3    H224383   6.361   1.870   2.250  0.7634 -0.9794  0.2919
  990TIP3   OH224384   1.485   3.322  10.789 -0.3841 -0.5600 -0.1014
  990TIP3    H124385   1.489   3.276  10.873 -0.1384  0.4430  0.4524
  990TIP3    H224386   1.577   3.328  10.762 -0.5661 -2.4081 -1.3306
  991TIP3   OH224387   1.211   4.539   2.475  0.0212 -0.1936 -0.3346
  991TIP3    H124388   1.134   4.500   2.434 -0.0016  0.4684 -0.9350
  991TIP3    H224389   1.188   4.631   2.486  0.2573 -0.2401  0.6318
  992TIP3   OH224390   2.591   5.697   1.216  0.3431 -0.3135  0.1020
  992TIP3    H124391   2.509   5.733   1.250  0.7524 -0.0472  0.8324
  992TIP3    H224392   2.628   5.646   1.289  0.8112 -0.4489 -0.2222
  993TIP3   OH224393   3.726   0.100   2.455  0.3529  0.9185 -0.0578
  993TIP3    H124394   3.649   0.155   2.474 -0.5007 -0.2150 -0.1468
  993TIP3    H224395   3.710   0.019   2.502  2.7818  1.5818  2.1441
  994TIP3   OH224396   0.552   5.223  16.223  0.3188 -0.2553 -0.2635
  994TIP3    H124397   0.528   5.315  16.230  2.0599  0.2263 -0.3034
  994TIP3    H224398   0.581   5.211  16.133 -2.0006 -1.4223 -0.9363
  995TIP3   OH224399   4.294   1.792   1.876  0.2650  0.2457  0.5995
  995TIP3    H124400   4.243   1.712   1.894  0.0339 -0.0017 -1.0319
  995TIP3    H224401   4.372   1.761   1.830  1.6406  0.6930  2.5068
  996TIP3   OH224402   4.927   4.153  13.068 -0.3459 -0.3449  0.4971
  996TIP3    H124403   4.900   4.221  13.006  0.8445 -1.3315 -1.1611
  996TIP3    H224404   4.980   4.200  13.132 -0.4486  0.4724  0.0067
  997TIP3   OH224405   1.000   3.947  15.406  0.7858  0.3938 -0.3736
  997TIP3    H124406   0.959   3.982  15.485 -1.9237  0.8243 -1.8702
  997TIP3    H224407   1.082   3.996  15.398  0.9955  0.5527  1.9392
  998TIP3   OH224408   0.480   3.933   1.813 -0.7715 -0.0158 -0.1841
  998TIP3    H124409   0.425   4.006   1.842  0.7819  0.9324  0.5194
  998TIP3    H224410   0.558   3.974   1.775 -1.1564 -1.2989 -2.5674
  999TIP3   OH224411   0.393   3.440  14.031  0.2985  0.3291  0.4479
  999TIP3    H124412   0.316   3.385  14.048 -0.8995  1.0632 -2.1576
  999TIP3    H224413   0.448   3.388  13.973 -1.5390  2.1569 -3.2794
 1000TIP3   OH224414   6.172   2.918   2.381  0.0134 -0.1890 -0.6403
 1000TIP3    H124415   6.141   2.872   2.459 -0.8146 -0.9270 -1.3665
 1000TIP3    H224416   6.260   2.947   2.403 -0.7053  0.8309  1.0530
 1001TIP3   OH224417   3.554   5.818   5.143  0.6059 -0.4723 -0.3523
 1001TIP3    H124418   3.626   5.843   5.084  2.0135 -0.4236  1.3216
 1001TIP3    H224419   3.554   5.722   5.140  1.0188 -0.4840 -0.0442
 1002TIP3   OH224420   3.305   6.776  14.724  0.0574 -0.6295  0.4482
 1002TIP3    H124421   3.349   6.761  14.641 -0.7788 -1.4390  0.1361
 1002TIP3    H224422   3.352   6.721  14.787  0.5960 -0.1319  0.4839
 1003TIP3   OH224423   2.190   0.054   4.924 -0.4869 -0.0887  0.2220
 1003TIP3    H124424   2.116   0.107   4.895 -0.8228 -0.2506  0.7756
 1003TIP3    H224425   2.151  -0.021   4.968 -0.0632 -1.6293 -1.8932
 1004TIP3   OH224426   0.987   2.404  17.224 -0.7609 -0.2225 -0.4030
 1004TIP3    H124427   0.968   2.475  17.285 -1.1839  0.4184 -1.2774
 1004TIP3    H224428   0.970   2.440  17.138  2.6295 -0.1686 -1.1711
 1005TIP3   OH224429   0.500   4.029  13.693  0.9244 -0.3617 -0.4537
 1005TIP3    H124430   0.518   4.056  13.783  0.9682 -1.4304 -0.1261
 1005TIP3    H224431   0.584   4.034  13.648  0.9084  0.1403 -0.4350
 1006TIP3   OH224432   0.092   5.581   1.978  0.7835 -0.2377  0.1133
 1006TIP3    H124433   0.072   5.491   2.002  0.2824 -0.2865 -0.4895
 1006TIP3    H224434   0.184   5.579   1.953  0.8863 -0.4964  0.4957
 1007TIP3   OH224435   5.814   6.766   2.433  0.2976 -0.2490 -0.3048
 1007TIP3    H124436   5.777   6.809   2.356  0.1874 -1.7052 -1.1192
 1007TIP3    H224437   5.771   6.680   2.434  0.5806 -0.3966  1.1774
 1008TIP3   OH224438   2.848   1.375   2.492 -0.6218 -0.1637 -0.0678
 1008TIP3    H124439   2.781   1.433   2.529  1.3768  1.0653  1.9007
 1008TIP3    H224440   2.917   1.435   2.461  0.9309 -1.3791  0.8499
 1009TIP3   OH224441   6.102   6.686  11.043 -0.0401  0.7025  0.1536
 1009TIP3    H124442   6.012   6.654  11.056 -0.4519  1.8455  0.2506
 1009TIP3    H224443   6.103   6.718  10.952  0.6858 -0.5637 -0.3028
 1010TIP3   OH224444   1.818   4.140   0.735 -0.8989  0.1094 -0.3858
 1010TIP3    H124445   1.761   4.152   0.658 -1.2552 -0.9967 -0.3147
 1010TIP3    H224446   1.903   4.173   0.707 -0.1541 -3.1203 -2.4045
 1011TIP3   OH224447   0.385   1.851  11.942  0.4361 -0.0063  0.4572
 1011TIP3    H124448   0.330   1.924  11.971 -1.3267 -1.0638 -0.0025
 1011TIP3    H224449   0.371   1.783  12.008 -1.3359 -1.3871 -1.1902
 1012TIP3   OH224450   0.886   4.097   6.444 -0.2386 -0.1634 -0.3619
 1012TIP3    H124451   0.828   4.074   6.518 -1.0384 -0.0662 -0.9472
 1012TIP3    H224452   0.833   4.079   6.366 -0.2459  1.9390 -0.8821
 1013TIP3   OH224453   0.106   5.562   5.550 -0.1076 -0.2812 -0.3059
 1013TIP3    H124454   0.141   5.488   5.501 -0.4520  0.0726 -1.1028
 1013TIP3    H224455   0.183   5.603   5.590  0.0282 -1.3743  0.5938
 1014TIP3   OH224456   5.399   5.613   0.115 -0.4433  0.4554  0.1481
 1014TIP3    H124457   5.420   5.531   0.071 -0.4666  0.2054  0.6005
 1014TIP3    H224458   5.311   5.635   0.086 -0.2875  0.5245 -0.2790
 1015TIP3   OH224459   4.124   3.362   1.187  0.4547  0.4679  0.2602
 1015TIP3    H124460   4.147   3.270   1.206  2.0663  0.7504 -0.1671
 1015TIP3    H224461   4.196   3.412   1.225  1.7505  1.2995 -2.9594
 1016TIP3   OH224462   6.707   3.444  12.242  0.3008 -0.7950  0.1696
 1016TIP3    H124463   6.684   3.517  12.299  0.7926 -0.9347  0.5537
 1016TIP3    H224464   6.631   3.385  12.247 -0.6215  0.2204 -1.0761
 1017TIP3   OH224465   3.720   2.686  10.608  1.0355 -0.2675  0.5150
 1017TIP3    H124466   3.805   2.720  10.634  1.0222 -0.3983  0.7349
 1017TIP3    H224467   3.734   2.592  10.596  1.0041 -0.2352  0.1995
 1018TIP3   OH224468   2.707   1.368  14.056 -0.2975 -0.2299 -0.5193
 1018TIP3    H124469   2.775   1.434  14.048  0.1851 -0.3342  2.0911
 1018TIP3    H224470   2.753   1.284  14.054 -0.8379 -0.5467 -3.0817
 1019TIP3   OH224471   1.161   0.068   0.365  0.1819  0.0615 -0.8753
 1019TIP3    H124472   1.094   0.055   0.432  0.1219 -1.0591 -1.1213
 1019TIP3    H224473   1.185  -0.021   0.337  1.3239  0.4539 -1.2368
 1020TIP3   OH224474   2.864   1.830   5.099 -0.1606  0.3721 -0.1928
 1020TIP3    H124475   2.892   1.910   5.054 -1.9573  0.6913 -0.8448
 1020TIP3    H224476   2.881   1.760   5.036  0.2553  0.4025 -0.1155
 1021TIP3   OH224477   0.248   1.119  14.724 -0.1819 -0.0484  0.3534
 1021TIP3    H124478   0.291   1.084  14.646 -0.3486  0.5155  0.0039
 1021TIP3    H224479   0.215   1.204  14.697 -0.6257 -0.0370  0.9155
 1022TIP3   OH224480   1.013   5.368  14.140  0.2260  0.8882  0.0336
 1022TIP3    H124481   1.067   5.337  14.066 -2.4809 -0.0391 -1.6869
 1022TIP3    H224482   1.077   5.401  14.203  2.8309 -0.5005 -1.6746
 1023TIP3   OH224483   5.123   2.293   0.055 -0.2496 -0.1160  0.3530
 1023TIP3    H124484   5.029   2.304   0.072  0.0650  1.2159  1.3331
 1023TIP3    H224485   5.143   2.359  -0.011  0.0701 -0.2092  0.3543
 1024TIP3   OH224486   5.431   2.922   1.020 -0.6394  0.3128  0.2139
 1024TIP3    H124487   5.525   2.915   1.010 -0.3867  0.6902  2.0473
 1024TIP3    H224488   5.397   2.923   0.930  1.0603 -0.1071 -0.4573
 1025TIP3   OH224489   6.559   4.508   3.185 -0.0716  0.0513 -0.4288
 1025TIP3    H124490   6.497   4.529   3.115 -2.6126 -1.4838  1.1562
 1025TIP3    H224491   6.579   4.592   3.226 -0.6947  0.6578 -1.3343
 1026TIP3   OH224492   3.550   6.556  15.134  0.1901 -0.2233 -0.0553
 1026TIP3    H124493   3.538   6.566  15.228 -1.3118  1.1995 -0.3454
 1026TIP3    H224494   3.643   6.573  15.119  0.2077  0.7168  1.0423
 1027TIP3   OH224495   1.080   4.000  12.568  0.0139 -0.2545  0.5128
 1027TIP3    H124496   1.030   4.077  12.595  1.2869  0.2430  1.6038
 1027TIP3    H224497   1.022   3.926  12.584 -2.8882  0.5244 -4.3348
 1028TIP3   OH224498   4.967   4.259   5.834 -0.3357  0.4661  0.1223
 1028TIP3    H124499   4.943   4.351   5.819  0.2246  0.7397  0.8182
 1028TIP3    H224500   4.943   4.243   5.926 -0.2251 -0.0103  0.0676
 1029TIP3   OH224501   2.275   6.399  17.149 -0.2419  0.3667  0.1299
 1029TIP3    H124502   2.216   6.471  17.126 -0.4640 -0.3849 -1.8539
 1029TIP3    H224503   2.354   6.414  17.096 -0.0857 -0.5549  0.0806
 1030TIP3   OH224504   6.327   0.170  12.975  0.3556  0.0489 -0.2076
 1030TIP3    H124505   6.400   0.181  12.915  1.0996 -1.3131  0.3960
 1030TIP3    H224506   6.261   0.233  12.945  0.5297 -0.8407 -2.7014
 1031TIP3   OH224507   3.278   3.129  15.737  0.2309  0.3256 -0.3076
 1031TIP3    H124508   3.324   3.172  15.809  1.2484  1.1541 -1.4132
 1031TIP3    H224509   3.345   3.116  15.670 -0.4170 -1.5358 -0.6679
 1032TIP3   OH224510   1.032   0.311  13.074 -0.3132  0.5699  0.6862
 1032TIP3    H124511   1.095   0.261  13.022 -0.2559  0.5697  0.7562
 1032TIP3    H224512   0.949   0.300  13.027  0.1030  2.2276 -0.5424
 1033TIP3   OH224513   6.652   6.344  13.158  0.6711  0.0446  0.4795
 1033TIP3    H124514   6.622   6.362  13.069  0.8567 -1.0110  0.1914
 1033TIP3    H224515   6.620   6.418  13.209  1.2317  1.0615 -0.5964
 1034TIP3   OH224516   3.722   4.742  11.916 -0.1104 -0.3125 -0.3787
 1034TIP3    H124517   3.704   4.649  11.903 -1.2608 -0.3451  1.2295
 1034TIP3    H224518   3.665   4.768  11.988  0.9804  1.4017 -0.0850
 1035TIP3   OH224519   3.921   1.278  14.913 -0.2828 -0.2855  0.5445
 1035TIP3    H124520   3.996   1.320  14.955 -1.2906  1.2567  0.9027
 1035TIP3    H224521   3.908   1.329  14.833 -1.1904 -0.2658  0.6949
 1036TIP3   OH224522   3.268   6.745  15.528  0.1219  0.5167 -1.1241
 1036TIP3    H124523   3.215   6.782  15.599  0.1902  0.5508 -1.0917
 1036TIP3    H224524   3.294   6.821  15.476  0.5860  0.5564 -0.8401
 1037TIP3   OH224525   0.423   2.958  17.180 -0.2136 -0.2139 -0.0007
 1037TIP3    H124526   0.424   3.028  17.246  2.1605  0.9620 -1.1660
 1037TIP3    H224527   0.356   2.986  17.117 -0.3516  0.2061  0.3271
 1038TIP3   OH224528   3.281   1.964  16.817  0.0228  0.2699  0.7309
 1038TIP3    H124529   3.220   1.962  16.890 -1.1289 -1.1000 -0.1941
 1038TIP3    H224530   3.282   1.873  16.785  0.3700  0.8448 -1.0125
 1039TIP3   OH224531   2.826   0.487   0.849 -0.1352 -0.2378  0.5247
 1039TIP3    H124532   2.733   0.466   0.841 -0.0155 -1.1680  1.3722
 1039TIP3    H224533   2.871   0.408   0.821  0.4595  0.6763 -1.2644
 1040TIP3   OH224534   1.635   3.692   4.929 -0.1703 -0.1910  0.3579
 1040TIP3    H124535   1.724   3.673   4.898 -0.2331 -0.3445  0.2698
 1040TIP3    H224536   1.635   3.664   5.020  0.2056  0.8582  0.6928
 1041TIP3   OH224537   1.633   1.943   2.510  0.2113  0.3748  0.1836
 1041TIP3    H124538   1.716   1.929   2.464 -0.0251  0.1075 -0.1658
 1041TIP3    H224539   1.567   1.908   2.451 -0.1360  0.4252  0.5408
 1042TIP3   OH224540   0.942   3.881   2.194  0.2180 -0.6649 -0.0299
 1042TIP3    H124541   0.930   3.973   2.173  0.9927 -0.2909  1.1069
 1042TIP3    H224542   1.021   3.855   2.147  0.7384 -0.3954  0.6850
 1043TIP3   OH224543   5.111   5.995  12.261  0.4300 -0.5108 -0.1931
 1043TIP3    H124544   5.187   6.001  12.203  1.0358 -0.6998  0.5588
 1043TIP3    H224545   5.096   5.901  12.270  0.5584 -0.4931  0.2276
 1044TIP3   OH224546   5.761   5.747   0.517  0.3309  0.2428  0.6533
 1044TIP3    H124547   5.802   5.660   0.516  0.5110  0.2937  1.7797
 1044TIP3    H224548   5.759   5.771   0.610  0.3677  1.4847  0.3494
 1045TIP3   OH224549   0.410   3.484  15.299  0.1905 -0.2043 -0.5721
 1045TIP3    H124550   0.410   3.410  15.238  0.6910  0.1011 -0.9609
 1045TIP3    H224551   0.503   3.499  15.318  0.0010 -0.9238  1.0730
 1046TIP3   OH224552   3.096   6.527  11.947  0.3864  0.3265  0.5336
 1046TIP3    H124553   3.037   6.599  11.969  1.5421  1.6393 -0.5335
 1046TIP3    H224554   3.115   6.539  11.854  2.8152  0.3416  0.9659
 1047TIP3   OH224555   6.138   1.723   5.567 -0.4846 -0.7732 -0.1934
 1047TIP3    H124556   6.199   1.686   5.503 -0.7500  0.9138 -1.5093
 1047TIP3    H224557   6.090   1.790   5.518 -0.8122  0.4882  1.7310
 1048TIP3   OH224558   1.785   1.181   1.658 -0.7808 -0.2484  0.5430
 1048TIP3    H124559   1.859   1.121   1.654  0.2055  0.9404  0.4803
 1048TIP3    H224560   1.727   1.153   1.587 -0.4596 -1.2558  0.6676
 1049TIP3   OH224561   5.546   2.041  14.476 -0.3207  0.1477 -0.2435
 1049TIP3    H124562   5.592   2.113  14.432  0.7583 -0.5690 -0.3409
 1049TIP3    H224563   5.457   2.072  14.488 -0.3664  0.7658 -1.9922
 1050TIP3   OH224564   1.336   2.833  13.211  0.0912 -0.1517  0.1202
 1050TIP3    H124565   1.339   2.922  13.247  0.4637 -0.2162  0.2576
 1050TIP3    H224566   1.253   2.797  13.243  0.0355  0.0780  0.2358
 1051TIP3   OH224567   0.509   3.947   3.459 -0.1493 -0.2032  0.3717
 1051TIP3    H124568   0.581   3.917   3.404 -0.6910  1.7922 -1.5479
 1051TIP3    H224569   0.550   3.961   3.545  1.5413  0.0205 -0.4262
 1052TIP3   OH224570   3.853   3.481   5.880 -0.3463 -0.3091 -0.0387
 1052TIP3    H124571   3.898   3.565   5.893 -2.0363  0.9941 -1.9964
 1052TIP3    H224572   3.902   3.438   5.810 -1.0735  0.3000 -0.9308
 1053TIP3   OH224573   6.773   4.727  15.945 -0.6273  0.2366  0.4056
 1053TIP3    H124574   6.770   4.808  15.996  0.8220  0.4202  0.2384
 1053TIP3    H224575   6.690   4.684  15.965 -1.2608  1.5731  0.7981
 1054TIP3   OH224576   5.080   4.472  11.885 -0.1087 -0.2709  0.6503
 1054TIP3    H124577   5.053   4.533  11.954 -1.1217  0.1860 -0.1188
 1054TIP3    H224578   5.172   4.453  11.903 -0.2251  0.2261  1.8325
 1055TIP3   OH224579   5.344   1.213  14.955 -0.1868  0.6263  0.1673
 1055TIP3    H124580   5.309   1.300  14.932 -0.8185  0.9910  2.2751
 1055TIP3    H224581   5.266   1.157  14.962 -0.0147  0.4774  1.0377
 1056TIP3   OH224582   4.891   2.101  14.496 -0.2885 -0.2426 -0.5308
 1056TIP3    H124583   4.945   2.089  14.574 -0.5316 -0.7753 -0.4393
 1056TIP3    H224584   4.896   2.195  14.477 -0.0691 -0.1434  0.0072
 1057TIP3   OH224585   5.518   4.446   0.012 -0.9936 -0.2519 -0.5126
 1057TIP3    H124586   5.604   4.484  -0.008 -1.1126 -0.3491 -1.2316
 1057TIP3    H224587   5.533   4.393   0.091 -0.4855  0.0500 -0.4002
 1058TIP3   OH224588   6.150   6.155   5.640  0.9065  0.1338  0.3214
 1058TIP3    H124589   6.086   6.221   5.613  0.6403 -0.6844 -1.0995
 1058TIP3    H224590   6.154   6.164   5.735 -1.0987  0.4056  0.4165
 1059TIP3   OH224591   1.401   2.724   3.570  0.3583  0.4030  0.0068
 1059TIP3    H124592   1.454   2.661   3.619 -0.6436 -0.3724  0.1229
 1059TIP3    H224593   1.312   2.690   3.575 -0.1555  1.6425 -0.2468
 1060TIP3   OH224594   3.260   6.283   5.281 -0.4172 -0.2956  0.0569
 1060TIP3    H124595   3.183   6.248   5.326 -0.9149  0.0228 -0.5319
 1060TIP3    H224596   3.226   6.317   5.198  0.0553  1.5033  0.5504
 1061TIP3   OH224597   2.521   2.442  15.938  0.0336  0.8064 -0.1232
 1061TIP3    H124598   2.492   2.449  16.029  2.3944 -0.2795  0.7788
 1061TIP3    H224599   2.446   2.402  15.893 -1.4779  2.0753  1.1310
 1062TIP3   OH224600   2.785   0.803  11.392  0.1033 -0.1122 -0.5024
 1062TIP3    H124601   2.823   0.716  11.380  0.4975  0.1134 -0.9168
 1062TIP3    H224602   2.860   0.862  11.391 -0.0796  0.1680  0.5910
 1063TIP3   OH224603   0.386   4.199   0.318 -0.6522 -0.8743 -0.0436
 1063TIP3    H124604   0.340   4.282   0.325  1.5449  0.3054  1.6195
 1063TIP3    H224605   0.340   4.141   0.379 -1.4671 -0.5323 -0.3185
 1064TIP3   OH224606   2.798   3.327  16.256  0.3373 -0.2923  0.8188
 1064TIP3    H124607   2.817   3.282  16.174 -0.4863 -0.6652  0.8251
 1064TIP3    H224608   2.782   3.417  16.231 -2.4226 -0.8751  0.2004
 1065TIP3   OH224609   0.785   3.098  13.158 -0.3038 -0.4966  0.2995
 1065TIP3    H124610   0.753   3.105  13.068 -2.0157 -3.5385  0.5505
 1065TIP3    H224611   0.781   3.188  13.192 -1.1074  0.4679 -2.1472
 1066TIP3   OH224612   0.102   5.031   5.241 -0.5564 -0.4760 -0.0109
 1066TIP3    H124613   0.016   5.052   5.278 -1.0159 -0.7263 -0.8950
 1066TIP3    H224614   0.139   4.966   5.301 -1.3073 -0.9026  0.0062
 1067TIP3   OH224615   1.123   0.915  11.475  0.0617  0.2042  0.4415
 1067TIP3    H124616   1.164   0.953  11.398 -1.1558  0.4460 -0.1202
 1067TIP3    H224617   1.089   0.990  11.524 -0.5975 -0.0279  0.3590
 1068TIP3   OH224618   1.239   5.366  15.343  0.1354 -0.8027 -0.2456
 1068TIP3    H124619   1.323   5.382  15.299 -0.5199  1.0509 -0.9185
 1068TIP3    H224620   1.216   5.450  15.382 -0.8938 -1.5761  0.8960
 1069TIP3   OH224621   6.460   2.488   4.972  0.4328 -0.3036 -0.0502
 1069TIP3    H124622   6.416   2.539   4.904 -1.1765 -2.5660 -0.8201
 1069TIP3    H224623   6.471   2.549   5.045 -1.5562  1.0871 -0.8349
 1070TIP3   OH224624   1.996   5.763   0.313  0.1191 -0.3313  0.2277
 1070TIP3    H124625   1.952   5.838   0.274  1.6339  0.2133 -0.4888
 1070TIP3    H224626   1.934   5.691   0.302 -0.4160  0.3079 -1.1783
 1071TIP3   OH224627   3.188   2.130  12.135  0.1587  0.0802  0.1975
 1071TIP3    H124628   3.174   2.041  12.168  0.2177  0.2293  0.6241
 1071TIP3    H224629   3.250   2.169  12.196  2.0853 -0.3813 -1.3628
 1072TIP3   OH224630   5.832   3.088  15.195 -0.3668  0.1452  0.5773
 1072TIP3    H124631   5.924   3.114  15.200 -0.3508  0.0838  0.6027
 1072TIP3    H224632   5.835   2.993  15.184 -0.4283  0.1351  0.6454
 1073TIP3   OH224633   6.284   3.017  13.944 -0.4027 -0.3420 -0.0855
 1073TIP3    H124634   6.255   3.076  14.014  1.7296 -0.7125  1.1843
 1073TIP3    H224635   6.206   2.965  13.924 -1.2942  0.3220  1.4521
 1074TIP3   OH224636   4.185   2.610   1.821 -0.0916  0.5574 -0.7559
 1074TIP3    H124637   4.206   2.538   1.881 -2.2943  0.4216 -0.0407
 1074TIP3    H224638   4.269   2.652   1.803  1.0395 -1.2107  0.0720
 1075TIP3   OH224639   1.320   6.310   4.197  0.0656 -0.1761  0.3694
 1075TIP3    H124640   1.304   6.392   4.243  0.3489 -0.1092  0.3523
 1075TIP3    H224641   1.411   6.288   4.219  0.1753 -0.1934 -0.0766
 1076TIP3   OH224642   3.121   3.679   6.498 -0.1607 -0.2417  0.6316
 1076TIP3    H124643   3.058   3.628   6.549 -0.1852  0.1035  0.9509
 1076TIP3    H224644   3.207   3.644   6.525 -0.2169 -0.7755  0.1257
 1077TIP3   OH224645   3.204   1.671  16.031  0.1816 -0.0262  0.0829
 1077TIP3    H124646   3.295   1.699  16.042 -0.0581  0.4040  1.1055
 1077TIP3    H224647   3.153   1.751  16.038 -0.3194 -0.3408  0.0671
 1078TIP3   OH224648   3.934   3.521  15.838 -0.0643 -0.0897  0.6452
 1078TIP3    H124649   3.869   3.591  15.832 -1.3884 -1.2614  0.7894
 1078TIP3    H224650   3.975   3.519  15.751  0.1790  1.0049  0.7146
 1079TIP3   OH224651   4.850   3.043   1.760  0.6225  0.4390 -0.1487
 1079TIP3    H124652   4.819   3.065   1.848 -1.2721  0.5511 -0.8008
 1079TIP3    H224653   4.808   2.959   1.739  0.6925  0.6283 -1.1169
 1080TIP3   OH224654   0.699   6.021  15.585  0.7604  0.1301 -0.4203
 1080TIP3    H124655   0.624   6.079  15.573  2.6586  2.4765 -1.7507
 1080TIP3    H224656   0.714   6.020  15.680 -0.2962  0.4420 -0.2363
 1081TIP3   OH224657   2.794   6.340   4.815 -0.1708  0.2357 -0.2537
 1081TIP3    H124658   2.855   6.414   4.819  0.4398 -0.2280 -0.7915
 1081TIP3    H224659   2.743   6.357   4.736 -1.3502  1.0700  0.6470
 1082TIP3   OH224660   5.992   5.884   4.816  0.4696  0.0962 -0.5374
 1082TIP3    H124661   5.944   5.878   4.733 -0.5787 -2.5375  0.1584
 1082TIP3    H224662   5.931   5.929   4.875  1.2886  2.1408 -1.1665
 1083TIP3   OH224663   6.467   4.938  15.725  0.3418 -0.1742 -0.0167
 1083TIP3    H124664   6.481   5.018  15.775  0.4628 -0.3993  0.3104
 1083TIP3    H224665   6.373   4.924  15.727  0.0299  1.2262 -2.0436
 1084TIP3   OH224666   0.893   1.920  13.031  0.0730 -0.0247 -0.1922
 1084TIP3    H124667   0.923   1.976  12.959  0.1693 -0.5545 -0.5705
 1084TIP3    H224668   0.798   1.926  13.028  0.0299 -0.9493 -1.1087
 1085TIP3   OH224669   3.886   0.861   0.364  0.4611 -0.0516  0.8941
 1085TIP3    H124670   3.980   0.877   0.364  0.1282  2.2828  0.9155
 1085TIP3    H224671   3.848   0.943   0.397 -1.6176 -0.5486 -0.1000
 1086TIP3   OH224672   6.752   3.930  14.127 -0.3854  0.3360  0.3878
 1086TIP3    H124673   6.804   4.003  14.095 -1.1679  0.9485  0.4925
 1086TIP3    H224674   6.676   3.970  14.168 -0.7692 -0.5344  0.5564
 1087TIP3   OH224675   0.653   4.821  14.287 -0.0063 -0.0773 -0.1908
 1087TIP3    H124676   0.682   4.762  14.217  0.4403 -1.1772  0.8750
 1087TIP3    H224677   0.621   4.762  14.356  0.6452  0.9018  0.9918
 1088TIP3   OH224678   2.979   3.280   2.599 -0.2842 -0.4480 -0.1464
 1088TIP3    H124679   2.909   3.221   2.624 -0.5457  0.3211  1.0133
 1088TIP3    H224680   2.964   3.298   2.506 -2.1449  0.3842  0.2707
 1089TIP3   OH224681   1.849   0.262  15.134 -0.2201  0.1498 -0.2869
 1089TIP3    H124682   1.805   0.319  15.072 -0.0130  0.0451 -0.5346
 1089TIP3    H224683   1.909   0.210  15.081  1.1630  1.2025  0.1903
 1090TIP3   OH224684   0.402   3.734   2.642 -0.3383 -0.4522  0.5210
 1090TIP3    H124685   0.353   3.776   2.713 -0.2869 -1.1082  0.9516
 1090TIP3    H224686   0.494   3.754   2.661 -0.3558 -0.1708  0.3299
 1091TIP3   OH224687   5.968   4.946   1.396  0.4711 -0.0195  0.0840
 1091TIP3    H124688   6.010   4.953   1.481  1.7250 -1.8184 -0.3199
 1091TIP3    H224689   5.964   4.852   1.379  2.3529  0.2833 -2.7689
 1092TIP3   OH224690   0.361   2.982   0.319 -0.3067  1.1664  0.1058
 1092TIP3    H124691   0.433   2.923   0.340 -0.7449  0.8752  0.8192
 1092TIP3    H224692   0.292   2.960   0.382 -0.0738  3.2045  1.1592
 1093TIP3   OH224693   3.535   5.639  11.499 -0.1594  0.1215  0.4785
 1093TIP3    H124694   3.548   5.643  11.405 -1.2805  0.9148  0.3297
 1093TIP3    H224695   3.611   5.591  11.533  0.6139  0.4557 -0.7389
 1094TIP3   OH224696   6.108   4.206  12.031 -0.3262 -0.0705  0.5781
 1094TIP3    H124697   6.158   4.170  11.957  1.1369 -0.0474  1.5086
 1094TIP3    H224698   6.019   4.215  11.998  0.2328 -0.3272 -1.0935
 1095TIP3   OH224699   4.823   4.554   4.280 -0.1355 -0.5739  0.3409
 1095TIP3    H124700   4.830   4.512   4.194 -1.7838 -0.9849  0.3777
 1095TIP3    H224701   4.850   4.644   4.265 -0.7865 -0.5387 -0.7075
 1096TIP3   OH224702   1.481   4.170   2.976  0.2100  0.0831 -0.4775
 1096TIP3    H124703   1.487   4.140   3.066 -0.3152 -1.5337 -0.9454
 1096TIP3    H224704   1.387   4.171   2.957  0.3234  0.1838 -1.0712
 1097TIP3   OH224705   2.669   3.556  12.017 -0.0991  0.1175 -0.6480
 1097TIP3    H124706   2.587   3.518  12.051 -0.1454 -0.6090 -1.5376
 1097TIP3    H224707   2.643   3.639  11.978 -0.2449  0.3625 -0.0491
 1098TIP3   OH224708   1.626   1.454   2.142  0.2711  0.4017  0.5581
 1098TIP3    H124709   1.595   1.512   2.072  0.4491  0.4523  0.5183
 1098TIP3    H224710   1.693   1.400   2.100 -0.1902 -0.1191  0.4964
 1099TIP3   OH224711   4.454   4.453  15.606  0.0251 -0.4252  0.3094
 1099TIP3    H124712   4.523   4.391  15.584 -0.5313 -0.7149 -0.6519
 1099TIP3    H224713   4.461   4.463  15.701  3.2042  1.6732  0.0450
 1100TIP3   OH224714   6.399   6.572   2.873  0.3873  0.4211  0.0389
 1100TIP3    H124715   6.483   6.610   2.901  0.1091  0.6134  0.6393
 1100TIP3    H224716   6.422   6.489   2.833  0.6143 -1.5032  3.7694
 1101TIP3   OH224717   1.063   0.610   3.611 -0.0916  0.0540 -0.6097
 1101TIP3    H124718   0.970   0.604   3.635 -0.4399 -0.2722 -1.9545
 1101TIP3    H224719   1.062   0.626   3.517  1.2323 -0.4411 -0.7196
 1102TIP3   OH224720   4.891   4.233  12.588  0.8722  0.2099  0.2334
 1102TIP3    H124721   4.874   4.145  12.623  0.5578  0.2298  0.1288
 1102TIP3    H224722   4.852   4.233  12.501  0.8209  0.4726  0.2552
 1103TIP3   OH224723   4.235   4.055  16.777 -0.0311 -0.4426 -0.4365
 1103TIP3    H124724   4.227   3.979  16.835 -0.3321 -1.3356 -1.5939
 1103TIP3    H224725   4.327   4.080  16.784 -0.1337 -0.3145  0.6657
 1104TIP3   OH224726   4.021   3.108   3.253 -0.0363 -0.4376  0.3758
 1104TIP3    H124727   3.945   3.103   3.195  0.4810  0.0195 -0.3611
 1104TIP3    H224728   4.096   3.116   3.194  0.8235 -3.0791  0.9702
 1105TIP3   OH224729   2.460   6.091   5.577  0.1461 -0.3903 -0.2040
 1105TIP3    H124730   2.450   6.009   5.529 -0.6221 -0.4055 -0.0397
 1105TIP3    H224731   2.374   6.133   5.570  0.1583 -0.1822  0.7627
 1106TIP3   OH224732   4.470   0.362  14.168  0.2954 -0.5623  0.0796
 1106TIP3    H124733   4.454   0.300  14.097  1.6527 -2.4628  1.3253
 1106TIP3    H224734   4.524   0.430  14.129  0.7379 -1.4011 -0.8046
 1107TIP3   OH224735   4.011   0.816  14.816 -0.2035 -0.0833 -0.3219
 1107TIP3    H124736   4.039   0.901  14.848  1.0015 -0.5721  0.0019
 1107TIP3    H224737   4.008   0.760  14.893 -0.5946 -0.4302 -0.5826
 1108TIP3   OH224738   2.405   2.347   5.557  0.7839  0.5999  0.1430
 1108TIP3    H124739   2.451   2.265   5.577 -0.0238  0.0820 -0.0446
 1108TIP3    H224740   2.402   2.394   5.640  1.4538  0.5398  0.2033
 1109TIP3   OH224741   1.021   4.454   0.183  0.0534  0.0678 -0.5910
 1109TIP3    H124742   1.020   4.465   0.088 -0.1136  0.9432 -0.4944
 1109TIP3    H224743   1.044   4.362   0.196 -3.2607 -1.0702 -1.5593
 1110TIP3   OH224744   3.826   4.485   0.330  0.0642 -0.4433  0.0306
 1110TIP3    H124745   3.829   4.400   0.373 -0.6222  0.0026  0.9806
 1110TIP3    H224746   3.760   4.535   0.378 -2.0777 -0.5106 -2.6226
 1111TIP3   OH224747   2.528   2.182   3.068 -0.4114 -0.0747 -0.0293
 1111TIP3    H124748   2.524   2.227   2.984 -0.6385  1.7983  0.9292
 1111TIP3    H224749   2.439   2.150   3.083 -1.3713  2.8182  1.1032
 1112TIP3   OH224750   5.763   0.727  15.995  0.0477  0.2369 -0.9522
 1112TIP3    H124751   5.803   0.762  16.074 -2.1060  0.5304  0.0655
 1112TIP3    H224752   5.721   0.645  16.023 -1.5072  0.7894 -1.5322
 1113TIP3   OH224753   5.269   3.316   4.905 -0.6272 -0.2271 -0.4370
 1113TIP3    H124754   5.256   3.389   4.845  0.3835 -0.1137 -0.5325
 1113TIP3    H224755   5.196   3.257   4.886 -0.0423 -0.4573 -2.2008
 1114TIP3   OH224756   4.578   1.581   2.904 -0.3081 -0.4040  0.4004
 1114TIP3    H124757   4.595   1.652   2.965 -0.5636 -0.1584  0.1900
 1114TIP3    H224758   4.558   1.505   2.959 -0.4315 -0.2100  0.6196
 1115TIP3   OH224759   1.687   3.240   0.001 -0.2119  0.1949 -0.0680
 1115TIP3    H124760   1.763   3.264  -0.051 -0.3608  1.1912  0.1605
 1115TIP3    H224761   1.704   3.278   0.087 -0.2101 -0.9874  0.4693
 1116TIP3   OH224762   2.455   0.805  15.860  0.1037  0.0132  0.8376
 1116TIP3    H124763   2.364   0.776  15.868 -0.6730  1.9872 -0.2944
 1116TIP3    H224764   2.478   0.835  15.948 -0.9868  1.2153  0.7421
 1117TIP3   OH224765   3.815   1.177   3.053  0.1020 -0.0515 -0.2475
 1117TIP3    H124766   3.869   1.255   3.053 -0.4664  0.3705 -1.5701
 1117TIP3    H224767   3.865   1.112   3.004 -0.7864  0.5214 -1.9875
 1118TIP3   OH224768   5.782   2.844  13.072  0.5557 -0.2071 -0.0404
 1118TIP3    H124769   5.845   2.812  13.007  0.8776 -0.3900  0.3579
 1118TIP3    H224770   5.760   2.767  13.124 -1.1665 -0.4765 -1.1231
 1119TIP3   OH224771   2.121   4.667   0.334  0.0167 -0.2956  0.2076
 1119TIP3    H124772   2.093   4.645   0.245  0.5703 -0.9028  0.1757
 1119TIP3    H224773   2.181   4.741   0.322  0.3889 -0.6181  0.0287
 1120TIP3   OH224774   6.386   4.210  11.450  0.7531  0.7315 -0.5149
 1120TIP3    H124775   6.382   4.118  11.426  1.7237  0.8610 -1.2513
 1120TIP3    H224776   6.304   4.247  11.418  0.1120  0.0249  0.2720
 1121TIP3   OH224777   4.780   2.483  12.843 -0.2079  0.0997 -0.0341
 1121TIP3    H124778   4.778   2.492  12.747  0.1396  0.6178  0.0060
 1121TIP3    H224779   4.687   2.478  12.868 -0.3028 -1.8531 -0.5517
 1122TIP3   OH224780   0.666   0.440  16.835 -0.0642 -0.6128  0.6698
 1122TIP3    H124781   0.583   0.394  16.822 -1.0557  1.3132 -0.1281
 1122TIP3    H224782   0.641   0.527  16.865  1.5984  0.5107 -0.9876
 1123TIP3   OH224783   4.970   2.838   4.194 -0.0945 -0.5495  0.0653
 1123TIP3    H124784   4.993   2.746   4.206 -0.0338 -0.5220  0.1632
 1123TIP3    H224785   4.992   2.857   4.102 -0.4957 -0.7423 -0.0726
 1124TIP3   OH224786   5.760   6.150   3.403  0.4736  0.3432  0.1570
 1124TIP3    H124787   5.850   6.120   3.395  0.5921  0.5523  0.6434
 1124TIP3    H224788   5.763   6.217   3.472 -0.3490 -0.9648  1.5438
 1125TIP3   OH224789   6.741   0.123  10.785  0.5046 -0.4497 -0.4904
 1125TIP3    H124790   6.774   0.125  10.695  1.8318  2.1826 -0.0383
 1125TIP3    H224791   6.747   0.214  10.815 -1.9086 -0.8583  1.5871
 1126TIP3   OH224792   0.284   1.409   4.851 -0.0485 -0.3885 -0.7118
 1126TIP3    H124793   0.351   1.341   4.851  0.9571  0.5793 -0.6746
 1126TIP3    H224794   0.332   1.491   4.838 -1.1458  0.3993 -0.0288
 1127TIP3   OH224795   6.401   5.885  12.853  0.5990  0.0180  0.3793
 1127TIP3    H124796   6.444   5.838  12.782 -1.6059 -0.3602 -0.7879
 1127TIP3    H224797   6.377   5.817  12.916 -1.2950 -0.3172 -0.6254
 1128TIP3   OH224798   0.843   4.929   3.250 -0.5846 -0.1450 -0.1646
 1128TIP3    H124799   0.852   5.021   3.277 -2.8871  0.5490 -1.4616
 1128TIP3    H224800   0.918   4.885   3.290  1.3652  2.5322 -0.5955
 1129TIP3   OH224801   6.392   1.007  10.772  0.1335  0.0370  0.5109
 1129TIP3    H124802   6.349   1.072  10.716  1.0033 -1.3559 -1.9139
 1129TIP3    H224803   6.392   0.926  10.720  1.6342 -1.1745  2.2544
 1130TIP3   OH224804   1.012   1.011   2.082  0.4497  0.2561  0.0197
 1130TIP3    H124805   0.980   0.938   2.028  0.6095  1.0974 -1.2657
 1130TIP3    H224806   1.106   1.014   2.064  0.6879 -0.0679  1.1438
 1131TIP3   OH224807   1.374   1.710   0.262  0.2295  0.1281  0.2321
 1131TIP3    H124808   1.326   1.627   0.256 -0.6720  0.4343  2.3688
 1131TIP3    H224809   1.312   1.776   0.233 -0.0128  0.3190  1.1501
 1132TIP3   OH224810   1.268   2.961   5.904 -0.1791 -0.4356  0.0181
 1132TIP3    H124811   1.245   2.981   5.995  2.6150  1.1638  0.4958
 1132TIP3    H224812   1.228   3.032   5.853 -0.1806 -0.2867  0.2269
 1133TIP3   OH224813   1.469   5.055  11.986 -0.2004 -0.4153  0.0308
 1133TIP3    H124814   1.486   5.021  12.074 -0.3889 -2.1006 -0.5407
 1133TIP3    H224815   1.374   5.062  11.982 -0.1344  1.0754  0.4259
 1134TIP3   OH224816   2.409   1.508  16.619 -0.6122 -0.1499 -0.0660
 1134TIP3    H124817   2.354   1.581  16.592  1.7503  1.8560  0.1977
 1134TIP3    H224818   2.397   1.502  16.714  0.9754  1.5845  0.3029
 1135TIP3   OH224819   6.500   2.973   3.091 -0.1197  0.3298 -0.9579
 1135TIP3    H124820   6.520   3.014   3.175 -0.0621  0.3547 -0.9831
 1135TIP3    H224821   6.504   2.879   3.108  0.6046  0.3307 -1.0962
 1136TIP3   OH224822   5.007   4.541   0.656 -0.6477  0.4198 -0.7106
 1136TIP3    H124823   5.064   4.614   0.680 -1.3804  0.9493 -0.5681
 1136TIP3    H224824   4.920   4.566   0.688 -0.6426 -1.1717  0.6875
 1137TIP3   OH224825   1.035   3.742   3.029  0.1653 -0.0593 -0.4887
 1137TIP3    H124826   0.947   3.710   3.047  0.3095  0.4824  1.4464
 1137TIP3    H224827   1.089   3.663   3.024  0.0308 -0.3268  1.3238
 1138TIP3   OH224828   2.341   0.255  16.243 -0.2498  0.4401 -0.1704
 1138TIP3    H124829   2.306   0.282  16.328  1.5524  0.1859  0.6940
 1138TIP3    H224830   2.275   0.195  16.208 -2.3854  2.6595 -0.2908
 1139TIP3   OH224831   3.088   6.059  12.654  0.6359  0.2100  0.2833
 1139TIP3    H124832   3.163   6.052  12.712  1.9906 -0.9085 -1.4645
 1139TIP3    H224833   3.012   6.045  12.710  1.7023  1.4627  2.1216
 1140TIP3   OH224834   0.648   2.125   2.726  0.0477 -0.2843 -0.2285
 1140TIP3    H124835   0.734   2.159   2.750 -0.2436 -0.0004  0.4504
 1140TIP3    H224836   0.586   2.190   2.759 -0.4883 -1.1884  0.5918
 1141TIP3   OH224837   6.319   6.778   1.269  0.4814  0.4908 -0.0300
 1141TIP3    H124838   6.283   6.831   1.198  0.0871  1.2788  0.7379
 1141TIP3    H224839   6.285   6.690   1.253  2.3089  0.0627 -2.1552
 1142TIP3   OH224840   0.444   0.173  16.561 -0.3074 -0.0769  0.0773
 1142TIP3    H124841   0.471   0.254  16.518 -1.6511  0.1832 -0.3179
 1142TIP3    H224842   0.424   0.198  16.651 -1.5673  0.2413 -0.2645
 1143TIP3   OH224843   0.737   0.140   5.353  0.5770 -0.3691  0.1079
 1143TIP3    H124844   0.800   0.069   5.366  0.5331 -0.2369  1.1552
 1143TIP3    H224845   0.699   0.124   5.267 -0.5317 -2.4928  0.9339
 1144TIP3   OH224846   6.033   6.543   0.419  0.0895  0.0892 -0.2581
 1144TIP3    H124847   6.007   6.540   0.327  2.2710 -3.7363 -0.9885
 1144TIP3    H224848   5.981   6.475   0.461  0.7837  0.1934  0.8020
 1145TIP3   OH224849   1.331   3.962   6.185  0.1167  0.4767  0.2730
 1145TIP3    H124850   1.380   3.902   6.130 -0.8953  0.3898 -0.5601
 1145TIP3    H224851   1.352   3.935   6.275 -1.5580 -2.2190 -0.0430
 1146TIP3   OH224852   5.574   5.043  14.558  0.6439  0.0014 -0.2678
 1146TIP3    H124853   5.615   5.126  14.584 -2.0922  1.7735 -1.2573
 1146TIP3    H224854   5.629   5.011  14.486  2.5624  0.1128  1.0499
 1147TIP3   OH224855   5.968   6.676  14.060  0.1303  0.3753  0.1844
 1147TIP3    H124856   5.984   6.604  14.120  0.8663 -0.2722 -0.7500
 1147TIP3    H224857   6.045   6.676  14.002 -0.8795  0.4864 -1.2114
 1148TIP3   OH224858   6.300   2.245   3.463 -1.1253  0.1164  0.3878
 1148TIP3    H124859   6.341   2.269   3.380 -0.6633  0.4977  0.7222
 1148TIP3    H224860   6.206   2.243   3.444 -0.9150 -1.6731 -0.6109
 1149TIP3   OH224861   6.164   3.178   3.310  0.5177  0.2371  0.3901
 1149TIP3    H124862   6.081   3.225   3.306  0.5399  0.2373 -0.1707
 1149TIP3    H224863   6.227   3.238   3.270  0.9547  0.5725  1.5428
 1150TIP3   OH224864   0.603   2.558  15.854  0.6096  0.3295 -0.8226
 1150TIP3    H124865   0.597   2.577  15.760  0.2942 -0.0882 -0.8899
 1150TIP3    H224866   0.651   2.475  15.859 -2.1082 -1.3749 -0.8254
 1151TIP3   OH224867   0.517   5.511  14.857  0.0878 -0.5777  0.6733
 1151TIP3    H124868   0.432   5.542  14.889 -0.6970 -1.0475 -0.8331
 1151TIP3    H224869   0.509   5.513  14.762  1.5712 -1.1862  0.5016
 1152TIP3   OH224870   0.898   3.932   0.881  0.2227 -0.2402  0.5792
 1152TIP3    H124871   0.835   3.946   0.811  2.1066 -0.7710 -1.3519
 1152TIP3    H224872   0.846   3.902   0.955 -1.6184 -3.0970 -1.6341
 1153TIP3   OH224873   4.488   3.973   5.080 -0.3946 -0.5740  0.3544
 1153TIP3    H124874   4.439   3.936   5.007 -1.5544  0.1112  0.7585
 1153TIP3    H224875   4.421   4.014   5.135  0.5724 -0.1848  1.2633
 1154TIP3   OH224876   3.114   2.293   0.653  0.2188  0.4947  0.0919
 1154TIP3    H124877   3.056   2.286   0.728  0.9798 -2.9077  0.5471
 1154TIP3    H224878   3.180   2.358   0.679  0.6996 -0.8780  2.6320
 1155TIP3   OH224879   3.331   0.582   5.681 -0.1549 -0.5367  0.1913
 1155TIP3    H124880   3.367   0.599   5.768 -0.6831  0.3184  0.2587
 1155TIP3    H224881   3.255   0.527   5.697  0.9888 -2.2341  0.0600
 1156TIP3   OH224882   6.258   5.291   4.991 -0.3543  0.3772  0.1400
 1156TIP3    H124883   6.260   5.202   4.958  0.7934  0.3653  0.2209
 1156TIP3    H224884   6.240   5.345   4.914 -2.3881  0.0168  0.2899
 1157TIP3   OH224885   0.205   6.309   4.416  0.6698 -0.5862 -0.1287
 1157TIP3    H124886   0.138   6.242   4.430  0.5551 -0.2054  1.2207
 1157TIP3    H224887   0.201   6.326   4.321  0.0378 -1.7766 -0.3354
 1158TIP3   OH224888   0.955   4.188   3.164 -0.1633  0.2166  0.0010
 1158TIP3    H124889   0.992   4.256   3.108  0.1137  0.3802  0.3850
 1158TIP3    H224890   0.930   4.233   3.244  2.6282 -0.5576  1.4303
 1159TIP3   OH224891   1.145   4.915  12.335  0.2702  0.0447 -0.3762
 1159TIP3    H124892   1.051   4.928  12.346  0.4980 -0.1960  2.5239
 1159TIP3    H224893   1.185   4.966  12.406  2.4406  1.1349 -2.2400
 1160TIP3   OH224894   1.407   5.319   2.010  0.1083  0.3850  0.1646
 1160TIP3    H124895   1.456   5.369   2.075  1.1521 -1.4018  0.8238
 1160TIP3    H224896   1.345   5.267   2.061 -1.4085  1.4386 -0.5515
 1161TIP3   OH224897   0.926   4.837   0.074  0.2886 -0.1041 -0.1479
 1161TIP3    H124898   0.896   4.760   0.026 -1.5200  0.7352 -0.4621
 1161TIP3    H224899   0.909   4.911   0.014 -0.9150  0.8326  1.2676
 1162TIP3   OH224900   4.210   5.301   3.850  0.1232  0.0463  0.6646
 1162TIP3    H124901   4.155   5.269   3.921 -1.8888  1.9078  0.0870
 1162TIP3    H224902   4.197   5.238   3.779 -0.9413  0.2003  0.7039
 1163TIP3   OH224903   0.612   0.783   1.982  0.2403  0.4240  0.4411
 1163TIP3    H124904   0.679   0.727   2.021 -1.3211 -0.8222  1.4279
 1163TIP3    H224905   0.574   0.831   2.056 -0.6225  0.3753  0.0421
 1164TIP3   OH224906   6.318   3.871   1.499  0.1803 -0.5329  0.5148
 1164TIP3    H124907   6.324   3.959   1.461  0.1257 -0.9602 -0.5015
 1164TIP3    H224908   6.271   3.884   1.582 -0.3378  0.3146  0.0980
 1165TIP3   OH224909   3.966   5.022  15.392  0.5238 -0.4492 -0.3985
 1165TIP3    H124910   3.903   5.032  15.463  0.0014 -2.5084 -0.5110
 1165TIP3    H224911   4.041   4.978  15.432  0.2582 -1.5472 -1.0701
 1166TIP3   OH224912   2.152   1.003  14.259  0.3880  0.0083  0.3451
 1166TIP3    H124913   2.243   1.031  14.272  0.1305  1.2100 -0.3453
 1166TIP3    H224914   2.122   1.054  14.184 -0.9289 -0.2267  0.7028
 1167TIP3   OH224915   4.952   2.558  13.183 -0.4835  0.2234  0.2465
 1167TIP3    H124916   5.034   2.568  13.231 -1.2629  1.2899  1.3973
 1167TIP3    H224917   4.979   2.535  13.094  0.9980 -3.6522  1.4810
 1168TIP3   OH224918   3.310   1.142  13.476 -0.0510 -0.1403  0.3231
 1168TIP3    H124919   3.334   1.078  13.543  1.2242  0.4512  0.4773
 1168TIP3    H224920   3.280   1.218  13.526  1.2138  0.4215  0.2645
 1169TIP3   OH224921   3.537   3.658  13.098  0.4337  0.6606 -0.4611
 1169TIP3    H124922   3.503   3.721  13.162 -3.3441 -2.3820  0.9529
 1169TIP3    H224923   3.581   3.592  13.151 -1.8049 -1.3603 -0.9739
 1170TIP3   OH224924   6.679   0.372   3.101 -0.0628  0.0008  0.5055
 1170TIP3    H124925   6.744   0.306   3.127  0.9808  0.9046  0.2552
 1170TIP3    H224926   6.681   0.436   3.172 -0.4968  0.1718  0.3646
 1171TIP3   OH224927   3.449   6.625  13.995  0.5845  0.2709  0.8013
 1171TIP3    H124928   3.378   6.659  13.941 -0.6478 -2.0044  0.8952
 1171TIP3    H224929   3.501   6.571  13.937  1.8818  1.3289  0.9131
 1172TIP3   OH224930   5.964   5.460   5.330  0.1586  0.1105  0.0964
 1172TIP3    H124931   5.881   5.481   5.373  0.0827 -2.6820  1.5129
 1172TIP3    H224932   5.938   5.423   5.245 -0.1469 -1.4719  0.8484
 1173TIP3   OH224933   4.993   4.011   2.781  0.0546  0.3596  0.1069
 1173TIP3    H124934   5.086   4.026   2.766  0.0277  0.8445  0.3950
 1173TIP3    H224935   4.964   4.087   2.831 -0.3648 -0.0732  0.5387
 1174TIP3   OH224936   6.753   2.005   3.389  0.3091 -0.1458  0.0332
 1174TIP3    H124937   6.789   1.934   3.336  0.1875 -0.4089  0.3007
 1174TIP3    H224938   6.757   2.082   3.332  0.4674 -0.3617 -0.2480
 1175TIP3   OH224939   0.372   3.791  16.381  0.3734  0.1134 -0.3418
 1175TIP3    H124940   0.335   3.856  16.441  0.1434 -1.0615  0.8588
 1175TIP3    H224941   0.296   3.751  16.339  0.4533 -0.0324 -0.3487
 1176TIP3   OH224942   3.930   5.439   4.654  0.1621 -0.2169 -0.1414
 1176TIP3    H124943   3.961   5.349   4.653  1.4293  0.1859 -2.0828
 1176TIP3    H224944   3.978   5.480   4.726 -0.7194 -1.1538  1.0127
 1177TIP3   OH224945   4.323   6.668  17.060 -0.4246  0.0409 -0.3240
 1177TIP3    H124946   4.328   6.674  17.155 -0.5660 -1.6272 -0.1908
 1177TIP3    H224947   4.323   6.575  17.041  2.2266  0.2963 -2.1139
 1178TIP3   OH224948   4.506   6.611  14.127 -0.4674  0.4083 -0.0883
 1178TIP3    H124949   4.550   6.587  14.045  1.7535 -0.4701  1.2448
 1178TIP3    H224950   4.574   6.658  14.177 -1.9996  1.5990  0.9582
 1179TIP3   OH224951   0.154   3.800   3.759  0.0843  0.6588 -0.5232
 1179TIP3    H124952   0.235   3.850   3.771 -0.9927  1.9842  1.9930
 1179TIP3    H224953   0.084   3.866   3.763 -1.2186 -0.6729 -0.5358
 1180TIP3   OH224954   6.441   0.661  12.202  0.3033  0.0391 -0.3340
 1180TIP3    H124955   6.410   0.614  12.280  0.3859  0.5096 -0.0133
 1180TIP3    H224956   6.427   0.753  12.223  3.2761  0.4042  0.4640
 1181TIP3   OH224957   5.460   0.395   1.545 -0.5898 -0.0459 -0.2131
 1181TIP3    H124958   5.536   0.448   1.522 -0.9895  1.4794  1.7251
 1181TIP3    H224959   5.388   0.432   1.493 -1.6958  3.9799  3.5804
 1182TIP3   OH224960   0.331   6.455   4.034 -0.6209  0.6462 -0.5251
 1182TIP3    H124961   0.296   6.527   3.981  0.3555  1.2671 -0.3547
 1182TIP3    H224962   0.394   6.412   3.977 -1.9300 -0.7519 -0.9917
 1183TIP3   OH224963   2.106   6.704   0.878 -0.1562  0.5862  0.5773
 1183TIP3    H124964   2.144   6.782   0.920 -0.1149  0.7655  0.2135
 1183TIP3    H224965   2.172   6.678   0.814  0.2167 -0.2614  1.2758
 1184TIP3   OH224966   6.032   4.962  12.194 -0.6596 -0.1297  0.1043
 1184TIP3    H124967   5.991   4.877  12.212 -0.2227 -0.3965 -0.1589
 1184TIP3    H224968   5.974   5.025  12.237 -1.1823 -0.5298  0.0001
 1185TIP3   OH224969   6.475   5.099  16.255  0.4244  0.0270 -0.0779
 1185TIP3    H124970   6.477   5.023  16.313  2.6660 -2.4694 -3.0237
 1185TIP3    H224971   6.544   5.157  16.288  0.1163 -0.2063  1.0072
 1186TIP3   OH224972   4.373   0.702  12.109  0.6054 -0.3711 -0.6420
 1186TIP3    H124973   4.403   0.657  12.030  0.6037 -1.3655 -0.1019
 1186TIP3    H224974   4.430   0.667  12.179  0.0004 -0.2075 -0.0603
 1187TIP3   OH224975   5.605   5.325   0.903  0.0765 -0.1714 -0.5160
 1187TIP3    H124976   5.699   5.306   0.902  0.2600  0.6669 -0.0341
 1187TIP3    H224977   5.594   5.388   0.974 -0.7651  0.1981 -0.9582
 1188TIP3   OH224978   2.860   3.386   2.339 -0.6577  0.6704  0.0842
 1188TIP3    H124979   2.929   3.431   2.291 -0.1065  1.7679  1.8004
 1188TIP3    H224980   2.858   3.298   2.303  2.9100  0.0161  1.1243
 1189TIP3   OH224981   2.487   0.455   2.465  0.4069 -0.3738 -0.0021
 1189TIP3    H124982   2.507   0.389   2.399  1.5715  0.2070 -0.2639
 1189TIP3    H224983   2.407   0.424   2.507 -1.1923 -0.1026 -2.5934
 1190TIP3   OH224984   3.198   1.763   6.505  0.0271  0.2142  0.3196
 1190TIP3    H124985   3.178   1.852   6.474 -1.8957 -0.0155  0.8122
 1190TIP3    H224986   3.152   1.756   6.588  0.0832 -1.2855  0.2378
 1191TIP3   OH224987   2.462   3.902   2.469  0.4145 -0.1910 -0.1052
 1191TIP3    H124988   2.441   3.834   2.533  0.1478 -0.0348 -0.0284
 1191TIP3    H224989   2.380   3.920   2.424  0.4848  0.0789 -0.1271
 1192TIP3   OH224990   1.885   1.356   2.085 -0.1420  0.1118  0.0908
 1192TIP3    H124991   1.956   1.411   2.052 -0.8227  0.4301 -0.9243
 1192TIP3    H224992   1.895   1.273   2.039 -0.4985  0.2084 -0.1721
 1193TIP3   OH224993   2.992   0.580   3.743 -0.5393 -0.1493  0.3838
 1193TIP3    H124994   3.032   0.646   3.687 -2.4171  0.8738  0.1395
 1193TIP3    H224995   3.056   0.563   3.811  1.1759 -0.2812 -1.1847
 1194TIP3   OH224996   3.429   0.427   2.735  0.3417  0.4147 -0.5534
 1194TIP3    H124997   3.423   0.513   2.692  0.7482 -0.2800 -2.0684
 1194TIP3    H224998   3.338   0.397   2.740 -0.2834  2.2971  3.0897
 1195TIP3   OH224999   1.641   5.318   0.258 -0.1001 -0.1096  0.0907
 1195TIP3    H125000   1.554   5.278   0.256 -0.0614 -0.2425  0.6655
 1195TIP3    H225001   1.701   5.245   0.277 -0.2034  0.4114  2.8698
 1196TIP3   OH225002   4.345   1.045  13.951  0.2948  0.0859  0.7746
 1196TIP3    H125003   4.378   1.130  13.980  0.1061  0.0510  1.0920
 1196TIP3    H225004   4.257   1.039  13.989  0.9502 -1.0012  2.1950
 1197TIP3   OH225005   6.326   2.391  14.588 -0.5830 -0.0145 -0.1238
 1197TIP3    H125006   6.252   2.355  14.539 -1.7346 -1.2205  2.3401
 1197TIP3    H225007   6.287   2.450  14.653  0.6629 -0.1033  0.7572
 1198TIP3   OH225008   2.251   3.652  13.452  0.1217 -0.3512  0.4333
 1198TIP3    H125009   2.278   3.567  13.417 -0.1472 -0.8530  1.4063
 1198TIP3    H225010   2.161   3.638  13.482 -1.1764  1.1598 -2.3540
 1199TIP3   OH225011   6.473   4.421  16.283 -0.5231  0.3081  0.3157
 1199TIP3    H125012   6.403   4.468  16.238 -1.4380 -1.0487  0.2642
 1199TIP3    H225013   6.457   4.329  16.264  1.2847 -0.0488  0.3160
 1200TIP3   OH225014   4.131   5.220   1.964 -0.2884  0.2580  0.4632
 1200TIP3    H125015   4.046   5.180   1.984 -0.8948  1.2482 -0.0433
 1200TIP3    H225016   4.113   5.276   1.888  0.6434  1.1103  0.8567
 1201TIP3   OH225017   6.713   0.304   1.954  0.0345 -0.4782 -0.2384
 1201TIP3    H125018   6.695   0.398   1.953  0.3697 -0.3368  1.6332
 1201TIP3    H225019   6.644   0.265   1.901  0.8666  0.9292 -2.4703
 1202TIP3   OH225020   5.060   3.558  14.904 -0.0112 -0.0138  0.0299
 1202TIP3    H125021   5.121   3.605  14.848 -2.6752  0.2899 -2.9361
 1202TIP3    H225022   5.097   3.470  14.912  0.1860 -0.2959 -2.9382
 1203TIP3   OH225023   1.247   2.324   1.189  0.1521 -0.3365  0.4745
 1203TIP3    H125024   1.261   2.333   1.094  0.4458  1.3018  0.6553
 1203TIP3    H225025   1.218   2.233   1.200 -3.1891  0.3368 -1.5767
 1204TIP3   OH225026   3.770   6.104   2.797 -0.1092 -0.4385  0.0896
 1204TIP3    H125027   3.719   6.036   2.841 -0.3359 -0.0707  0.4020
 1204TIP3    H225028   3.849   6.112   2.850 -1.4483  1.7401  1.9453
 1205TIP3   OH225029   4.390   3.162   0.238 -0.1424 -0.8901 -0.0195
 1205TIP3    H125030   4.409   3.171   0.332 -0.9532 -1.2428  0.1915
 1205TIP3    H225031   4.298   3.189   0.230  0.7420  2.1877 -1.2212
 1206TIP3   OH225032   3.714   0.263  11.907 -0.1924  0.0392  0.0374
 1206TIP3    H125033   3.658   0.262  11.830  1.1950 -0.2824 -1.0165
 1206TIP3    H225034   3.681   0.335  11.960 -1.5048 -0.0682 -0.5959
 1207TIP3   OH225035   2.513   2.250  11.055 -0.0858  0.5642 -0.3455
 1207TIP3    H125036   2.547   2.326  11.008  2.8724 -1.6039 -2.0569
 1207TIP3    H225037   2.522   2.274  11.148  1.4362  2.0509 -0.8184
 1208TIP3   OH225038   5.203   3.865  15.998  0.7087 -0.0923  0.1346
 1208TIP3    H125039   5.216   3.772  15.979  1.3312  0.1019 -0.3928
 1208TIP3    H225040   5.151   3.865  16.079  0.5449 -0.8978  0.0395
 1209TIP3   OH225041   1.405   5.266   3.452 -0.2620  0.1742  0.5290
 1209TIP3    H125042   1.381   5.311   3.370 -0.5504 -3.5976 -1.6779
 1209TIP3    H225043   1.501   5.267   3.452 -0.2432 -0.4983 -0.3233
 1210TIP3   OH225044   6.405   1.938   6.488  0.2544  0.2768 -0.1705
 1210TIP3    H125045   6.341   1.904   6.550  1.8076  0.6742  1.7480
 1210TIP3    H225046   6.368   2.022   6.460 -0.5000  0.0646  0.1583
 1211TIP3   OH225047   4.992   0.214   4.744  0.0569  0.2788 -0.4293
 1211TIP3    H125048   5.009   0.147   4.678 -0.5355 -0.8561  0.5258
 1211TIP3    H225049   4.919   0.265   4.709  0.6166  0.5236 -1.2401
 1212TIP3   OH225050   1.583   6.134   3.588 -1.0357 -0.0082  0.1643
 1212TIP3    H125051   1.559   6.218   3.627 -0.0338  0.6602 -0.6174
 1212TIP3    H225052   1.558   6.142   3.496 -1.0365 -0.6168  0.1087
 1213TIP3   OH225053   2.685   2.867  15.834  0.1714 -0.1085 -0.3391
 1213TIP3    H125054   2.689   2.888  15.927 -0.4140 -0.2709 -0.2742
 1213TIP3    H225055   2.591   2.858  15.815  0.1416  1.7035 -1.3335
 1214TIP3   OH225056   2.798   1.918  11.656  0.3950  0.2776 -0.5218
 1214TIP3    H125057   2.882   1.918  11.610  0.3763  1.7781 -0.5980
 1214TIP3    H225058   2.794   2.003  11.699 -0.6600 -0.1624  0.2976
 1215TIP3   OH225059   5.539   3.836  17.294  0.2604 -0.4003  0.1205
 1215TIP3    H125060   5.575   3.921  17.319 -1.6820 -0.0688  2.1043
 1215TIP3    H225061   5.456   3.857  17.250 -0.3164 -1.2493  0.7716
 1216TIP3   OH225062   6.747   1.809  14.331  0.3142 -0.0499  0.7905
 1216TIP3    H125063   6.794   1.775  14.407 -0.6244  0.9303  1.8411
 1216TIP3    H225064   6.690   1.737  14.304  1.0249 -0.5805  0.6786
 1217TIP3   OH225065   3.512   0.642  11.204 -0.1831 -0.2853  0.3080
 1217TIP3    H125066   3.607   0.654  11.206 -0.3063  2.1630 -2.1571
 1217TIP3    H225067   3.483   0.661  11.293  1.5328  0.2543  0.7829
 1218TIP3   OH225068   0.358   2.039  13.371 -0.0521  0.0184  0.2652
 1218TIP3    H125069   0.315   2.064  13.453  1.7246 -0.1587  1.3160
 1218TIP3    H225070   0.449   2.021  13.396  0.5545 -0.0497 -1.7522
 1219TIP3   OH225071   4.230   4.524   5.904  0.0931  0.1162 -0.3084
 1219TIP3    H125072   4.298   4.522   5.972 -0.8889 -0.9416  0.7032
 1219TIP3    H225073   4.182   4.605   5.921 -1.1166 -0.8606  1.3430
 1220TIP3   OH225074   0.246   0.148   0.585  0.3916  0.1377 -0.5086
 1220TIP3    H125075   0.215   0.224   0.636 -1.1663 -2.0862  2.1694
 1220TIP3    H225076   0.206   0.159   0.499 -1.8520  1.1513  0.5739
 1221TIP3   OH225077   1.776   1.512   2.364  0.6400  0.3740  0.4014
 1221TIP3    H125078   1.700   1.496   2.307 -0.0476 -0.6459  1.5440
 1221TIP3    H225079   1.849   1.524   2.304 -0.1339 -0.2727 -0.7090
 1222TIP3   OH225080   4.590   2.175  14.533 -0.8726  0.2865 -0.3026
 1222TIP3    H125081   4.659   2.239  14.515 -0.3050 -0.0175  0.7484
 1222TIP3    H225082   4.625   2.092  14.502 -0.4617  0.0081  0.8667
 1223TIP3   OH225083   2.248   4.729   0.860  0.3031 -0.4144 -0.2403
 1223TIP3    H125084   2.203   4.807   0.892  1.5827  0.0779  0.4171
 1223TIP3    H225085   2.196   4.700   0.785 -0.0965  1.1541 -0.5883
 1224TIP3   OH225086   2.199   0.138   4.019 -0.6605  0.0639 -0.4556
 1224TIP3    H125087   2.210   0.232   4.035 -1.1284  0.3447 -1.6276
 1224TIP3    H225088   2.231   0.096   4.098 -1.0684  1.2458  0.3681
 1225TIP3   OH225089   1.538   5.015   2.654  0.2094 -0.5714 -0.1662
 1225TIP3    H125090   1.488   4.946   2.696  0.4345 -1.2030 -0.9053
 1225TIP3    H225091   1.600   4.969   2.597  3.2459  0.0563  2.3302
 1226TIP3   OH225092   2.771   1.226   5.310 -0.5348  0.4193  0.4635
 1226TIP3    H125093   2.679   1.198   5.305 -0.5481  0.4630  0.4638
 1226TIP3    H225094   2.779   1.291   5.241 -0.4070  0.1429  0.2157
 1227TIP3   OH225095   0.173   3.210   1.104 -0.2384 -0.5643  0.4053
 1227TIP3    H125096   0.105   3.146   1.127  0.6770 -1.2561  1.2882
 1227TIP3    H225097   0.254   3.173   1.141  0.4878  0.6087  0.0355
 1228TIP3   OH225098   0.263   5.861  15.733 -0.2597  0.5209 -0.0546
 1228TIP3    H125099   0.298   5.946  15.761 -1.6872  0.7126  1.2967
 1228TIP3    H225100   0.237   5.875  15.642 -0.2531  1.4528  0.0716
 1229TIP3   OH225101   3.499   1.454  15.809 -0.0214  0.9840  0.3902
 1229TIP3    H125102   3.410   1.428  15.784  0.6382  0.5098 -1.7196
 1229TIP3    H225103   3.534   1.496  15.730  1.1421  2.5178  1.6641
 1230TIP3   OH225104   6.414   0.271  14.064 -0.4925 -0.0105  0.1380
 1230TIP3    H125105   6.442   0.327  13.992 -1.6265 -0.7248 -0.8933
 1230TIP3    H225106   6.337   0.314  14.101 -0.3283 -0.0038  0.4848
 1231TIP3   OH225107   4.946   4.475   5.458  0.0400 -0.3354 -0.4767
 1231TIP3    H125108   4.878   4.443   5.517  0.4423 -0.0995  0.1303
 1231TIP3    H225109   4.899   4.523   5.390 -0.3802  0.1448  0.1429
 1232TIP3   OH225110   1.519   2.209   1.716 -0.2889 -0.1112 -0.3376
 1232TIP3    H125111   1.425   2.193   1.711 -0.6524  1.4116  0.7991
 1232TIP3    H225112   1.547   2.220   1.625 -1.5934  1.2871 -0.6065
 1233TIP3   OH225113   1.667   1.078  11.255  0.1812  0.2875 -0.1106
 1233TIP3    H125114   1.756   1.062  11.284  0.4698  1.0357 -0.5525
 1233TIP3    H225115   1.637   1.152  11.308  0.2891  0.8809 -0.8592
 1234TIP3   OH225116   3.844   1.049  15.088 -0.0178 -0.0557  0.1435
 1234TIP3    H125117   3.910   0.981  15.103  0.3064  0.4412  1.0206
 1234TIP3    H225118   3.889   1.116  15.038 -0.3206 -0.4394 -0.6656
 1235TIP3   OH225119   3.303   2.016   2.709 -0.3206  0.1560  0.0519
 1235TIP3    H125120   3.218   2.050   2.738 -1.0194  0.5164 -2.1951
 1235TIP3    H225121   3.291   1.999   2.615  1.1973 -2.6760  0.2773
 1236TIP3   OH225122   4.281   4.618  12.796 -0.3872  0.4782  0.4067
 1236TIP3    H125123   4.274   4.529  12.830 -0.4136  1.1014  2.1640
 1236TIP3    H225124   4.201   4.630  12.744  0.2838 -0.9506 -1.0178
 1237TIP3   OH225125   6.261   0.478  11.587 -0.0301  0.0487 -0.3583
 1237TIP3    H125126   6.243   0.572  11.583 -1.2011 -0.2022 -3.5355
 1237TIP3    H225127   6.344   0.467  11.541  0.7154 -0.4046  1.0383
 1238TIP3   OH225128   4.383   3.108   5.626  0.0872 -0.2855 -0.1717
 1238TIP3    H125129   4.332   3.122   5.706  1.3775 -0.6160  0.7596
 1238TIP3    H225130   4.356   3.021   5.595  1.1845 -1.1671  1.2134
 1239TIP3   OH225131   0.448   3.648  14.452  0.0080 -0.1586  0.0072
 1239TIP3    H125132   0.408   3.562  14.465 -1.7376  0.4472 -1.1618
 1239TIP3    H225133   0.514   3.633  14.384 -0.9703 -0.3986 -0.9106
 1240TIP3   OH225134   1.798   0.746   5.934 -1.0626  0.0377  0.1691
 1240TIP3    H125135   1.715   0.794   5.937 -1.8617 -1.2774 -0.1351
 1240TIP3    H225136   1.772   0.654   5.942  0.1710 -0.5819 -2.1903
 1241TIP3   OH225137   1.308   5.916  13.026  0.2097  0.2499  0.5585
 1241TIP3    H125138   1.327   5.986  13.089 -3.0373  0.8322  1.0639
 1241TIP3    H225139   1.304   5.836  13.079 -1.6473  0.6073  1.0183
 1242TIP3   OH225140   2.304   3.344   1.284 -0.1837 -0.5912  0.7580
 1242TIP3    H125141   2.364   3.292   1.231  2.5651  2.0119  1.0453
 1242TIP3    H225142   2.236   3.373   1.222 -0.0637 -1.9537 -0.0507
 1243TIP3   OH225143   4.674   0.152  11.548  0.0720  0.2084 -0.2346
 1243TIP3    H125144   4.594   0.202  11.532  0.6170  1.0873 -0.2933
 1243TIP3    H225145   4.741   0.219  11.561  0.9637 -0.5175 -1.0048
 1244TIP3   OH225146   0.944   1.226   2.668  0.7092  0.1094  0.8307
 1244TIP3    H125147   1.032   1.199   2.692  0.2789 -1.6633  0.5364
 1244TIP3    H225148   0.890   1.148   2.680 -0.2348  0.1753 -2.1344
 1245TIP3   OH225149   6.488   1.084  11.008 -0.3320 -0.0050 -0.3974
 1245TIP3    H125150   6.583   1.071  11.010 -0.5336 -1.5585  0.6193
 1245TIP3    H225151   6.463   1.060  10.919  0.0576 -1.1677 -0.2169
 1246TIP3   OH225152   4.047   2.168  13.653  0.2579  0.1322 -0.3688
 1246TIP3    H125153   4.065   2.074  13.651 -1.9089 -0.3786  0.7875
 1246TIP3    H225154   4.038   2.193  13.561  2.2318 -0.4511 -0.7529
 1247TIP3   OH225155   5.235   4.660   1.022 -0.4721 -0.0133  0.2720
 1247TIP3    H125156   5.221   4.755   1.022  0.0786  0.0793 -0.6147
 1247TIP3    H225157   5.256   4.639   1.113  1.1916  1.0023  0.1558
 1248TIP3   OH225158   2.166   0.973   5.054  0.1234 -0.1054  0.3136
 1248TIP3    H125159   2.115   0.898   5.024 -0.3018  1.0733 -2.1953
 1248TIP3    H225160   2.212   1.004   4.975  0.6996  1.9323  1.3617
 1249TIP3   OH225161   2.910   5.118   3.068 -0.2107 -0.7787 -0.0940
 1249TIP3    H125162   2.823   5.093   3.037  0.1944  0.1025 -2.1043
 1249TIP3    H225163   2.900   5.209   3.097 -0.0749 -0.8636  0.2274
 1250TIP3   OH225164   1.247   1.748  12.475 -0.5131  0.5202 -0.1773
 1250TIP3    H125165   1.240   1.806  12.550 -0.1768 -0.3738  0.5680
 1250TIP3    H225166   1.280   1.803  12.405  1.7768  0.8176  1.0465
 1251TIP3   OH225167   6.312   0.944  14.671  0.0234  0.0030 -0.1294
 1251TIP3    H125168   6.265   0.895  14.739  1.7354 -0.6851  0.6159
 1251TIP3    H225169   6.400   0.907  14.671  1.0516  2.2822 -0.3850
 1252TIP3   OH225170   1.169   3.853   5.256  0.1076  0.6754 -0.4172
 1252TIP3    H125171   1.176   3.762   5.226  2.2167  0.1514  1.3338
 1252TIP3    H225172   1.254   3.870   5.298 -0.5060  3.2375 -0.0658
 1253TIP3   OH225173   2.773   4.569  16.295 -0.5848 -0.2204  0.4850
 1253TIP3    H125174   2.864   4.542  16.280 -0.3632  0.3775  0.7489
 1253TIP3    H225175   2.732   4.560  16.210 -0.4149 -1.0055  0.4752
 1254TIP3   OH225176   1.412   4.437  11.657  0.2068  0.2367 -0.6096
 1254TIP3    H125177   1.391   4.344  11.662 -1.2416  0.6309  2.1420
 1254TIP3    H225178   1.492   4.446  11.708  1.5390  0.2656 -2.6002
 1255TIP3   OH225179   5.661   2.238   4.485 -0.6841  0.5086 -0.3274
 1255TIP3    H125180   5.711   2.284   4.418 -0.0547 -2.6462 -2.2140
 1255TIP3    H225181   5.570   2.260   4.467 -0.4485  0.5241 -1.5743
 1256TIP3   OH225182   3.780   6.411  12.215 -0.0501  0.1790 -0.3790
 1256TIP3    H125183   3.810   6.321  12.203  1.2707  0.4534  0.6410
 1256TIP3    H225184   3.757   6.417  12.307 -0.3691  0.8186 -0.4949
 1257TIP3   OH225185   6.732   2.573   3.907  0.1562 -0.4086  0.6974
 1257TIP3    H125186   6.696   2.528   3.984  1.8512 -1.9739  0.6686
 1257TIP3    H225187   6.656   2.599   3.856 -1.0043  0.1106  2.5865
 1258TIP3   OH225188   0.443   1.094   4.421 -0.3556  0.0537  0.1240
 1258TIP3    H125189   0.440   0.998   4.426 -1.1185 -0.0529 -1.7889
 1258TIP3    H225190   0.446   1.122   4.512  0.7457 -1.8092  0.7169
 1259TIP3   OH225191   2.118   1.017  13.781 -0.2164  0.5483 -0.0551
 1259TIP3    H125192   2.161   1.102  13.794 -1.8808  1.5268 -0.6826
 1259TIP3    H225193   2.140   0.992  13.692 -1.9431  1.7063 -0.8644
 1260TIP3   OH225194   3.890   3.398   4.328  0.1423 -0.5847 -0.0548
 1260TIP3    H125195   3.850   3.484   4.318 -3.2425 -2.2862 -3.5106
 1260TIP3    H225196   3.860   3.367   4.414 -1.3248  0.4398 -0.1754
 1261TIP3   OH225197   3.110   4.686   4.941 -0.5336  1.1727 -0.5603
 1261TIP3    H125198   3.099   4.743   5.017 -0.7434  2.2313 -1.3567
 1261TIP3    H225199   3.072   4.603   4.968  3.3951 -0.0409  2.1074
 1262TIP3   OH225200   3.261   1.366  13.872 -0.7372 -0.3923  0.2737
 1262TIP3    H125201   3.259   1.279  13.912  1.3112  0.2347  1.8849
 1262TIP3    H225202   3.322   1.416  13.926 -0.3185  1.4718 -1.7845
 1263TIP3   OH225203   4.970   2.713   0.974 -0.4558  0.1664  0.0346
 1263TIP3    H125204   5.032   2.718   1.047 -0.0036  1.6863 -0.4062
 1263TIP3    H225205   4.901   2.653   1.004  0.0939  0.1997  1.4155
 1264TIP3   OH225206   4.246   1.228   0.010 -0.4270 -0.0525  0.8908
 1264TIP3    H125207   4.172   1.289   0.004 -0.4494 -0.1279  0.3074
 1264TIP3    H225208   4.275   1.217  -0.081 -1.4064 -2.1070  0.7803
 1265TIP3   OH225209   4.668   2.462   1.702 -0.0457 -0.0039  0.4940
 1265TIP3    H125210   4.634   2.381   1.664 -0.7060 -0.8876  2.7933
 1265TIP3    H225211   4.753   2.438   1.739  0.7757  0.9338 -0.7025
 1266TIP3   OH225212   4.484   5.812   4.687 -0.0057 -0.4177 -0.8519
 1266TIP3    H125213   4.578   5.799   4.682  0.4927  1.8909  0.7908
 1266TIP3    H225214   4.467   5.889   4.633 -0.7990 -0.2219 -0.3439
 1267TIP3   OH225215   6.582   6.081   5.044  0.4214  0.3152 -0.4290
 1267TIP3    H125216   6.649   6.067   5.111 -0.1341  1.2117  0.3259
 1267TIP3    H225217   6.609   6.162   5.000 -0.0419  0.5578 -0.2675
 1268TIP3   OH225218   1.296   0.153  14.616  0.4236 -0.0012 -0.2580
 1268TIP3    H125219   1.253   0.237  14.598  2.0999  1.3118  1.4990
 1268TIP3    H225220   1.330   0.124  14.532 -0.9913  0.5802 -1.0598
 1269TIP3   OH225221   6.211   4.889   1.168  0.2655  0.1042  0.5063
 1269TIP3    H125222   6.270   4.950   1.124  0.6733  0.0158  0.9246
 1269TIP3    H225223   6.268   4.835   1.223  0.0205 -1.2084 -0.4749
 1270TIP3   OH225224   0.393   2.078   1.593 -0.0359 -0.1475  0.2612
 1270TIP3    H125225   0.331   2.140   1.553 -1.1544 -0.9391  0.7120
 1270TIP3    H225226   0.343   2.036   1.662  0.5660 -1.8525 -0.3007
 1271TIP3   OH225227   5.908   4.641   5.264  0.0176 -0.0998  0.4875
 1271TIP3    H125228   5.875   4.715   5.213 -1.1364 -0.5891  0.4822
 1271TIP3    H225229   5.999   4.632   5.238  0.0532  1.0613  0.1840
 1272TIP3   OH225230   6.207   5.392  12.026  0.2624  0.3423  0.1727
 1272TIP3    H125231   6.123   5.432  12.003  0.2666  0.4735  0.3865
 1272TIP3    H225232   6.199   5.368  12.119  0.0776 -0.6106 -0.0713
 1273TIP3   OH225233   4.387   5.504   0.017  0.0762  0.0654  0.0026
 1273TIP3    H125234   4.305   5.470   0.053 -0.1020  0.5861  0.0819
 1273TIP3    H225235   4.360   5.576  -0.040  0.6611  1.8706  1.9373
 1274TIP3   OH225236   4.657   0.722   0.850 -0.6818  0.3162  0.1955
 1274TIP3    H125237   4.597   0.650   0.832 -0.8446  0.8334 -1.5426
 1274TIP3    H225238   4.613   0.774   0.917 -1.8070  0.2344 -0.4531
 1275TIP3   OH225239   0.365   5.681   4.011  0.2278 -0.3284 -0.2844
 1275TIP3    H125240   0.366   5.772   3.982 -0.0108 -0.6506 -1.3616
 1275TIP3    H225241   0.457   5.658   4.024  0.3720 -0.2877 -1.2009
 1276TIP3   OH225242   4.338   3.462  12.607 -0.5105  0.3927  0.0723
 1276TIP3    H125243   4.309   3.383  12.654 -0.4591  0.6177  0.4852
 1276TIP3    H225244   4.266   3.481  12.546 -0.8740  0.4794  0.5224
 1277TIP3   OH225245   6.328   4.428  15.417  0.4193 -0.1781  0.9619
 1277TIP3    H125246   6.244   4.412  15.373  0.6168  0.9053  0.1473
 1277TIP3    H225247   6.377   4.347  15.405  0.1782 -0.1727 -0.1742
 1278TIP3   OH225248   0.587   4.339   4.063 -0.2645  0.2910 -0.1040
 1278TIP3    H125249   0.507   4.347   4.116  0.4679 -0.1103  1.1213
 1278TIP3    H225250   0.580   4.254   4.021 -0.0609 -0.1615  0.7582
 1279TIP3   OH225251   3.447   5.058  13.463 -0.3197  0.6578 -0.4874
 1279TIP3    H125252   3.373   5.028  13.515  0.2482 -0.0378 -0.0505
 1279TIP3    H225253   3.524   5.034  13.516  0.2921 -0.2801 -1.7433
 1280TIP3   OH225254   3.633   5.299   0.949 -0.3058  0.2655  0.6056
 1280TIP3    H125255   3.667   5.326   0.864 -1.8777 -2.2488 -0.9724
 1280TIP3    H225256   3.708   5.259   0.993 -0.1521 -1.3470 -1.0186
 1281TIP3   OH225257   3.863   5.824  16.661  0.5355 -0.4296 -0.2456
 1281TIP3    H125258   3.801   5.855  16.727  2.4643  0.2730  1.3226
 1281TIP3    H225259   3.819   5.750  16.620 -0.8113 -0.7765  1.7050
 1282TIP3   OH225260   3.414   4.828   0.067  0.3857  0.3816  0.5757
 1282TIP3    H125261   3.415   4.879  -0.014 -1.1784  4.1881  2.6563
 1282TIP3    H225262   3.501   4.840   0.104  0.8658 -0.7581 -0.1270
 1283TIP3   OH225263   6.311   2.684  15.318  0.0532  0.7921  0.2866
 1283TIP3    H125264   6.394   2.700  15.362  0.9449 -1.2287 -0.5064
 1283TIP3    H225265   6.336   2.640  15.236 -1.7910 -0.4977  0.3523
 1284TIP3   OH225266   3.380   3.707  15.203  0.0212 -0.5427 -0.0095
 1284TIP3    H125267   3.389   3.615  15.226 -0.7466 -0.7624 -0.5515
 1284TIP3    H225268   3.452   3.724  15.142  1.7387 -0.0962  2.0476
 1285TIP3   OH225269   2.739   1.438   3.727  0.1124  0.0409 -0.2277
 1285TIP3    H125270   2.725   1.483   3.810  0.7989  0.2478 -0.2123
 1285TIP3    H225271   2.720   1.503   3.660  0.6629  0.2225 -0.2120
 1286TIP3   OH225272   3.141   3.626  15.971 -0.0940  0.2378  0.1524
 1286TIP3    H125273   3.188   3.673  15.903 -0.1027 -0.5810 -0.4342
 1286TIP3    H225274   3.057   3.672  15.978  0.5392  1.3269  0.7804
 1287TIP3   OH225275   0.164   5.588  14.392 -0.2044  0.5632 -0.2661
 1287TIP3    H125276   0.188   5.540  14.472  1.6800 -0.7010 -1.5010
 1287TIP3    H225277   0.228   5.660  14.388  0.3591  0.0318 -1.1162
 1288TIP3   OH225278   3.169   1.523  10.879 -0.2064  0.0424 -0.1529
 1288TIP3    H125279   3.253   1.477  10.879 -0.6238 -0.7448  0.5288
 1288TIP3    H225280   3.191   1.612  10.854  1.0344  0.1800  1.2370
 1289TIP3   OH225281   2.546   1.676  11.607  0.6358 -0.6298 -0.2358
 1289TIP3    H125282   2.566   1.745  11.671  1.0137 -0.2874 -0.7199
 1289TIP3    H225283   2.580   1.596  11.647  1.1507 -0.3681 -0.1507
 1290TIP3   OH225284   0.399   1.313   1.558  0.2083 -0.0740  0.0620
 1290TIP3    H125285   0.351   1.249   1.505  1.7338  0.4935 -2.1988
 1290TIP3    H225286   0.343   1.390   1.559  1.0150  0.6994 -2.8187
 1291TIP3   OH225287   4.486   3.759   5.623 -0.7968  0.7190 -0.5341
 1291TIP3    H125288   4.466   3.772   5.716  0.3170 -1.6969  0.1217
 1291TIP3    H225289   4.411   3.710   5.589 -1.2111  1.6140 -0.9548
 1292TIP3   OH225290   2.134   2.536  13.269  0.0343  0.7802  0.1974
 1292TIP3    H125291   2.085   2.476  13.212 -0.9829  0.0168  1.8120
 1292TIP3    H225292   2.222   2.539  13.230 -0.1747 -0.9981 -0.5060
 1293TIP3   OH225293   0.170   0.714   3.265  0.3415  0.0633  0.7234
 1293TIP3    H125294   0.106   0.645   3.249 -0.0026  0.6030 -0.2970
 1293TIP3    H225295   0.117   0.792   3.283  0.6954  0.5926 -0.4421
 1294TIP3   OH225296   3.793   0.565  11.554  0.1123  0.3360  0.3726
 1294TIP3    H125297   3.726   0.567  11.622 -0.6798 -0.6417 -0.3519
 1294TIP3    H225298   3.753   0.516  11.482  2.2365 -2.0222  0.6456
 1295TIP3   OH225299   1.097   3.965   5.895  0.6913 -0.0974  0.4734
 1295TIP3    H125300   1.066   3.971   5.805  0.9859  0.1094  0.3848
 1295TIP3    H225301   1.171   3.904   5.891  0.4313 -0.4249  0.6479
 1296TIP3   OH225302   6.172   1.747  16.892 -0.9964  0.0521  0.8741
 1296TIP3    H125303   6.146   1.662  16.857 -1.4006 -0.0688  1.4649
 1296TIP3    H225304   6.191   1.731  16.984  0.6948  0.2314  0.5952
 1297TIP3   OH225305   4.280   2.351   0.417 -0.1598 -0.3315 -0.0461
 1297TIP3    H125306   4.338   2.419   0.451 -0.9221  0.8798 -1.0423
 1297TIP3    H225307   4.338   2.278   0.395  0.8086  0.3636  0.1475
 1298TIP3   OH225308   6.452   4.582  16.502  0.4211 -0.4010  0.0966
 1298TIP3    H125309   6.407   4.506  16.540 -0.0862 -1.5193 -2.5491
 1298TIP3    H225310   6.443   4.571  16.408 -0.7326  3.5953 -0.4479
 1299TIP3   OH225311   4.801   6.596  16.827 -0.2941  0.4626 -0.2095
 1299TIP3    H125312   4.775   6.586  16.918  0.4592  0.2540 -0.0050
 1299TIP3    H225313   4.740   6.660  16.791 -0.3319  0.8659  0.5552
 1300TIP3   OH225314   0.435   3.005  10.878  0.3112  0.5408 -0.1210
 1300TIP3    H125315   0.462   2.926  10.925  2.0643  0.9948 -0.2971
 1300TIP3    H225316   0.445   3.076  10.941  1.9880  1.0537 -0.9068
 1301TIP3   OH225317   2.548   4.507  10.967 -0.1602 -0.4602 -0.4952
 1301TIP3    H125318   2.635   4.546  10.971 -0.1778 -0.0489 -2.7948
 1301TIP3    H225319   2.490   4.580  10.949 -1.0032 -0.7448  0.9450
 1302TIP3   OH225320   3.087   0.417   0.420 -0.3828 -0.0251 -0.0937
 1302TIP3    H125321   3.097   0.383   0.509 -0.1219 -0.3505 -0.2446
 1302TIP3    H225322   3.094   0.340   0.364 -2.1990 -0.0819 -0.3192
 1303TIP3   OH225323   5.217   4.803   0.394 -0.1958  0.2537 -1.0156
 1303TIP3    H125324   5.273   4.837   0.325  0.2490  0.0993 -0.7325
 1303TIP3    H225325   5.272   4.739   0.440 -1.7542 -2.9754 -3.2044
 1304TIP3   OH225326   2.280   0.433   2.253 -0.3048  0.3460  0.2650
 1304TIP3    H125327   2.363   0.430   2.206 -0.2563  0.2426  0.3596
 1304TIP3    H225328   2.299   0.478   2.335 -0.0859 -0.7364  0.8170
 1305TIP3   OH225329   0.411   5.905  11.366 -0.3842  0.3009  0.5869
 1305TIP3    H125330   0.347   5.873  11.302 -1.0873  0.7556  1.0454
 1305TIP3    H225331   0.385   5.864  11.449 -0.7086  1.2858  0.9825
 1306TIP3   OH225332   2.767   0.971  12.569  0.0361 -0.7747  0.4934
 1306TIP3    H125333   2.854   0.992  12.604  0.6714 -1.4941 -0.6172
 1306TIP3    H225334   2.776   0.982  12.475 -1.1490 -0.6576  0.3796
 1307TIP3   OH225335   0.187   6.068  14.326  0.7547 -0.2152 -0.4660
 1307TIP3    H125336   0.203   6.123  14.249  2.9097 -0.0794  0.0211
 1307TIP3    H225337   0.195   5.978  14.293 -1.0196 -0.2578 -0.8989
 1308TIP3   OH225338   2.131   5.419  12.004 -0.0496  1.0463  0.2909
 1308TIP3    H125339   2.210   5.397  12.054  0.3721  1.0615 -0.3567
 1308TIP3    H225340   2.159   5.415  11.912 -1.9450 -3.8824 -0.3725
 1309TIP3   OH225341   1.157   0.213   1.805  0.6485  0.5347  0.0335
 1309TIP3    H125342   1.241   0.208   1.758 -0.4793  2.8009 -2.4530
 1309TIP3    H225343   1.100   0.264   1.747 -2.3198 -0.4472  1.8906
 1310TIP3   OH225344   5.732   5.182  13.876 -0.0199  0.7038 -0.3533
 1310TIP3    H125345   5.763   5.092  13.874 -1.6253 -0.1059  2.8565
 1310TIP3    H225346   5.809   5.234  13.899  0.6672  0.0031 -1.0296
 1311TIP3   OH225347   1.911   5.525  14.865 -0.7076  0.4933  0.1147
 1311TIP3    H125348   1.837   5.530  14.926 -1.2128 -0.5077 -0.4068
 1311TIP3    H225349   1.961   5.449  14.893 -1.0596 -0.1055 -0.8342
 1312TIP3   OH225350   6.152   6.602   1.498 -0.0500 -0.1156 -0.1942
 1312TIP3    H125351   6.184   6.554   1.421  1.1866  1.2696 -0.6085
 1312TIP3    H225352   6.192   6.558   1.572  2.3605  1.1025 -0.6604
 1313TIP3   OH225353   5.042   6.282  12.733 -0.5068 -0.3428  0.1078
 1313TIP3    H125354   5.073   6.307  12.646 -0.6840 -0.9789 -0.1470
 1313TIP3    H225355   5.121   6.282  12.787 -0.5092  0.8149  0.1423
 1314TIP3   OH225356   2.169   0.368  15.758  0.0328 -0.1535 -0.0034
 1314TIP3    H125357   2.184   0.282  15.719  1.4921  0.1410 -0.1489
 1314TIP3    H225358   2.074   0.381  15.753 -0.4233 -2.4182  1.4781
 1315TIP3   OH225359   3.121   6.053   4.951  0.3061 -0.8853  0.1320
 1315TIP3    H125360   3.115   6.026   5.043 -4.2294 -0.5373  0.1619
 1315TIP3    H225361   3.126   5.970   4.903  2.7284 -1.0702  0.5818
 1316TIP3   OH225362   2.005   3.296   3.784 -0.0559 -0.6654  0.5427
 1316TIP3    H125363   1.924   3.286   3.734  0.0452  0.7545  0.0491
 1316TIP3    H225364   2.059   3.221   3.758 -1.0558 -1.4249  0.6026
 1317TIP3   OH225365   5.914   5.155   5.307 -0.2255  0.4658 -0.0416
 1317TIP3    H125366   5.916   5.202   5.223  1.8282 -0.7586 -0.7685
 1317TIP3    H225367   5.870   5.073   5.287 -0.3526  0.4626  0.2556
 1318TIP3   OH225368   3.868   3.205  14.936  0.0430  0.6278  0.0775
 1318TIP3    H125369   3.852   3.293  14.902  0.3128 -0.1645 -2.2665
 1318TIP3    H225370   3.781   3.166  14.945 -0.0042  0.6958 -0.0969
 1319TIP3   OH225371   0.225   5.341  13.503 -0.5200  0.5970 -0.0457
 1319TIP3    H125372   0.134   5.333  13.474 -0.7234  0.3095  0.6658
 1319TIP3    H225373   0.225   5.309  13.593  0.8799 -2.5282 -1.0000
 1320TIP3   OH225374   2.197   3.144  16.435  0.0333  0.3573 -0.0502
 1320TIP3    H125375   2.224   3.184  16.352  0.8789  1.2677  0.6433
 1320TIP3    H225376   2.102   3.155  16.436 -0.0024  0.2262 -0.9474
 1321TIP3   OH225377   3.856   2.539  11.344 -0.2014  0.1219  0.4483
 1321TIP3    H125378   3.864   2.536  11.249  1.2936 -0.8172  0.5767
 1321TIP3    H225379   3.946   2.549  11.375 -0.3777 -2.0793  1.8291
 1322TIP3   OH225380   1.580   5.132  17.293 -0.0606  0.0627 -0.1214
 1322TIP3    H125381   1.506   5.118  17.233  0.3176 -1.5639 -0.2315
 1322TIP3    H225382   1.560   5.077  17.369  1.0010 -0.3350 -0.1234
 1323TIP3   OH225383   2.197   4.278  12.516  0.6184 -0.0889  0.4310
 1323TIP3    H125384   2.261   4.230  12.569  1.0093  1.8316  1.8146
 1323TIP3    H225385   2.152   4.210  12.466 -0.2770 -2.1647  3.7452
 1324TIP3   OH225386   0.341   5.664  12.390  0.4828  0.4163  0.4623
 1324TIP3    H125387   0.400   5.687  12.318  0.0742  3.4047  0.9308
 1324TIP3    H225388   0.374   5.714  12.464 -1.5498  0.7328  1.2048
 1325TIP3   OH225389   1.517   5.525  11.025 -0.2260  0.1388  0.0847
 1325TIP3    H125390   1.516   5.620  11.022  1.8604  0.1736 -1.5434
 1325TIP3    H225391   1.605   5.503  11.055 -0.0872 -1.2697 -1.2215
 1326TIP3   OH225392   2.798   1.581   5.909  0.0885 -0.3938 -0.2044
 1326TIP3    H125393   2.806   1.597   6.003  0.7917  0.0074 -0.3300
 1326TIP3    H225394   2.888   1.574   5.877 -0.1317 -0.1943 -0.9027
 1327TIP3   OH225395   3.072   0.054   1.832  0.3438 -0.0651 -0.2256
 1327TIP3    H125396   3.079   0.138   1.877 -1.3966 -0.0507  0.1069
 1327TIP3    H225397   3.082   0.076   1.739  1.6256  0.2377 -0.0329
 1328TIP3   OH225398   3.005   0.888  15.513 -0.0454 -0.1856 -0.0450
 1328TIP3    H125399   2.964   0.802  15.501  1.8284 -1.0585 -0.5868
 1328TIP3    H225400   2.977   0.916  15.600 -3.2389  0.1519 -1.0559
 1329TIP3   OH225401   4.834   2.372   0.432 -0.3266  0.9503  0.3179
 1329TIP3    H125402   4.863   2.445   0.486  1.7774  0.5706 -0.2289
 1329TIP3    H225403   4.802   2.413   0.351 -1.2781  1.3669  0.8850
 1330TIP3   OH225404   2.260   3.274  13.441  0.1247  0.3767  0.2940
 1330TIP3    H125405   2.255   3.315  13.527 -0.1493 -0.1485  0.5278
 1330TIP3    H225406   2.248   3.346  13.379 -0.5338  0.6217  0.7055
 1331TIP3   OH225407   5.429   6.649   3.425 -0.2892  0.0568  0.3505
 1331TIP3    H125408   5.412   6.743   3.422  0.3670  0.1614 -1.0239
 1331TIP3    H225409   5.367   6.611   3.363  1.3417 -0.0506 -1.3074
 1332TIP3   OH225410   2.777   2.783  15.333  0.5202 -0.3911 -0.1551
 1332TIP3    H125411   2.765   2.711  15.395 -2.5571 -0.4897 -0.7176
 1332TIP3    H225412   2.801   2.859  15.388  0.4408 -1.0560  0.8161
 1333TIP3   OH225413   3.000   6.717   4.195  0.5877 -0.2967 -0.5118
 1333TIP3    H125414   3.050   6.685   4.120  1.9369  1.3251 -0.3718
 1333TIP3    H225415   2.915   6.674   4.188  1.6219 -2.2952 -1.3939
 1334TIP3   OH225416   2.526   0.376   3.258  0.3640 -0.1152 -0.4527
 1334TIP3    H125417   2.437   0.352   3.282 -0.2164  1.2461 -1.1602
 1334TIP3    H225418   2.561   0.419   3.337 -0.9552  2.7990 -1.3100
 1335TIP3   OH225419   2.449   1.229  12.755 -0.1286  0.0741 -0.1864
 1335TIP3    H125420   2.516   1.264  12.697  1.0715  0.3777  1.3208
 1335TIP3    H225421   2.414   1.153  12.708 -1.2817  1.9675 -2.5718
 1336TIP3   OH225422   5.052   6.416   5.092  0.2213  0.0930  0.4668
 1336TIP3    H125423   4.992   6.481   5.057  1.9134  1.9612  0.8210
 1336TIP3    H225424   5.126   6.467   5.125  1.7533 -2.0303  0.5596
 1337TIP3   OH225425   1.315   0.947  16.053  0.7274  0.3407  0.3186
 1337TIP3    H125426   1.239   0.966  15.998  1.3541  2.0226 -0.0345
 1337TIP3    H225427   1.377   0.904  15.993  0.8136  0.7680  0.0981
 1338TIP3   OH225428   0.950   5.570  16.235 -1.2829 -0.9218  0.4181
 1338TIP3    H125429   1.035   5.532  16.215 -0.8729 -0.9059  1.9490
 1338TIP3    H225430   0.970   5.657  16.269 -2.0003 -0.4994 -0.2143
 1339TIP3   OH225431   5.061   2.047   1.270  0.4615  0.3400  0.2699
 1339TIP3    H125432   5.031   2.137   1.284 -0.1368 -0.0899  1.9334
 1339TIP3    H225433   5.083   2.015   1.358 -2.4778 -2.2036  0.2347
 1340TIP3   OH225434   4.713   2.177  11.547  0.6305  0.2389  0.4635
 1340TIP3    H125435   4.688   2.092  11.584  1.9247 -0.2380  0.2914
 1340TIP3    H225436   4.717   2.161  11.453 -0.7931  0.9587  0.2526
 1341TIP3   OH225437   3.167   5.345  14.974 -0.3670 -0.9396 -0.6728
 1341TIP3    H125438   3.200   5.408  15.037 -1.3134 -1.2430  0.1550
 1341TIP3    H225439   3.239   5.331  14.913  0.9285 -1.3818  0.9083
 1342TIP3   OH225440   1.876   3.411  13.561  0.2309 -0.5620 -0.0389
 1342TIP3    H125441   1.935   3.485  13.573 -1.8675  0.9532  1.7917
 1342TIP3    H225442   1.835   3.399  13.647 -1.8535 -1.7216 -1.1247
 1343TIP3   OH225443   3.249   5.339   2.212  0.6181  0.4523  0.5206
 1343TIP3    H125444   3.237   5.300   2.126 -2.5942 -0.1575  1.1181
 1343TIP3    H225445   3.292   5.271   2.264  2.6166  0.8430 -0.5292
 1344TIP3   OH225446   1.272   0.674  16.180 -0.7341 -0.3236  0.2816
 1344TIP3    H125447   1.221   0.652  16.102  0.8320  0.3203 -0.9839
 1344TIP3    H225448   1.293   0.767  16.169  2.8807 -1.0858 -0.6646
 1345TIP3   OH225449   6.666   1.380   5.428  0.0866 -0.2021  0.4127
 1345TIP3    H125450   6.745   1.416   5.389  1.1158 -1.1602  1.5408
 1345TIP3    H225451   6.651   1.434   5.506 -1.6173  1.3230 -0.8826
 1346TIP3   OH225452   5.651   4.083  12.349  0.6676  0.3948  0.7706
 1346TIP3    H125453   5.744   4.097  12.366  0.6611 -0.0860  1.2249
 1346TIP3    H225454   5.623   4.024  12.419  0.3572 -0.6535 -0.2230
 1347TIP3   OH225455   4.729   3.876  13.486  0.0563 -0.2996  0.0341
 1347TIP3    H125456   4.687   3.941  13.543  2.3389 -0.2761  1.8325
 1347TIP3    H225457   4.730   3.917  13.399 -0.9000  0.9313  0.5819
 1348TIP3   OH225458   1.019   0.891   1.640 -0.0272  0.6175 -0.4941
 1348TIP3    H125459   0.985   0.884   1.730  0.3829  2.8324 -0.1011
 1348TIP3    H225460   1.074   0.813   1.629 -0.0753  0.3039  1.1804
 1349TIP3   OH225461   2.564   1.172   3.431  0.3438 -0.0827  0.1291
 1349TIP3    H125462   2.535   1.164   3.340  0.8385  0.3757 -0.0765
 1349TIP3    H225463   2.537   1.259   3.457 -0.1599 -0.3641  0.5629
 1350TIP3   OH225464   0.611   6.241   3.938  0.0237 -0.0617 -0.5989
 1350TIP3    H125465   0.628   6.186   3.861  0.0014 -0.4659 -0.3176
 1350TIP3    H225466   0.697   6.250   3.979  0.0282  0.1212 -0.6487
 1351TIP3   OH225467   2.743   6.451  17.184  0.5116  0.0645 -0.2672
 1351TIP3    H125468   2.744   6.546  17.196  1.3840 -0.0283  0.5150
 1351TIP3    H225469   2.793   6.417  17.259 -0.3156 -1.0497 -0.1928
 1352TIP3   OH225470   4.449   2.866   3.904 -0.6600 -0.1068 -0.0705
 1352TIP3    H125471   4.509   2.793   3.918 -0.7661  0.0353  1.2198
 1352TIP3    H225472   4.420   2.855   3.813  1.9741  0.3414 -1.0588
 1353TIP3   OH225473   2.798   4.962   3.746 -0.3583 -0.1135  0.1476
 1353TIP3    H125474   2.852   4.912   3.807  0.0617  0.8523  0.5887
 1353TIP3    H225475   2.824   5.053   3.760 -0.8682  0.2066 -0.8715
 1354TIP3   OH225476   1.976   1.582  16.481 -0.0399 -0.2053 -0.0874
 1354TIP3    H125477   1.997   1.626  16.399  0.2746 -0.1070  0.0406
 1354TIP3    H225478   1.987   1.489  16.462 -0.5194 -0.2186 -0.3064
 1355TIP3   OH225479   1.358   2.696  15.251  0.2397 -0.6695 -0.4950
 1355TIP3    H125480   1.343   2.721  15.160  1.1249  1.0865 -0.2022
 1355TIP3    H225481   1.451   2.716  15.267  0.2337 -1.4189  0.6610
 1356TIP3   OH225482   0.429   5.193  12.563 -0.2577 -0.0755  0.0122
 1356TIP3    H125483   0.453   5.283  12.584  1.2414 -0.8629  1.9862
 1356TIP3    H225484   0.409   5.195  12.469  1.3382  1.9843 -0.3530
 1357TIP3   OH225485   3.386   1.097  15.666 -0.1060 -0.1969 -0.7858
 1357TIP3    H125486   3.379   1.023  15.605  2.7506 -0.8303 -0.4948
 1357TIP3    H225487   3.379   1.058  15.753 -2.2195  0.4433 -0.6184
 1358TIP3   OH225488   1.114   3.046   2.688  0.4350  0.6248 -0.6423
 1358TIP3    H125489   1.064   3.099   2.626 -0.9921 -1.1862 -1.1199
 1358TIP3    H225490   1.057   3.038   2.764  0.1459 -1.1024 -1.0126
 1359TIP3   OH225491   4.260   3.486  14.619 -0.4835  0.0098  0.2526
 1359TIP3    H125492   4.248   3.396  14.650 -2.5140  0.2220  0.1548
 1359TIP3    H225493   4.342   3.483  14.569 -1.3829 -2.1912 -1.2059
 1360TIP3   OH225494   5.329   5.950  12.012 -0.0461  0.0140  0.0686
 1360TIP3    H125495   5.271   5.931  11.938  0.4487 -0.1040 -0.2947
 1360TIP3    H225496   5.412   5.974  11.971  0.0278  0.6280  0.5734
 1361TIP3   OH225497   2.204   5.988  13.535  0.3051 -0.0021  0.1690
 1361TIP3    H125498   2.176   6.001  13.626  1.5236  0.6276  0.4702
 1361TIP3    H225499   2.187   5.895  13.518  0.8303 -0.3279  1.3204
 1362TIP3   OH225500   6.381   3.560  13.239  0.4026  0.0508  0.4970
 1362TIP3    H125501   6.431   3.533  13.316  1.5561 -0.8802 -0.5337
 1362TIP3    H225502   6.306   3.609  13.274  1.2706  0.2391  2.1526
 1363TIP3   OH225503   4.176   2.135   0.949 -0.3487 -0.3330  0.4021
 1363TIP3    H125504   4.143   2.091   0.870 -0.9267 -0.2258  0.5833
 1363TIP3    H225505   4.103   2.188   0.980  0.2150  0.4642  0.4110
 1364TIP3   OH225506   0.518   1.226   2.883  0.1257 -0.1773  0.2285
 1364TIP3    H125507   0.443   1.241   2.826 -1.0606 -2.8795  0.9343
 1364TIP3    H225508   0.501   1.280   2.960  0.2547  1.2130 -0.6891
 1365TIP3   OH225509   3.125   5.621  15.182  0.1452  0.0009 -0.0154
 1365TIP3    H125510   3.127   5.695  15.242  0.9788 -0.2187  0.2281
 1365TIP3    H225511   3.073   5.555  15.227  0.1374  0.1090  0.1355
 1366TIP3   OH225512   5.494   4.887   1.077  0.4041  0.3181 -0.2829
 1366TIP3    H125513   5.503   4.915   1.168  0.6677 -0.1261 -0.1704
 1366TIP3    H225514   5.565   4.931   1.030  0.4296  0.3370 -0.2259
 1367TIP3   OH225515   2.279   2.317   0.170  0.4699 -0.3045  0.3401
 1367TIP3    H125516   2.219   2.274   0.231 -0.5885  0.1087 -0.3766
 1367TIP3    H225517   2.291   2.405   0.207 -0.4289  0.0557 -0.1935
 1368TIP3   OH225518   1.888   2.968   1.251  0.9976 -0.5044 -0.4174
 1368TIP3    H125519   1.922   2.954   1.340  0.4494 -0.7518 -0.2427
 1368TIP3    H225520   1.960   3.010   1.205  0.0070  3.4818  1.2195
 1369TIP3   OH225521   1.753   1.389   0.189  0.2367  0.0483 -0.5002
 1369TIP3    H125522   1.763   1.301   0.225  0.5999  0.5714  0.7298
 1369TIP3    H225523   1.765   1.447   0.264  1.5562  1.2080 -1.5610
 1370TIP3   OH225524   3.847   3.240  11.072  0.5347 -0.1855  0.2062
 1370TIP3    H125525   3.881   3.237  11.161  1.4020 -0.8455 -0.1346
 1370TIP3    H225526   3.817   3.151  11.055 -0.1180  0.0640  0.0158
 1371TIP3   OH225527   5.263   6.650   5.804 -0.3102 -0.4165  0.3853
 1371TIP3    H125528   5.260   6.563   5.842 -1.7217 -0.4861  0.1784
 1371TIP3    H225529   5.180   6.690   5.829  0.7476  1.2742  1.3856
 1372TIP3   OH225530   3.735   0.948  16.183 -0.2035 -0.5534 -0.1471
 1372TIP3    H125531   3.795   1.023  16.182 -1.2640  0.3012 -1.1120
 1372TIP3    H225532   3.737   0.918  16.274  1.1898 -0.1467 -0.0216
 1373TIP3   OH225533   4.970   4.232   4.882 -0.2611  0.0278 -0.1093
 1373TIP3    H125534   4.895   4.213   4.825 -1.3488  2.8836  0.1795
 1373TIP3    H225535   5.046   4.227   4.824 -0.9911 -0.2499 -1.0719
 1374TIP3   OH225536   5.136   1.405  16.487 -0.6514 -0.0354 -0.2514
 1374TIP3    H125537   5.205   1.385  16.424  0.5927  1.4688  0.5736
 1374TIP3    H225538   5.066   1.444  16.435 -1.3893 -2.5373 -1.2511
 1375TIP3   OH225539   0.046   1.507  15.944  0.7222 -0.0786 -0.0425
 1375TIP3    H125540   0.100   1.581  15.914 -0.3742  0.4548 -0.7740
 1375TIP3    H225541   0.106   1.433  15.945  1.3337  0.3456 -1.5209
 1376TIP3   OH225542   6.468   6.375  16.352  0.8574  0.4417  0.3365
 1376TIP3    H125543   6.414   6.314  16.401  0.9275  0.6677  0.6956
 1376TIP3    H225544   6.555   6.367  16.390  0.9806  0.3909  0.0441
 1377TIP3   OH225545   2.295   3.462   5.565 -0.4727  0.0476 -0.1065
 1377TIP3    H125546   2.390   3.460   5.562 -0.4088 -0.3066  1.3745
 1377TIP3    H225547   2.271   3.408   5.640 -1.7422  1.5664  0.6711
 1378TIP3   OH225548   0.795   6.759  15.171 -0.0150  0.9357  0.3725
 1378TIP3    H125549   0.824   6.845  15.141 -0.9400  1.4301  0.8627
 1378TIP3    H225550   0.853   6.739  15.245  0.8431  0.6767 -0.3397
 1379TIP3   OH225551   2.015   0.756   4.946 -0.2268  0.1744 -0.4466
 1379TIP3    H125552   2.000   0.768   4.853  0.2048  2.1189 -0.2981
 1379TIP3    H225553   1.937   0.792   4.988  1.7531  4.4884  0.0735
 1380TIP3   OH225554   6.273   4.428   1.299 -0.3161  0.4873  0.2281
 1380TIP3    H125555   6.355   4.433   1.250 -0.5412  2.2999 -0.0365
 1380TIP3    H225556   6.209   4.396   1.236 -0.0815  0.3635  0.0532
 1381TIP3   OH225557   2.462   4.132  12.964 -0.7074  0.1107 -0.2583
 1381TIP3    H125558   2.518   4.206  12.987 -0.3420  0.3263 -1.7291
 1381TIP3    H225559   2.523   4.059  12.952 -0.7985  0.1873 -1.2331
 1382TIP3   OH225560   0.924   2.500  16.960  0.4348 -0.2667  0.0486
 1382TIP3    H125561   0.948   2.417  16.920  0.8196  0.2292 -0.7703
 1382TIP3    H225562   0.829   2.505  16.951  0.4302 -0.5462 -0.0473
 1383TIP3   OH225563   2.662   3.335   4.162 -0.3390 -0.3369 -0.3126
 1383TIP3    H125564   2.681   3.284   4.241  2.3525  1.1106  0.1113
 1383TIP3    H225565   2.610   3.409   4.194 -0.1684 -0.3157 -0.0768
 1384TIP3   OH225566   6.288   3.775   4.352 -0.5795  0.3391  0.3145
 1384TIP3    H125567   6.351   3.760   4.422  0.1843  1.2326 -0.1563
 1384TIP3    H225568   6.207   3.800   4.398 -0.3671 -0.0286  0.8990
 1385TIP3   OH225569   0.596   4.378   6.223  0.1906  0.0061 -0.2359
 1385TIP3    H125570   0.643   4.417   6.149  0.0717 -0.6436 -0.6645
 1385TIP3    H225571   0.510   4.356   6.188 -0.1781  0.5020  0.3432
 1386TIP3   OH225572   0.662   6.183  13.617 -0.0377  0.3166 -0.8115
 1386TIP3    H125573   0.725   6.177  13.545  2.4889  1.2504  1.1371
 1386TIP3    H225574   0.692   6.117  13.680 -1.0043  0.7919  0.1795
 1387TIP3   OH225575   3.286   0.783  10.874 -0.4061  0.1516  0.0358
 1387TIP3    H125576   3.238   0.701  10.882 -0.3405  0.2596  2.0016
 1387TIP3    H225577   3.336   0.773  10.793  0.9269 -2.4956  1.0553
 1388TIP3   OH225578   4.335   2.559   3.163 -0.2142 -0.1749 -0.0535
 1388TIP3    H125579   4.417   2.588   3.123 -1.7198  3.3037 -0.9528
 1388TIP3    H225580   4.273   2.553   3.091 -0.7576 -3.3126  0.5280
 1389TIP3   OH225581   4.509   5.218   3.830  0.3445 -0.0299  0.2446
 1389TIP3    H125582   4.449   5.237   3.901  0.9413  2.5683  0.1498
 1389TIP3    H225583   4.478   5.135   3.793  0.5129 -1.9484  3.9626
 1390TIP3   OH225584   5.619   4.306  13.766 -0.1390 -0.0449 -0.1068
 1390TIP3    H125585   5.601   4.318  13.673 -1.2731 -0.0243  0.1102
 1390TIP3    H225586   5.677   4.230  13.769  3.2853  2.2830 -1.1282
 1391TIP3   OH225587   1.490   6.350   2.346  0.4834 -0.3316 -0.5317
 1391TIP3    H125588   1.526   6.379   2.429  0.8803 -1.6558 -0.2116
 1391TIP3    H225589   1.435   6.275   2.368  2.1501 -1.9720 -1.6297
 1392TIP3   OH225590   1.940   5.304  13.368 -0.4278  0.2595  0.0859
 1392TIP3    H125591   1.845   5.317  13.366 -0.6129 -0.6177  1.7850
 1392TIP3    H225592   1.952   5.225  13.421  1.2105 -0.2594 -1.0014
 1393TIP3   OH225593   5.199   0.336  16.941 -0.1394 -0.3219 -0.9353
 1393TIP3    H125594   5.140   0.260  16.938 -1.1528  0.4148 -0.2991
 1393TIP3    H225595   5.284   0.299  16.963 -1.0967 -1.0799  2.0065
 1394TIP3   OH225596   4.796   0.508  11.910  0.2217  0.0210  0.0291
 1394TIP3    H125597   4.889   0.516  11.930  0.5977 -1.5129 -0.9126
 1394TIP3    H225598   4.761   0.452  11.979  0.0441  0.3858  0.2382
 1395TIP3   OH225599   3.746   0.145   5.901 -0.4147  0.0493 -0.3856
 1395TIP3    H125600   3.743   0.237   5.929 -1.6704  0.1927 -0.9226
 1395TIP3    H225601   3.792   0.100   5.972  1.5862  1.3064 -0.7906
 1396TIP3   OH225602   1.637   3.537   1.988  0.6264  0.2388  0.1183
 1396TIP3    H125603   1.694   3.547   1.912 -0.0339  0.2116 -0.3840
 1396TIP3    H225604   1.662   3.453   2.026  0.4006 -0.1194 -0.5316
 1397TIP3   OH225605   5.611   3.868   0.350 -0.6115 -0.5535 -0.6008
 1397TIP3    H125606   5.670   3.914   0.290 -0.0770 -1.9112 -1.1666
 1397TIP3    H225607   5.534   3.848   0.296 -1.4669  0.8692  0.0298
 1398TIP3   OH225608   2.206   3.587   4.157 -0.1349  0.1646  0.1248
 1398TIP3    H125609   2.290   3.623   4.185  0.0604 -0.6719  0.6623
 1398TIP3    H225610   2.155   3.581   4.238 -0.5171  0.1535 -0.1129
 1399TIP3   OH225611   3.691   1.314  12.468  0.0792 -0.1114 -0.0152
 1399TIP3    H125612   3.738   1.236  12.439 -1.7606 -1.1172 -0.4034
 1399TIP3    H225613   3.659   1.291  12.556 -1.3633 -0.2284 -0.5488
 1400TIP3   OH225614   6.070   2.531   1.723 -0.3104  0.0617 -0.1175
 1400TIP3    H125615   6.029   2.607   1.683 -1.4379 -0.8186 -0.6938
 1400TIP3    H225616   6.017   2.513   1.800 -0.0591 -0.1565  0.0054
 1401TIP3   OH225617   0.285   0.575  11.344  0.5283  0.1860 -0.3461
 1401TIP3    H125618   0.293   0.606  11.254  1.1765  0.5680 -0.1573
 1401TIP3    H225619   0.233   0.494  11.336  0.7824  0.0851 -1.0879
 1402TIP3   OH225620   4.855   0.677   4.630 -0.3646  0.1950  0.5352
 1402TIP3    H125621   4.855   0.772   4.626 -2.0012  0.2333  0.4950
 1402TIP3    H225622   4.805   0.650   4.553  1.1901 -0.7832 -0.1816
 1403TIP3   OH225623   2.457   3.546  15.873  0.3361 -0.3779 -0.6140
 1403TIP3    H125624   2.374   3.505  15.898  0.2152 -0.2094 -0.7323
 1403TIP3    H225625   2.435   3.599  15.796  0.2179  0.8815  0.2516
 1404TIP3   OH225626   5.316   5.226   1.054  0.1476  0.0383  0.2751
 1404TIP3    H125627   5.354   5.307   1.089 -0.6582  0.5904 -0.0985
 1404TIP3    H225628   5.352   5.220   0.966  0.4547 -0.1797  0.4153
 1405TIP3   OH225629   3.588   6.091   3.746  0.6791  0.1028 -0.3892
 1405TIP3    H125630   3.620   6.081   3.657 -1.7245  0.1551 -1.3530
 1405TIP3    H225631   3.548   6.178   3.748 -1.4967 -0.8312 -0.0794
 1406TIP3   OH225632   1.862   0.208  13.329 -0.1354 -0.0802 -0.0580
 1406TIP3    H125633   1.883   0.255  13.248  1.6410  0.3017  0.5698
 1406TIP3    H225634   1.913   0.253  13.396 -1.1399 -0.7419  1.1913
 1407TIP3   OH225635   0.047   5.301   5.019  0.5093 -0.0725  0.3406
 1407TIP3    H125636   0.099   5.280   5.096  1.4288 -2.0026 -0.7115
 1407TIP3    H225637   0.110   5.333   4.955  0.6592 -2.9719 -1.1458
 1408TIP3   OH225638   4.167   4.195   6.381 -0.0461  0.1137  0.3119
 1408TIP3    H125639   4.216   4.125   6.338  1.0731 -0.1961  1.9793
 1408TIP3    H225640   4.221   4.273   6.368 -0.5195  0.3600 -0.2146
 1409TIP3   OH225641   2.793   0.639  16.193 -0.1521  0.1309 -0.0077
 1409TIP3    H125642   2.742   0.565  16.224 -0.6345 -0.1359 -1.3617
 1409TIP3    H225643   2.825   0.682  16.273 -2.0586  0.0049  0.8714
 1410TIP3   OH225644   2.440   2.905   1.993  0.5227  0.3429  0.2256
 1410TIP3    H125645   2.377   2.978   1.991  1.7695  1.4680  0.4804
 1410TIP3    H225646   2.445   2.879   2.085 -1.8642 -1.8892 -0.1630
 1411TIP3   OH225647   4.951   0.510  14.234 -0.1652 -0.0894 -0.8596
 1411TIP3    H125648   4.976   0.581  14.293  0.1534  0.3641 -1.5222
 1411TIP3    H225649   4.979   0.540  14.148 -0.8217 -0.6449 -1.2747
 1412TIP3   OH225650   1.707   6.596  11.321 -0.2766  0.4010 -0.8930
 1412TIP3    H125651   1.684   6.595  11.414 -0.1059  2.3234 -0.8006
 1412TIP3    H225652   1.665   6.674  11.286 -0.3189 -0.2803 -2.4503
 1413TIP3   OH225653   0.975   5.433   2.481  0.4722 -0.1908  0.1931
 1413TIP3    H125654   0.885   5.431   2.449  0.3700  0.8236  0.3889
 1413TIP3    H225655   0.983   5.518   2.525  1.3163 -0.5605  0.7824
 1414TIP3   OH225656   0.775   5.151  13.510  0.3983  0.7905  0.1278
 1414TIP3    H125657   0.827   5.142  13.430 -2.2818  1.2403 -1.7864
 1414TIP3    H225658   0.790   5.069  13.557  0.9054 -0.1217 -1.5485
 1415TIP3   OH225659   4.138   1.744   5.590 -0.4666  0.3034 -0.0012
 1415TIP3    H125660   4.119   1.819   5.534  0.9878  0.3274 -0.5046
 1415TIP3    H225661   4.225   1.763   5.626 -0.9353 -0.1899  1.4793
 1416TIP3   OH225662   2.412   5.096   4.530  0.5988  0.2503  0.7531
 1416TIP3    H125663   2.326   5.099   4.573  0.6072  0.8343  0.7363
 1416TIP3    H225664   2.472   5.066   4.599  0.0527 -2.4848  0.1883
 1417TIP3   OH225665   3.270   3.306   2.586 -0.3794 -0.2905 -0.2060
 1417TIP3    H125666   3.319   3.386   2.569  0.5750 -0.9161 -0.4942
 1417TIP3    H225667   3.192   3.314   2.531  0.0030  0.1763 -0.6956
 1418TIP3   OH225668   2.201   1.568  16.235 -0.0961  0.0402  0.0281
 1418TIP3    H125669   2.225   1.487  16.190 -1.5190  0.9963 -2.7025
 1418TIP3    H225670   2.283   1.617  16.243  0.4612 -0.8724  0.0276
 1419TIP3   OH225671   0.699   5.321   2.546  0.0781  0.9274  0.7571
 1419TIP3    H125672   0.745   5.329   2.630  1.4521 -1.2196  0.2733
 1419TIP3    H225673   0.668   5.231   2.544 -1.5636  1.4744 -0.2838
 1420TIP3   OH225674   1.671   3.195   0.510 -0.0976 -0.0296 -0.6287
 1420TIP3    H125675   1.643   3.280   0.476  1.8126  1.9040  2.1356
 1420TIP3    H225676   1.630   3.189   0.597  1.6758 -0.7316  0.2192
 1421TIP3   OH225677   1.671   5.964   0.526 -0.1534  0.4409  0.4583
 1421TIP3    H125678   1.719   5.950   0.444 -0.4365  3.4546 -0.3481
 1421TIP3    H225679   1.583   5.990   0.499 -0.1159  1.9589  1.6420
 1422TIP3   OH225680   5.427   2.358  16.943 -0.5540 -0.5459 -0.8256
 1422TIP3    H125681   5.412   2.350  16.849  2.2557 -0.0128 -1.4132
 1422TIP3    H225682   5.483   2.435  16.952 -0.9070 -0.4723  1.3238
 1423TIP3   OH225683   0.936   0.110   6.138 -0.1704  0.1019 -0.1132
 1423TIP3    H125684   0.879   0.034   6.146 -0.8312  0.5201 -0.7598
 1423TIP3    H225685   0.985   0.112   6.221 -2.1301  0.5760  1.1070
 1424TIP3   OH225686   3.441   2.518  16.864 -0.1228 -0.1225 -0.5916
 1424TIP3    H125687   3.480   2.604  16.850 -1.7765  0.4112 -2.3040
 1424TIP3    H225688   3.486   2.461  16.802  0.8386 -0.4886  0.4088
 1425TIP3   OH225689   5.490   5.343   5.843  0.0808 -0.2505 -0.5426
 1425TIP3    H125690   5.456   5.257   5.866 -0.4907 -1.0417 -3.9537
 1425TIP3    H225691   5.577   5.346   5.884  0.0970 -2.4290 -0.3339
 1426TIP3   OH225692   6.234   4.700   3.858  0.3941  0.1735 -0.4167
 1426TIP3    H125693   6.300   4.746   3.910 -1.5621  0.4273  2.0109
 1426TIP3    H225694   6.222   4.616   3.902 -1.2718  0.3434 -0.4882
 1427TIP3   OH225695   1.326   3.097  13.812  0.0001  0.0767 -0.2394
 1427TIP3    H125696   1.419   3.116  13.801 -0.4259  1.7922 -1.2574
 1427TIP3    H225697   1.323   3.024  13.874  1.9323  1.2960  1.4023
 1428TIP3   OH225698   5.164   4.376   4.378 -0.1674 -0.0772  0.7328
 1428TIP3    H125699   5.114   4.296   4.362  0.1039  0.0919 -1.2516
 1428TIP3    H225700   5.098   4.443   4.396 -0.5593 -0.2334 -0.0837
 1429TIP3   OH225701   4.091   6.432   5.923 -0.1755 -0.0274  0.0669
 1429TIP3    H125702   4.086   6.447   5.828 -0.4123  2.5101  0.4062
 1429TIP3    H225703   4.183   6.445   5.944 -0.4719  1.8054  0.4453
 1430TIP3   OH225704   5.158   6.629  12.830  0.3601 -0.4370  0.0147
 1430TIP3    H125705   5.162   6.696  12.898  4.1534  0.8895 -1.2441
 1430TIP3    H225706   5.185   6.548  12.874  1.3697  0.1055  0.4361
 1431TIP3   OH225707   6.029   6.257  11.605  0.0737 -0.7357 -0.0566
 1431TIP3    H125708   6.123   6.264  11.623 -0.2734  0.5691  1.4201
 1431TIP3    H225709   6.023   6.184  11.543  1.9522 -1.6109  0.6906
 1432TIP3   OH225710   2.518   3.565   0.767 -0.2577  0.1324  0.1048
 1432TIP3    H125711   2.543   3.629   0.834  2.9854  0.4542 -1.2242
 1432TIP3    H225712   2.466   3.616   0.704 -1.0873  0.4365  1.0004
 1433TIP3   OH225713   2.458   1.789  15.765  0.1188 -0.7031 -0.1361
 1433TIP3    H125714   2.453   1.877  15.803  1.7320 -0.6118 -0.0434
 1433TIP3    H225715   2.444   1.803  15.671 -1.1429 -0.5698  0.0544
 1434TIP3   OH225716   4.505   6.483   0.174 -0.1576 -0.2523  0.4485
 1434TIP3    H125717   4.565   6.547   0.211  1.0377 -0.5311 -0.8951
 1434TIP3    H225718   4.419   6.522   0.183  0.4920  1.3314  0.1023
 1435TIP3   OH225719   5.613   0.995   0.295  0.3477 -0.9250  0.7414
 1435TIP3    H125720   5.605   1.089   0.276  0.4484 -1.4222 -2.1586
 1435TIP3    H225721   5.532   0.973   0.341  0.2414  0.5316  1.3068
 1436TIP3   OH225722   5.729   6.719  14.237  0.1407 -0.4316  0.1195
 1436TIP3    H125723   5.712   6.813  14.244  0.6062 -0.4451  2.1777
 1436TIP3    H225724   5.796   6.712  14.169  0.2840  0.7782  0.1129
 1437TIP3   OH225725   3.957   2.658   4.470 -0.3786  0.1351 -0.1054
 1437TIP3    H125726   3.961   2.710   4.389 -1.0460 -0.2649 -0.3988
 1437TIP3    H225727   3.943   2.723   4.539  1.9831  0.6951 -0.0532
 1438TIP3   OH225728   4.308   4.535  12.442  0.6907 -0.2508  0.3186
 1438TIP3    H125729   4.340   4.453  12.479  2.6595  0.7783  1.0889
 1438TIP3    H225730   4.269   4.581  12.516  0.1567 -0.2383  0.0293
 1439TIP3   OH225731   2.485   4.703  15.787 -0.0426  0.2218 -0.1163
 1439TIP3    H125732   2.421   4.633  15.791  0.9786 -0.7247 -0.0433
 1439TIP3    H225733   2.510   4.718  15.878 -0.1628  0.6013 -0.1436
 1440TIP3   OH225734   3.693   4.082  13.483 -0.0045 -0.0291 -0.7321
 1440TIP3    H125735   3.651   4.027  13.548 -0.1933  0.4822 -0.4110
 1440TIP3    H225736   3.628   4.094  13.414  0.6776 -1.7534 -1.7491
 1441TIP3   OH225737   1.210   1.393  17.203 -0.3240 -0.1313 -0.6027
 1441TIP3    H125738   1.270   1.457  17.166 -0.5700  1.0370  0.9294
 1441TIP3    H225739   1.237   1.385  17.295 -0.9015 -1.5155 -0.5297
 1442TIP3   OH225740   2.596   4.248   4.004 -0.5013 -0.2414  0.8059
 1442TIP3    H125741   2.634   4.185   3.944  0.8229  0.4644  0.8701
 1442TIP3    H225742   2.502   4.244   3.987 -0.1920 -0.3030 -1.0665
 1443TIP3   OH225743   2.393   2.879  15.773 -0.2777 -0.1994 -0.3520
 1443TIP3    H125744   2.382   2.966  15.812 -0.9482 -1.1234  1.6842
 1443TIP3    H225745   2.308   2.859  15.735 -0.2198 -0.1085 -0.5321
 1444TIP3   OH225746   3.626   1.431   5.262  0.3502 -0.2170 -0.0874
 1444TIP3    H125747   3.613   1.369   5.191 -1.8040 -1.2816  1.1171
 1444TIP3    H225748   3.668   1.507   5.221  0.2434 -1.2391 -2.2143
 1445TIP3   OH225749   0.946   5.301   0.387  0.4204 -0.0293  0.1210
 1445TIP3    H125750   0.908   5.217   0.359 -1.6637  0.2539  1.8726
 1445TIP3    H225751   0.938   5.301   0.482  1.4366  1.7125  0.2475
 1446TIP3   OH225752   4.420   2.209  12.459  0.2298 -0.2428 -0.4964
 1446TIP3    H125753   4.461   2.126  12.482 -0.2530 -0.8650 -1.8257
 1446TIP3    H225754   4.369   2.233  12.537  1.1850 -0.6538  0.2786
 1447TIP3   OH225755   5.568   2.275  11.370 -0.0506 -0.2662 -0.0183
 1447TIP3    H125756   5.548   2.365  11.396  0.5022 -0.4279  1.0045
 1447TIP3    H225757   5.663   2.273  11.360  0.1292 -1.1030  1.5209
 1448TIP3   OH225758   6.241   0.728  12.761  0.0127  0.2700 -0.1145
 1448TIP3    H125759   6.245   0.646  12.711  1.7526  0.9702 -1.2355
 1448TIP3    H225760   6.325   0.732  12.806  0.4470  1.9739 -1.0076
 1449TIP3   OH225761   6.200   5.009  15.814  0.2299 -0.0252 -0.4641
 1449TIP3    H125762   6.143   4.963  15.752 -0.1098  0.5950 -0.6161
 1449TIP3    H225763   6.166   5.098  15.817  2.1054  0.8294 -1.7565
 1450TIP3   OH225764   1.170   2.382  13.676  0.5639  0.7442 -0.7789
 1450TIP3    H125765   1.198   2.473  13.665 -0.3014  0.8726 -2.2078
 1450TIP3    H225766   1.172   2.368  13.770  1.3456  2.0384 -0.5767
 1451TIP3   OH225767   1.712   0.369  16.999 -0.2235 -0.1303  0.0315
 1451TIP3    H125768   1.729   0.319  16.919 -1.0888 -0.1717 -0.1358
 1451TIP3    H225769   1.792   0.421  17.011  0.2852 -0.8042 -0.3429
 1452TIP3   OH225770   0.236   3.147   4.259 -0.1258  0.7486 -0.1140
 1452TIP3    H125771   0.302   3.119   4.323 -0.4961 -1.3215 -0.5864
 1452TIP3    H225772   0.157   3.162   4.312 -0.1925 -0.0996  0.0357
 1453TIP3   OH225773   3.229   3.262  15.160  0.4676  0.1148  0.6434
 1453TIP3    H125774   3.277   3.180  15.148  1.6182  0.8005  0.3985
 1453TIP3    H225775   3.145   3.235  15.196  0.5008 -1.2491 -0.1975
 1454TIP3   OH225776   3.764   4.624  14.841  0.6029 -0.6694 -0.0478
 1454TIP3    H125777   3.807   4.698  14.799  0.0032 -0.5495 -0.4598
 1454TIP3    H225778   3.830   4.589  14.901  1.0851 -0.1588 -0.2712
 1455TIP3   OH225779   4.817   4.580   2.232  0.2880 -0.0507 -0.5153
 1455TIP3    H125780   4.829   4.647   2.164 -1.6518 -0.5710 -1.4366
 1455TIP3    H225781   4.723   4.563   2.232  0.3117 -0.4682  1.9627
 1456TIP3   OH225782   5.906   1.432   3.027  0.3450  0.2411 -0.1702
 1456TIP3    H125783   5.838   1.387   3.078  1.7976 -0.0922  1.5717
 1456TIP3    H225784   5.874   1.522   3.019 -0.8010 -0.1618 -0.3687
 1457TIP3   OH225785   0.844   5.415  11.137  0.3728  0.0684 -0.3869
 1457TIP3    H125786   0.797   5.342  11.098  0.9546 -1.5251  1.6938
 1457TIP3    H225787   0.901   5.447  11.068  0.2177 -1.5735 -1.3276
 1458TIP3   OH225788   6.021   0.235  10.985  0.6819  0.7035 -0.4566
 1458TIP3    H125789   5.986   0.324  10.983  0.7210  0.7186 -0.4727
 1458TIP3    H225790   6.098   0.240  11.041  0.2717  0.5287  0.1374
 1459TIP3   OH225791   3.276   5.936  16.190 -0.2924  0.3679  0.2145
 1459TIP3    H125792   3.358   5.914  16.234 -0.4437  1.9805  1.3834
 1459TIP3    H225793   3.208   5.902  16.247 -0.4607  0.1382 -0.1207
 1460TIP3   OH225794   6.490   5.534   5.116 -0.3733 -0.6080  0.5274
 1460TIP3    H125795   6.540   5.455   5.136  0.2450 -0.5786 -0.7869
 1460TIP3    H225796   6.553   5.593   5.077 -0.8096  0.5990  1.5708
 1461TIP3   OH225797   5.729   5.513  13.229 -0.2826 -0.5473  0.1000
 1461TIP3    H125798   5.803   5.452  13.224  0.0653 -0.1995  0.8678
 1461TIP3    H225799   5.685   5.491  13.311 -0.1733  0.1985  0.3695
 1462TIP3   OH225800   6.232   4.715   5.515  0.2749 -0.2389  0.8735
 1462TIP3    H125801   6.169   4.775   5.476  2.0679  2.4860  1.8983
 1462TIP3    H225802   6.309   4.721   5.460  1.0574 -0.2998  1.9275
 1463TIP3   OH225803   4.752   1.811   2.159  0.2125  0.1389  0.0286
 1463TIP3    H125804   4.748   1.787   2.251 -0.0844 -0.6308 -0.1820
 1463TIP3    H225805   4.831   1.767   2.126  1.9052  2.6085  0.5281
 1464TIP3   OH225806   3.995   0.948   2.739 -0.0074 -0.1438  0.3022
 1464TIP3    H125807   4.018   0.874   2.684 -0.4846 -1.9687  2.4339
 1464TIP3    H225808   3.902   0.936   2.759 -0.2095  1.2798  0.3406
 1465TIP3   OH225809   5.664   2.617  17.216 -0.1840 -0.2280 -0.2109
 1465TIP3    H125810   5.718   2.674  17.161 -0.2064 -0.8099 -0.8396
 1465TIP3    H225811   5.674   2.530  17.178 -2.2899 -0.2184 -0.9301
 1466TIP3   OH225812   1.528   0.202  15.130 -0.3392 -0.0700  0.0731
 1466TIP3    H125813   1.514   0.110  15.110 -0.3319 -0.3810  1.3972
 1466TIP3    H225814   1.619   0.207  15.159 -0.9065 -0.0619  2.0260
 1467TIP3   OH225815   0.801   6.435   2.800  0.7043 -0.2490 -0.0112
 1467TIP3    H125816   0.775   6.440   2.708  0.1105 -3.0894 -0.0835
 1467TIP3    H225817   0.749   6.502   2.844 -0.9208 -0.5604 -1.3787
 1468TIP3   OH225818   1.840   0.009  16.088  0.1389  0.1851  0.1117
 1468TIP3    H125819   1.816   0.098  16.113 -1.0695 -0.6639  2.2861
 1468TIP3    H225820   1.775  -0.016  16.022  0.5414  0.9273 -0.5790
 1469TIP3   OH225821   4.501   4.343  17.117  0.0699 -0.1950  0.5838
 1469TIP3    H125822   4.518   4.377  17.205 -0.4068 -1.3417  1.1356
 1469TIP3    H225823   4.578   4.290  17.096 -0.1975 -0.6146  0.6616
 1470TIP3   OH225824   4.142   3.395  14.256 -0.2682  0.2502  0.4834
 1470TIP3    H125825   4.079   3.340  14.210  0.8622 -0.7218  0.0532
 1470TIP3    H225826   4.220   3.341  14.265  0.7115  1.6001  0.5120
 1471TIP3   OH225827   4.968   4.846   2.138  0.2079  0.3753  0.3362
 1471TIP3    H125828   4.942   4.861   2.229 -0.2305  0.3890  0.2123
 1471TIP3    H225829   5.055   4.886   2.130  0.7553 -0.6452  1.0547
 1472TIP3   OH225830   1.386   5.441   0.684 -0.0245 -0.7274 -0.0386
 1472TIP3    H125831   1.327   5.445   0.759 -0.7044  0.5674 -0.5970
 1472TIP3    H225832   1.418   5.531   0.675  1.3844 -1.2292 -0.2715
 1473TIP3   OH225833   0.814   6.155   4.763 -0.4037  0.0627 -0.2706
 1473TIP3    H125834   0.800   6.191   4.675  2.2879 -0.8248 -1.1732
 1473TIP3    H225835   0.802   6.061   4.752  2.2649 -0.3377 -0.3355
 1474TIP3   OH225836   0.128   6.198  12.446  0.5344  0.4027 -0.7341
 1474TIP3    H125837   0.222   6.192  12.463  0.6682  0.0045 -1.5295
 1474TIP3    H225838   0.087   6.190  12.532  1.1605 -1.3104 -0.5486
 1475TIP3   OH225839   0.654   6.472  16.049  0.2698 -0.0384 -0.6686
 1475TIP3    H125840   0.729   6.490  16.105  0.1618  2.6386 -1.2454
 1475TIP3    H225841   0.578   6.481  16.107  0.2962 -2.7710 -0.0785
 1476TIP3   OH225842   3.929   6.684   2.748 -0.1342  0.1588 -0.1282
 1476TIP3    H125843   3.989   6.629   2.800 -0.4855  0.7469  0.9171
 1476TIP3    H225844   3.948   6.659   2.657  1.1462 -0.2366  0.2135
 1477TIP3   OH225845   3.840   6.362  15.020 -0.2425 -0.3465  0.6283
 1477TIP3    H125846   3.804   6.444  15.053  1.6707  0.7793  0.0451
 1477TIP3    H225847   3.816   6.360  14.928  1.3077  0.5620  0.1584
 1478TIP3   OH225848   5.157   5.090  14.024 -0.0115  0.3640  0.1992
 1478TIP3    H125849   5.098   5.146  14.074 -0.6970  0.1134 -0.2973
 1478TIP3    H225850   5.133   5.106  13.933 -0.0695 -0.5522  0.0368
 1479TIP3   OH225851   5.473   2.318   5.204  0.7521 -0.3734 -0.4085
 1479TIP3    H125852   5.396   2.272   5.235  0.0833  0.7932 -0.2678
 1479TIP3    H225853   5.467   2.405   5.245  0.4175  0.8644 -2.9194
 1480TIP3   OH225854   1.270   5.782  14.125  0.9503  0.4389  0.1502
 1480TIP3    H125855   1.230   5.762  14.041  3.0920 -0.5468 -0.7095
 1480TIP3    H225856   1.204   5.833  14.172 -0.9576 -0.4601 -1.4320
 1481TIP3   OH225857   3.865   6.346  13.188 -0.1977 -0.1244 -0.0164
 1481TIP3    H125858   3.857   6.360  13.282 -0.9831  0.1651 -0.1213
 1481TIP3    H225859   3.851   6.252  13.176  0.1615 -0.2052  0.1764
 1482TIP3   OH225860   0.406   1.261  11.781 -0.1185 -0.0959 -0.2089
 1482TIP3    H125861   0.343   1.297  11.719  2.3281  2.2093 -1.5578
 1482TIP3    H225862   0.451   1.337  11.817  0.0972 -1.5107  2.8052
 1483TIP3   OH225863   3.255   4.123  14.850  0.2705 -0.0877 -0.1311
 1483TIP3    H125864   3.314   4.083  14.787  0.3898  0.2592 -0.2452
 1483TIP3    H225865   3.245   4.058  14.919  0.2931 -0.3922 -0.4132
 1484TIP3   OH225866   0.505   1.835  15.241  0.4942 -0.3279 -0.0045
 1484TIP3    H125867   0.558   1.830  15.320 -1.5794 -0.4892  1.4834
 1484TIP3    H225868   0.417   1.811  15.271 -0.5930  0.7838 -2.1224
 1485TIP3   OH225869   5.101   2.363   5.862 -0.7994 -0.6069  0.1461
 1485TIP3    H125870   5.165   2.357   5.933 -0.4276 -2.1278 -0.2730
 1485TIP3    H225871   5.040   2.431   5.890 -1.0366 -1.5809  2.2385
 1486TIP3   OH225872   4.558   4.008   1.030 -0.0992 -0.0458  0.3896
 1486TIP3    H125873   4.611   4.000   0.951 -2.0086  0.8035 -1.0691
 1486TIP3    H225874   4.509   3.926   1.035 -0.5884  0.2305  0.2053
 1487TIP3   OH225875   1.541   1.138  13.954  0.3647 -0.2095  0.2385
 1487TIP3    H125876   1.466   1.124  13.896 -0.0233  0.4452  0.5776
 1487TIP3    H225877   1.538   1.063  14.014  0.1114 -0.3044  0.1110
 1488TIP3   OH225878   2.395   6.279   1.824 -0.0144 -0.2178  0.2257
 1488TIP3    H125879   2.387   6.300   1.917 -1.1515 -1.3717  0.4266
 1488TIP3    H225880   2.420   6.186   1.823 -0.9718 -0.4841 -0.6024
 1489TIP3   OH225881   5.926   6.465   1.952  0.5225 -0.3971 -0.2878
 1489TIP3    H125882   5.904   6.477   2.044  2.2684 -0.3923  0.1515
 1489TIP3    H225883   5.914   6.552   1.913  2.5451  0.3163  0.5708
 1490TIP3   OH225884   1.869   3.274  13.950  0.0428 -0.2898  0.0989
 1490TIP3    H125885   1.821   3.349  13.915 -0.0868 -0.1240  0.6181
 1490TIP3    H225886   1.907   3.306  14.031  3.1911  0.3878 -1.4993
 1491TIP3   OH225887   6.700   3.195  12.049  0.4213 -0.4989 -0.1578
 1491TIP3    H125888   6.785   3.190  12.093  1.0464 -0.1352 -1.3012
 1491TIP3    H225889   6.709   3.138  11.973 -0.7869 -1.4374  0.3596
 1492TIP3   OH225890   6.653   0.865  14.353 -0.2078  0.0706  0.0150
 1492TIP3    H125891   6.579   0.805  14.362  0.7561 -1.0381  0.8560
 1492TIP3    H225892   6.703   0.854  14.434  0.3914  1.4784 -0.1361
 1493TIP3   OH225893   5.620   2.836  15.437  0.2949 -0.5418  0.2362
 1493TIP3    H125894   5.691   2.830  15.501 -1.5248 -1.2262  2.3335
 1493TIP3    H225895   5.576   2.751  15.442 -1.6634  0.4111  0.2911
 1494TIP3   OH225896   4.890   1.940  13.703  0.2211  0.7733 -0.0334
 1494TIP3    H125897   4.850   2.009  13.756 -1.1623  0.6207 -0.8331
 1494TIP3    H225898   4.816   1.888  13.672  1.2064 -0.7448  0.0820
 1495TIP3   OH225899   2.702   3.248   1.203  0.0911  0.6844 -0.0347
 1495TIP3    H125900   2.661   3.319   1.153 -1.4656  0.2901  0.6240
 1495TIP3    H225901   2.629   3.191   1.228  1.0738 -0.1379  1.0776
 1496TIP3   OH225902   3.890   0.861   3.082  0.1894  0.6914 -0.4744
 1496TIP3    H125903   3.966   0.919   3.088 -0.3530  1.3518  0.3390
 1496TIP3    H225904   3.900   0.816   2.998  1.3712  0.9079 -0.4576
 1497TIP3   OH225905   5.182   5.522  11.212  0.5974  0.4470 -0.0573
 1497TIP3    H125906   5.142   5.604  11.184  0.4840  0.5091  0.2785
 1497TIP3    H225907   5.270   5.546  11.240  0.2091  0.6311  1.0340
 1498TIP3   OH225908   4.346   1.187   2.787  0.3995 -0.6158  0.0315
 1498TIP3    H125909   4.341   1.119   2.720  4.2135  0.1103 -1.2375
 1498TIP3    H225910   4.377   1.141   2.866 -0.0805 -0.8014  0.1183
 1499TIP3   OH225911   4.122   3.192  16.495 -0.1586 -0.5630  0.5059
 1499TIP3    H125912   4.113   3.278  16.536  0.4793 -0.1809 -0.1371
 1499TIP3    H225913   4.206   3.159  16.526 -0.4710 -1.0339  0.8745
 1500TIP3   OH225914   5.424   3.510   2.193  0.1989 -0.1524  0.7375
 1500TIP3    H125915   5.510   3.544   2.171 -0.1550  1.0018  1.0581
 1500TIP3    H225916   5.385   3.485   2.109  0.3361  0.5667  0.4599
 1501TIP3   OH225917   5.305   2.982  16.627 -0.1511  0.3509 -0.0758
 1501TIP3    H125918   5.331   2.898  16.589 -0.0370  0.4318 -0.1783
 1501TIP3    H225919   5.244   2.959  16.697 -0.1831  0.1875 -0.1571
 1502TIP3   OH225920   0.723   0.534   0.788 -0.5866 -0.0281 -0.2215
 1502TIP3    H125921   0.683   0.517   0.703 -0.2799 -1.7744 -0.0357
 1502TIP3    H225922   0.801   0.479   0.790  0.7825  1.8003  0.2395
 1503TIP3   OH225923   4.826   2.625  13.540  0.1135 -0.1340 -0.0694
 1503TIP3    H125924   4.757   2.570  13.578 -0.7086  0.3290 -0.8425
 1503TIP3    H225925   4.811   2.711  13.578  0.4680 -0.1060  0.0063
 1504TIP3   OH225926   1.050   4.556   3.866 -0.4077  0.2362 -0.5218
 1504TIP3    H125927   1.133   4.520   3.836 -1.3662 -4.0187  1.2258
 1504TIP3    H225928   0.989   4.539   3.794 -0.6798 -1.0953 -0.0134
 1505TIP3   OH225929   6.446   0.309  16.936 -0.1880  0.5246 -0.4809
 1505TIP3    H125930   6.426   0.224  16.897 -0.6867  0.0296  0.8063
 1505TIP3    H225931   6.377   0.323  17.000  0.7853  1.1415  0.4737
 1506TIP3   OH225932   1.567   1.726   4.180 -0.1997  0.2560  0.0301
 1506TIP3    H125933   1.581   1.747   4.087 -0.5444  1.1920  0.1769
 1506TIP3    H225934   1.496   1.662   4.179  0.1390 -0.1273 -0.3742
 1507TIP3   OH225935   4.442   6.024  16.523 -0.0810 -0.1701 -0.4992
 1507TIP3    H125936   4.526   5.997  16.488  0.1590 -0.7183  0.4595
 1507TIP3    H225937   4.429   6.113  16.490  1.2542  0.2361  0.0085
 1508TIP3   OH225938   6.677   0.748  10.916 -0.2975 -0.4322 -0.0789
 1508TIP3    H125939   6.757   0.718  10.872 -1.4917  1.0097 -3.5708
 1508TIP3    H225940   6.688   0.843  10.925 -0.3929 -0.5881  2.3336
 1509TIP3   OH225941   1.951   1.973  16.682 -0.3707  0.0587 -0.2614
 1509TIP3    H125942   1.886   1.984  16.612 -0.8278 -0.1388  0.1249
 1509TIP3    H225943   1.970   1.879  16.681 -0.3667  0.0588 -0.1315
 1510TIP3   OH225944   3.757   4.285   0.149 -0.4060  0.1074 -0.0055
 1510TIP3    H125945   3.774   4.362   0.204  0.7687 -1.0115  1.2551
 1510TIP3    H225946   3.664   4.292   0.128 -0.7487  0.9352  1.5878
 1511TIP3   OH225947   2.773   6.664  16.618 -0.4223  0.4403  0.1479
 1511TIP3    H125948   2.776   6.612  16.698  1.4313 -0.7237 -0.6246
 1511TIP3    H225949   2.849   6.635  16.567 -0.2505  2.7581 -1.0448
 1512TIP3   OH225950   5.339   0.999  16.995 -0.2554  0.0038 -0.2752
 1512TIP3    H125951   5.273   0.963  17.055  1.2427 -1.3586  0.6270
 1512TIP3    H225952   5.416   0.945  17.010  1.0383  1.4847 -1.3915
 1513TIP3   OH225953   3.545   3.451  16.172  0.3128 -0.2861 -0.1237
 1513TIP3    H125954   3.583   3.532  16.138  0.7956 -0.2927  0.3801
 1513TIP3    H225955   3.620   3.398  16.198  0.0341 -1.2605 -1.2364
 1514TIP3   OH225956   4.097   3.027  14.322  0.1905  0.7828  0.8135
 1514TIP3    H125957   4.166   3.083  14.358 -0.5431  1.6106  0.9714
 1514TIP3    H225958   4.040   3.008  14.396  0.8871 -0.9044  0.9450
 1515TIP3   OH225959   5.270   2.290  11.105 -0.1669  0.5023 -0.3745
 1515TIP3    H125960   5.191   2.258  11.061 -1.0596 -1.8608  2.6050
 1515TIP3    H225961   5.269   2.384  11.090 -2.6749  0.3566 -1.7453
 1516TIP3   OH225962   5.297   4.743  14.521  0.4443  0.3354 -0.3320
 1516TIP3    H125963   5.315   4.717  14.611 -3.3214  0.1227  0.5056
 1516TIP3    H225964   5.334   4.832  14.514  1.2588  0.1503  1.2131
 1517TIP3   OH225965   0.356   6.093  15.769 -0.1599 -0.1885  0.4981
 1517TIP3    H125966   0.411   6.119  15.695  0.4883  0.6000  1.2366
 1517TIP3    H225967   0.383   6.151  15.841 -2.8273  1.1170  0.5639
 1518TIP3   OH225968   4.974   1.395   5.581  0.2883 -0.5533 -0.5101
 1518TIP3    H125969   4.950   1.346   5.659  0.6233 -0.3201 -0.2573
 1518TIP3    H225970   4.986   1.328   5.514  2.4053 -1.0114  0.2416
 1519TIP3   OH225971   6.594   1.594  15.692 -0.4235  0.1970 -0.1993
 1519TIP3    H125972   6.644   1.513  15.700 -0.3333  0.0784 -1.5717
 1519TIP3    H225973   6.521   1.584  15.753  0.8374  0.1016  1.3556
 1520TIP3   OH225974   4.613   0.330   2.189  0.0527 -0.8408  0.1085
 1520TIP3    H125975   4.594   0.320   2.095 -0.9714 -0.4132  0.2571
 1520TIP3    H225976   4.530   0.355   2.227  0.6790 -0.0932  1.0058
 1521TIP3   OH225977   0.616   6.084   0.471  0.0536  0.3591 -0.1240
 1521TIP3    H125978   0.669   6.074   0.392 -0.4654  2.2265 -0.7717
 1521TIP3    H225979   0.662   6.033   0.537  1.8508  0.7087 -1.0333
 1522TIP3   OH225980   0.824   4.806  13.274  0.9029 -0.1458 -0.1219
 1522TIP3    H125981   0.762   4.860  13.322  1.7348 -0.0654  0.9036
 1522TIP3    H225982   0.879   4.869  13.228  1.9352 -0.0655  1.1508
 1523TIP3   OH225983   1.321   1.761  14.481  0.1763  0.5190  0.0135
 1523TIP3    H125984   1.351   1.811  14.405  0.9613  0.8237  0.5047
 1523TIP3    H225985   1.246   1.811  14.514  0.4552  0.9457  0.0223
 1524TIP3   OH225986   5.118   1.930  13.405 -0.5136  0.5688  0.3119
 1524TIP3    H125987   5.168   1.936  13.486 -0.3774 -1.5542  0.4374
 1524TIP3    H225988   5.180   1.953  13.336  0.0495  0.0153  0.6277
 1525TIP3   OH225989   4.165   0.845   1.092  0.7279 -0.7324 -0.2102
 1525TIP3    H125990   4.180   0.938   1.107  2.0275 -1.0538  0.6388
 1525TIP3    H225991   4.102   0.820   1.159  0.3657 -0.4685 -0.4484
 1526TIP3   OH225992   6.026   1.578  16.002 -0.3230  0.3294 -0.6061
 1526TIP3    H125993   5.944   1.534  15.978 -0.1328  0.7993 -2.2680
 1526TIP3    H225994   6.005   1.671  15.997 -0.0644  0.4428  0.3975
 1527TIP3   OH225995   4.821   1.947   2.989  0.0194  0.1188  0.7752
 1527TIP3    H125996   4.914   1.952   2.967 -0.2697  1.6925 -0.2962
 1527TIP3    H225997   4.812   1.865   3.038  1.9121 -0.1859  0.6963
 1528TIP3   OH225998   3.817   3.721  13.629  0.7141  0.0834  0.0807
 1528TIP3    H125999   3.777   3.802  13.661  0.7954  1.2576 -2.5371
 1528TIP3    H226000   3.911   3.740  13.626  0.9435 -0.7601  1.0532
 1529TIP3   OH226001   0.576   1.457  15.277 -0.2379 -0.0530 -0.0513
 1529TIP3    H126002   0.529   1.459  15.194  3.4027  1.2285 -2.3497
 1529TIP3    H226003   0.612   1.369  15.282 -0.3834 -0.1025  0.1307
 1530TIP3   OH226004   5.942   0.925  17.047  0.2295 -0.0169  0.6008
 1530TIP3    H126005   5.852   0.945  17.075 -0.1233  0.2364 -0.6708
 1530TIP3    H226006   5.994   0.998  17.081 -0.5476  1.4645 -1.2190
 1531TIP3   OH226007   0.220   2.796  13.696  0.0787  0.1053  0.8159
 1531TIP3    H126008   0.235   2.860  13.767  1.0805 -0.6059  1.2596
 1531TIP3    H226009   0.223   2.711  13.740  0.9618 -0.3626 -0.1122
 1532TIP3   OH226010   5.788   3.613   4.399 -0.5270  0.0047  0.3160
 1532TIP3    H126011   5.849   3.554   4.444  1.5044 -0.3611 -2.6346
 1532TIP3    H226012   5.717   3.556   4.370  0.4474 -0.7159 -0.8005
 1533TIP3   OH226013   0.993   3.510   0.972 -0.0414 -0.3616 -0.2457
 1533TIP3    H126014   1.081   3.516   0.934 -0.3601 -1.3110 -1.2038
 1533TIP3    H226015   1.006   3.520   1.066  0.8172  1.8104 -0.5444
 1534TIP3   OH226016   3.308   4.397   1.208 -0.1506  0.0386 -0.4892
 1534TIP3    H126017   3.235   4.458   1.202  0.4102  0.8349  0.3821
 1534TIP3    H226018   3.318   4.361   1.120  0.5245  2.4258 -1.4651
 1535TIP3   OH226019   5.631   0.678  12.179 -0.0545 -0.7182  0.3140
 1535TIP3    H126020   5.612   0.673  12.273  1.1383  1.0622  0.7107
 1535TIP3    H226021   5.545   0.684  12.137 -0.5810 -0.0918  1.4291
 1536TIP3   OH226022   1.125   5.172   3.852  0.0364  0.1814 -0.2085
 1536TIP3    H126023   1.054   5.109   3.865 -1.0883  1.6816  1.4153
 1536TIP3    H226024   1.186   5.128   3.793 -1.0307 -2.1274  0.3083
 1537TIP3   OH226025   6.645   5.671  13.062 -0.1459  0.5438 -0.6224
 1537TIP3    H126026   6.655   5.600  13.126 -1.8461 -0.5267 -1.4649
 1537TIP3    H226027   6.714   5.733  13.084 -0.5820  0.1809  2.2175
 1538TIP3   OH226028   6.675   0.766   5.145 -0.2301  0.2216 -0.0588
 1538TIP3    H126029   6.653   0.850   5.184 -1.6831 -0.1876  0.0779
 1538TIP3    H226030   6.759   0.742   5.185 -0.3189  1.1102  0.6912
 1539TIP3   OH226031   1.029   0.245   2.338 -0.4988  0.1598 -0.1322
 1539TIP3    H126032   0.942   0.226   2.304  0.3126  0.1143 -2.3448
 1539TIP3    H226033   1.064   0.159   2.364 -0.9524  0.1331  0.4124
 1540TIP3   OH226034   6.725   2.093  11.902  1.1225 -0.5119  0.3201
 1540TIP3    H126035   6.679   2.176  11.896  1.7254 -0.1863  0.0784
 1540TIP3    H226036   6.688   2.050  11.979  0.3497 -0.3127  0.0673
 1541TIP3   OH226037   6.176   2.170   1.151  0.1709 -0.4859 -0.4580
 1541TIP3    H126038   6.106   2.135   1.206 -0.7578 -0.2715 -1.4846
 1541TIP3    H226039   6.132   2.214   1.079  1.3375  1.2473 -0.1861
 1542TIP3   OH226040   2.747   6.296   1.723  0.6292  0.3126 -0.4694
 1542TIP3    H126041   2.803   6.223   1.751 -1.5875 -1.3045 -0.0367
 1542TIP3    H226042   2.702   6.323   1.803 -0.0458  0.8421 -1.0266
 1543TIP3   OH226043   4.543   2.933  14.729  0.3522  0.1634  0.2451
 1543TIP3    H126044   4.531   2.932  14.824 -2.8880 -1.0236 -0.0467
 1543TIP3    H226045   4.469   2.984  14.696  1.5601  0.7736 -1.6694
 1544TIP3   OH226046   1.639   3.428  12.377  0.3738 -0.2899 -0.8553
 1544TIP3    H126047   1.615   3.347  12.421  1.4193 -0.1654 -0.0172
 1544TIP3    H226048   1.560   3.454  12.330 -0.1408 -1.4999 -0.6977
 1545TIP3   OH226049   4.828   5.622   2.594  0.1296 -0.5373  0.3365
 1545TIP3    H126050   4.820   5.639   2.688  0.7856 -1.0224  0.4845
 1545TIP3    H226051   4.880   5.542   2.588 -2.5160 -2.3566 -0.3320
 1546TIP3   OH226052   6.287   3.241  11.033  0.1265  0.1092 -0.2071
 1546TIP3    H126053   6.252   3.152  11.028 -1.3966  0.7369 -2.0899
 1546TIP3    H226054   6.250   3.286  10.956  0.2875  2.5641  1.0359
 1547TIP3   OH226055   3.499   2.754   1.913 -0.4629 -0.4301 -0.3500
 1547TIP3    H126056   3.574   2.793   1.958 -1.4907 -0.9190  1.9600
 1547TIP3    H226057   3.487   2.808   1.835  0.0912  1.9506  1.1014
 1548TIP3   OH226058   6.212   4.199   2.726 -0.3607  0.2487 -0.1008
 1548TIP3    H126059   6.172   4.127   2.678  2.8002 -0.8530 -1.3753
 1548TIP3    H226060   6.234   4.162   2.811 -0.3398  0.2708 -0.0965
 1549TIP3   OH226061   0.412   6.403  15.416 -0.3074 -0.0584 -0.3258
 1549TIP3    H126062   0.441   6.488  15.383  1.1898 -0.7621 -0.9027
 1549TIP3    H226063   0.317   6.405  15.405 -0.1930  1.0896 -1.4448
 1550TIP3   OH226064   2.592   6.778  13.959  0.3648 -0.8168  0.0924
 1550TIP3    H126065   2.505   6.743  13.941  0.5039 -0.2716 -2.0165
 1550TIP3    H226066   2.648   6.701  13.965 -0.0394 -1.1179  0.0579
 1551TIP3   OH226067   5.510   4.186  14.716 -0.6748 -0.0189 -0.6430
 1551TIP3    H126068   5.575   4.236  14.765 -0.4465  0.0078 -0.9713
 1551TIP3    H226069   5.478   4.121  14.778 -0.1633 -0.1881 -0.5550
 1552TIP3   OH226070   2.398   5.704   2.867  0.2382 -0.8540  0.7545
 1552TIP3    H126071   2.477   5.657   2.839  0.8765 -0.2794  1.5368
 1552TIP3    H226072   2.375   5.758   2.791  3.4456  2.6741  1.9357
 1553TIP3   OH226073   1.734   4.257  11.701  0.1796 -0.3942 -0.2971
 1553TIP3    H126074   1.696   4.335  11.741 -0.5118 -0.0878 -1.4901
 1553TIP3    H226075   1.723   4.188  11.766 -1.4139 -0.0465 -0.1530
 1554TIP3   OH226076   1.629   1.169   5.020  0.2535 -0.2957  0.5938
 1554TIP3    H126077   1.700   1.160   5.084 -0.4217 -0.9825  1.2737
 1554TIP3    H226078   1.551   1.141   5.067 -0.4922  0.5247 -0.1182
 1555TIP3   OH226079   2.986   2.064   3.344  0.2147 -0.0733  0.2933
 1555TIP3    H126080   3.012   1.976   3.373  0.9871  0.5343  1.4985
 1555TIP3    H226081   3.068   2.112   3.334 -0.2302  0.7112  0.3269
 1556TIP3   OH226082   5.429   1.472  12.704  0.0977 -0.5386  0.0357
 1556TIP3    H126083   5.416   1.552  12.753 -1.2350 -1.3146  1.0285
 1556TIP3    H226084   5.374   1.482  12.626 -0.1315 -0.5189  0.2006
 1557TIP3   OH226085   5.570   0.476   0.206 -0.3632  0.2463 -0.2710
 1557TIP3    H126086   5.528   0.394   0.234 -0.0289  0.0378 -0.3677
 1557TIP3    H226087   5.641   0.488   0.269 -0.9628  0.9394  0.2821
 1558TIP3   OH226088   4.520   3.471   3.514 -0.3017 -0.1718 -0.2020
 1558TIP3    H126089   4.474   3.394   3.547  0.0048 -1.0629 -1.7283
 1558TIP3    H226090   4.607   3.439   3.490  0.6775  1.1799  1.3052
 1559TIP3   OH226091   0.351   2.227  15.293  0.3439  0.1266 -0.6073
 1559TIP3    H126092   0.366   2.318  15.269  0.7221  0.0423 -0.6975
 1559TIP3    H226093   0.429   2.202  15.342 -0.5066  0.3787  0.9586
 1560TIP3   OH226094   5.420   5.259  14.282  0.0283  0.1460 -0.0604
 1560TIP3    H126095   5.491   5.317  14.310  3.0638 -2.6458 -1.3098
 1560TIP3    H226096   5.396   5.291  14.195  0.7089  0.3428 -0.1785
 1561TIP3   OH226097   5.280   6.558  16.612  0.3898 -0.3014 -0.2567
 1561TIP3    H126098   5.211   6.625  16.609 -0.0689 -0.7666 -0.1359
 1561TIP3    H226099   5.331   6.579  16.690  0.5013  0.1485 -0.4450
 1562TIP3   OH226100   5.526   3.973  16.004 -0.0970 -0.0787  0.0399
 1562TIP3    H126101   5.449   3.919  15.983  0.4201 -0.9759  0.4035
 1562TIP3    H226102   5.578   3.918  16.063 -0.4065  1.4971  1.8742
 1563TIP3   OH226103   0.551   6.026  16.775 -0.0559 -0.2672 -0.3723
 1563TIP3    H126104   0.534   6.097  16.837 -1.3040  1.2478 -2.3209
 1563TIP3    H226105   0.509   5.949  16.814 -0.2948  0.4883  0.9199
 1564TIP3   OH226106   3.467   0.476  14.901 -0.2297 -0.2416  0.0210
 1564TIP3    H126107   3.443   0.401  14.847 -1.8928  0.4604 -0.2948
 1564TIP3    H226108   3.410   0.547  14.870  0.9966  1.0461  0.5857
 1565TIP3   OH226109   6.639   3.823   2.530  0.1991  0.3235  0.0729
 1565TIP3    H126110   6.731   3.801   2.513  0.1284  0.1348 -0.0707
 1565TIP3    H226111   6.607   3.858   2.447 -0.8538 -2.9510 -1.0604
 1566TIP3   OH226112   5.629   4.512   2.323 -0.2174 -0.1020 -0.0998
 1566TIP3    H126113   5.564   4.441   2.321 -0.5211  0.1851 -0.6550
 1566TIP3    H226114   5.584   4.586   2.283  0.7160 -0.1198 -1.2082
 1567TIP3   OH226115   0.811   0.615   2.032 -0.5450 -0.3550 -0.3340
 1567TIP3    H126116   0.888   0.560   2.015  0.1527  0.9080 -1.5206
 1567TIP3    H226117   0.780   0.587   2.118  1.7205 -0.4200  0.5578
 1568TIP3   OH226118   2.109   0.808  14.452 -0.1414  0.5712  0.5878
 1568TIP3    H126119   2.102   0.856  14.370 -0.4490 -0.4588 -0.0099
 1568TIP3    H226120   2.166   0.733  14.432 -0.8623 -0.1310  1.0837
 1569TIP3   OH226121   5.275   4.094   3.909  0.2717 -0.0590  0.0087
 1569TIP3    H126122   5.328   4.094   3.829 -0.0455 -0.9356 -0.2094
 1569TIP3    H226123   5.278   4.185   3.939  0.6889  0.2091 -0.8039
 1570TIP3   OH226124   3.781   3.739  12.951  0.0976  0.3573 -0.3653
 1570TIP3    H126125   3.767   3.707  12.862 -1.5782  0.4866 -0.1731
 1570TIP3    H226126   3.697   3.728  12.995  0.2724  2.2670  0.5730
 1571TIP3   OH226127   5.955   1.441   2.684  0.3578 -0.3420  0.5095
 1571TIP3    H126128   5.987   1.391   2.759  0.0296 -0.3655  0.6355
 1571TIP3    H226129   5.874   1.482   2.715  0.5167  0.1060  0.3456
 1572TIP3   OH226130   1.915   0.963   3.701 -0.1593  0.8799 -0.1630
 1572TIP3    H126131   1.959   0.947   3.617 -0.3358 -0.1205 -0.0789
 1572TIP3    H226132   1.825   0.986   3.678 -0.4470 -0.2749 -0.2251
 1573TIP3   OH226133   5.239   0.880  16.159 -0.4112  0.7084  0.2930
 1573TIP3    H126134   5.208   0.961  16.119 -0.9680 -0.3000 -1.4210
 1573TIP3    H226135   5.159   0.831  16.180 -0.0682  0.0912  0.1917
 1574TIP3   OH226136   2.391   4.224  14.131  0.4868 -0.4414  0.0462
 1574TIP3    H126137   2.381   4.222  14.226  1.2033 -2.3058  0.1259
 1574TIP3    H226138   2.301   4.224  14.098  0.2314 -0.4729  0.7249
 1575TIP3   OH226139   1.311   3.994   2.314  0.4152 -0.3757  0.2595
 1575TIP3    H126140   1.338   4.024   2.227  0.9834 -1.2307  0.1310
 1575TIP3    H226141   1.244   4.057   2.341  0.4185  0.0530 -0.6848
 1576TIP3   OH226142   0.607   2.296  10.951  0.2071 -0.6217 -0.9192
 1576TIP3    H126143   0.611   2.390  10.966  0.9308 -0.9356  1.3306
 1576TIP3    H226144   0.524   2.269  10.991  1.1687 -1.2285  0.7756
 1577TIP3   OH226145   2.957   4.060   2.747 -0.0099 -0.0140  0.5525
 1577TIP3    H126146   3.007   3.990   2.707  0.3522  0.9676 -0.7836
 1577TIP3    H226147   2.879   4.069   2.692 -0.8383 -0.4096  1.6325
 1578TIP3   OH226148   1.169   3.835   4.481 -0.3532 -0.1546  0.6364
 1578TIP3    H126149   1.262   3.841   4.459 -1.3942  1.0587 -4.5892
 1578TIP3    H226150   1.145   3.923   4.511 -0.2180  0.2236 -0.3237
 1579TIP3   OH226151   5.286   1.134  10.956 -0.2867 -0.2350  0.1608
 1579TIP3    H126152   5.207   1.119  10.904  0.4682 -2.2228 -0.4921
 1579TIP3    H226153   5.283   1.228  10.977 -1.8841  0.1168 -1.3690
 1580TIP3   OH226154   3.684   6.073  12.168  0.4418 -0.1258 -0.3406
 1580TIP3    H126155   3.763   6.126  12.156  0.2104  0.0748 -1.0390
 1580TIP3    H226156   3.615   6.123  12.125  0.1559 -0.8332 -0.7229
 1581TIP3   OH226157   2.136   4.563  12.971  0.2557 -0.2714 -0.2177
 1581TIP3    H126158   2.214   4.582  13.024  0.0412 -1.2183  0.4722
 1581TIP3    H226159   2.106   4.648  12.940  2.5911  0.0114 -2.0045
 1582TIP3   OH226160   1.206   1.281  15.890  0.0258 -0.7367 -0.8002
 1582TIP3    H126161   1.141   1.269  15.822 -1.6084 -2.2368  0.9170
 1582TIP3    H226162   1.216   1.195  15.930 -0.3872  0.3618  1.9399
 1583TIP3   OH226163   6.770   3.411  11.260  0.1077  0.6856 -0.7359
 1583TIP3    H126164   6.833   3.348  11.227  0.4325  1.1202 -0.9606
 1583TIP3    H226165   6.745   3.463  11.183 -2.2213 -0.8857 -1.1473
 1584TIP3   OH226166   5.205   4.100   5.081 -0.2460 -0.2188  0.3729
 1584TIP3    H126167   5.267   4.062   5.018 -0.5999  0.0398 -0.1378
 1584TIP3    H226168   5.173   4.025   5.131  2.1511 -0.1529  2.2151
 1585TIP3   OH226169   0.979   4.884  17.071 -0.3332 -0.1516 -0.2754
 1585TIP3    H126170   1.057   4.847  17.113  0.3933  0.3466 -1.1577
 1585TIP3    H226171   0.922   4.808  17.056 -0.6352 -0.3455  1.5901
 1586TIP3   OH226172   3.297   6.745  16.683  0.1681 -0.1569  0.1942
 1586TIP3    H126173   3.276   6.838  16.674  1.5048 -0.0223 -2.2890
 1586TIP3    H226174   3.386   6.736  16.649 -0.4736 -2.5736 -1.1112
 1587TIP3   OH226175   1.466   4.761  11.545 -0.5261 -0.1155 -0.2978
 1587TIP3    H126176   1.490   4.772  11.636  0.9598 -1.4436 -0.4915
 1587TIP3    H226177   1.370   4.764  11.545 -0.5323  2.2425  0.9399
 1588TIP3   OH226178   6.021   4.197  16.841  0.1816  0.1329 -0.3646
 1588TIP3    H126179   6.097   4.141  16.852  0.6233  0.7239 -0.3462
 1588TIP3    H226180   5.946   4.137  16.845  0.5430 -0.2732  1.2960
 1589TIP3   OH226181   2.640   6.324  15.647  1.1236 -0.3240  0.0246
 1589TIP3    H126182   2.637   6.357  15.558  0.3465 -0.8790 -0.1610
 1589TIP3    H226183   2.689   6.241  15.641 -1.2654 -1.7886 -0.3798
 1590TIP3   OH226184   1.731   0.222   4.239 -0.4683 -0.4010  0.6998
 1590TIP3    H126185   1.743   0.238   4.145 -0.6502  2.7389  1.0911
 1590TIP3    H226186   1.820   0.225   4.275 -0.5717  1.9050  0.9640
 1591TIP3   OH226187   2.672   6.597  14.578 -0.1301  1.0744 -0.1525
 1591TIP3    H126188   2.711   6.647  14.506 -2.6343  2.4925 -0.6556
 1591TIP3    H226189   2.725   6.622  14.655  0.4138  2.3328 -0.8904
 1592TIP3   OH226190   3.326   0.166  15.371  0.1629 -0.1844  0.4518
 1592TIP3    H126191   3.261   0.233  15.350 -0.5655 -0.4726  1.7140
 1592TIP3    H226192   3.365   0.144  15.286 -1.4083 -0.0326 -0.3525
 1593TIP3   OH226193   4.787   2.865  16.070  0.4907  0.1072  0.4664
 1593TIP3    H126194   4.859   2.821  16.024  0.0418  1.0825 -1.2513
 1593TIP3    H226195   4.830   2.917  16.137  1.2238 -0.8530  0.7778
 1594TIP3   OH226196   2.340   4.201   5.292  0.4763 -0.0552  0.0437
 1594TIP3    H126197   2.285   4.188   5.369 -0.1445 -0.8711 -0.5141
 1594TIP3    H226198   2.419   4.151   5.311 -0.1649 -1.2601 -0.3171
 1595TIP3   OH226199   1.191   3.810   4.795  0.0876  0.0209 -0.1764
 1595TIP3    H126200   1.114   3.818   4.738  0.6111 -0.8246 -1.0240
 1595TIP3    H226201   1.170   3.866   4.870 -0.7372  0.9511 -1.0574
 1596TIP3   OH226202   3.203   3.722  12.214 -0.1911 -0.1776 -0.3954
 1596TIP3    H126203   3.129   3.768  12.175  0.0639 -0.9053 -1.8119
 1596TIP3    H226204   3.238   3.669  12.143  0.8235 -0.9299  0.6320
 1597TIP3   OH226205   1.882   2.980   0.536 -0.1314 -0.2527  0.3905
 1597TIP3    H126206   1.813   3.039   0.567  0.6351  0.5607  0.5953
 1597TIP3    H226207   1.868   2.900   0.586  0.0710  0.4682  1.6703
 1598TIP3   OH226208   1.884   3.358  12.234 -0.4248 -0.4853  0.2837
 1598TIP3    H126209   1.948   3.289  12.220  1.4786  0.9474  1.3453
 1598TIP3    H226210   1.865   3.355  12.328  0.5124  1.0449  0.5608
 1599TIP3   OH226211   0.258   6.074   1.795  0.9535  1.3030 -0.3536
 1599TIP3    H126212   0.245   6.039   1.883 -3.1787  1.0675 -0.8431
 1599TIP3    H226213   0.245   5.999   1.737  0.0815  2.0872 -1.2137
 1600TIP3   OH226214   4.832   2.206   6.031 -0.0964 -0.3260  0.5633
 1600TIP3    H126215   4.899   2.252   6.082 -1.3952  1.0923  1.0763
 1600TIP3    H226216   4.749   2.248   6.057 -1.0989 -1.4584 -0.6594
 1601TIP3   OH226217   3.762   4.598  17.162  0.2885  0.4350  0.0575
 1601TIP3    H126218   3.848   4.557  17.167 -0.1301 -0.5139 -0.2766
 1601TIP3    H226219   3.759   4.639  17.075 -1.0869 -3.1024 -1.7704
 1602TIP3   OH226220   4.393   2.279   3.666  0.1008  0.0055  0.0869
 1602TIP3    H126221   4.422   2.317   3.749 -2.1752 -0.6519  1.2800
 1602TIP3    H226222   4.366   2.355   3.614 -0.5330  0.3109  0.8374
 1603TIP3   OH226223   0.123   2.527   4.267  0.0439  0.4119 -0.8127
 1603TIP3    H126224   0.119   2.529   4.362  0.7431  0.2610 -0.7748
 1603TIP3    H226225   0.092   2.439   4.243  0.8244  0.0819 -0.6598
 1604TIP3   OH226226   5.595   5.937   3.300  0.0414  0.1924  0.2727
 1604TIP3    H126227   5.656   5.948   3.373 -0.9549 -0.6120  1.2605
 1604TIP3    H226228   5.634   5.988   3.229  1.4747  0.3048  1.0907
 1605TIP3   OH226229   1.138   1.044   2.796 -0.2975  0.4767  0.3868
 1605TIP3    H126230   1.196   1.107   2.839 -0.3893 -0.0561  1.3155
 1605TIP3    H226231   1.197   0.987   2.747 -0.2433  1.5327 -0.8426
 1606TIP3   OH226232   4.496   2.078   5.664  0.0215 -0.8450  0.1404
 1606TIP3    H126233   4.514   2.055   5.573 -0.6673  2.0570 -0.8580
 1606TIP3    H226234   4.577   2.120   5.694 -0.7080  0.9091 -0.2045
 1607TIP3   OH226235   5.807   2.356  16.862  0.1999 -0.9648 -0.1877
 1607TIP3    H126236   5.804   2.359  16.766 -1.1345 -0.0483 -0.1511
 1607TIP3    H226237   5.803   2.263  16.884 -1.2565 -1.1293 -1.0132
 1608TIP3   OH226238   0.205   2.993  11.628  0.7378  0.4657 -0.4178
 1608TIP3    H126239   0.217   3.067  11.569  1.1541  0.6663 -0.0857
 1608TIP3    H226240   0.288   2.946  11.626  0.8576  0.6357  0.2233
 1609TIP3   OH226241   3.939   2.004  14.357  0.6704 -0.5363 -0.0236
 1609TIP3    H126242   3.881   1.945  14.404 -0.3515 -0.8879 -1.6448
 1609TIP3    H226243   3.970   2.066  14.424 -0.0695 -1.4877  1.2378
 1610TIP3   OH226244   0.374   5.101   5.208 -0.1031  0.8273 -0.1812
 1610TIP3    H126245   0.284   5.114   5.238 -0.1569  1.1174 -0.4680
 1610TIP3    H226246   0.367   5.082   5.115  0.1546  1.1943 -0.2800
 1611TIP3   OH226247   0.860   5.771  11.061  0.1344  0.3746  0.0295
 1611TIP3    H126248   0.937   5.721  11.033 -0.0556  0.3652 -0.4744
 1611TIP3    H226249   0.810   5.786  10.981 -0.0187  1.0184  0.2361
 1612TIP3   OH226250   2.435   5.289  14.980 -0.3060  0.0395 -0.1188
 1612TIP3    H126251   2.454   5.299  15.073 -0.0821 -0.8583 -0.0599
 1612TIP3    H226252   2.509   5.239  14.945 -1.8155 -2.3819 -0.1334
 1613TIP3   OH226253   6.078   2.606  13.437  0.3796  0.3583  0.1313
 1613TIP3    H126254   6.060   2.607  13.343  1.3037  2.1010 -0.0688
 1613TIP3    H226255   6.142   2.536  13.449  0.8921  0.6782 -0.6744
 1614TIP3   OH226256   0.714   3.509   4.145  0.5294 -0.0227  0.1915
 1614TIP3    H126257   0.775   3.443   4.180  1.0526  0.4315  0.1425
 1614TIP3    H226258   0.667   3.540   4.222  1.6962  0.9904  0.5300
 1615TIP3   OH226259   1.395   6.353   3.193 -0.5808 -0.8146  0.8484
 1615TIP3    H126260   1.326   6.406   3.233 -1.1404 -2.2079  1.7868
 1615TIP3    H226261   1.349   6.283   3.149  0.1905 -1.0161  0.3499
 1616TIP3   OH226262   4.958   2.517  12.597 -0.0516 -0.0327 -0.3642
 1616TIP3    H126263   5.028   2.452  12.585 -0.6490 -1.1162  1.5845
 1616TIP3    H226264   4.999   2.587  12.649 -0.6769 -1.3073  1.9768
 1617TIP3   OH226265   2.146   0.122  15.637 -0.3902 -0.0289 -0.2038
 1617TIP3    H126266   2.193   0.049  15.599 -2.4656 -0.7061 -1.6939
 1617TIP3    H226267   2.081   0.082  15.695  0.3309  0.8224  1.2521
 1618TIP3   OH226268   5.382   4.790  12.082 -0.4875  0.1539  0.3906
 1618TIP3    H126269   5.455   4.729  12.087 -1.8396 -1.5298  0.5820
 1618TIP3    H226270   5.340   4.771  11.998 -0.7562  1.0578  0.3023
 1619TIP3   OH226271   3.515   6.095  15.071  0.0789 -0.0745  0.1962
 1619TIP3    H126272   3.541   6.097  14.979  0.3651  0.3846  0.2867
 1619TIP3    H226273   3.495   6.186  15.093  1.5636  0.0981  1.0231
 1620TIP3   OH226274   6.357   3.156  15.329 -0.0727 -0.5028  0.0336
 1620TIP3    H126275   6.275   3.120  15.362 -0.8130 -0.2914 -1.4988
 1620TIP3    H226276   6.413   3.080  15.313 -0.0748 -0.6672  0.7784
 1621TIP3   OH226277   0.767   3.985   4.567 -0.6852 -0.3591 -0.0840
 1621TIP3    H126278   0.681   4.024   4.581 -0.7955  0.7813 -3.1289
 1621TIP3    H226279   0.825   4.037   4.623 -1.2982  2.3929 -1.7761
 1622TIP3   OH226280   2.782   0.556   1.150  0.5661  0.2581 -0.6077
 1622TIP3    H126281   2.802   0.531   1.240  0.5214  0.7022 -0.4709
 1622TIP3    H226282   2.821   0.487   1.097 -0.8668 -0.9317 -0.1879
 1623TIP3   OH226283   5.916   0.434  13.886  0.2768  0.3513 -0.2909
 1623TIP3    H126284   5.875   0.489  13.952  0.8776  0.0970  0.3087
 1623TIP3    H226285   5.859   0.357  13.881 -0.6491  1.0642 -1.2426
 1624TIP3   OH226286   0.742   4.024  16.248 -0.6036 -0.2370  0.7671
 1624TIP3    H126287   0.734   3.930  16.260  2.2769 -1.1654 -2.7471
 1624TIP3    H226288   0.796   4.053  16.321 -0.5117 -1.5453  1.2380
 1625TIP3   OH226289   5.034   3.706  13.987  0.5745 -0.0807 -0.5441
 1625TIP3    H126290   5.110   3.649  13.998  0.5696 -0.1644 -0.9505
 1625TIP3    H226291   5.063   3.791  14.022  0.5693 -0.3339  0.0933
 1626TIP3   OH226292   2.566   1.248  14.468  0.0829  0.1852  0.3510
 1626TIP3    H126293   2.523   1.272  14.550 -0.0938  0.3699  0.2044
 1626TIP3    H226294   2.658   1.237  14.492 -0.0491 -0.2608  0.6794
 1627TIP3   OH226295   1.575   4.900  12.871  0.3916 -0.8892  0.3200
 1627TIP3    H126296   1.501   4.867  12.921  0.0350 -2.2391 -1.0242
 1627TIP3    H226297   1.559   4.870  12.782  1.2758  0.9617 -0.5266
 1628TIP3   OH226298   1.314   1.023   2.588  0.2333  0.2340  0.6033
 1628TIP3    H126299   1.344   0.978   2.509  0.7036  0.9975  0.3333
 1628TIP3    H226300   1.291   1.111   2.558  1.7223  0.9686  1.5349
 1629TIP3   OH226301   5.724   5.199   2.536 -0.4549 -0.0968 -0.1155
 1629TIP3    H126302   5.798   5.159   2.490  1.9281  1.7140  1.9140
 1629TIP3    H226303   5.746   5.190   2.628 -1.5744  2.6498  0.4866
 1630TIP3   OH226304   5.578   3.744  13.346  0.2746 -0.1256 -0.6836
 1630TIP3    H126305   5.546   3.678  13.408 -0.8799  0.1668 -0.9451
 1630TIP3    H226306   5.528   3.823  13.367  0.7476  0.3168 -1.1947
 1631TIP3   OH226307   4.809   5.265   5.644  0.0929  0.5991 -0.0180
 1631TIP3    H126308   4.749   5.228   5.579  1.2813 -0.2982 -0.6276
 1631TIP3    H226309   4.832   5.191   5.700 -0.9865  1.3801  1.5116
 1632TIP3   OH226310   3.066   4.587  11.509  0.4815 -0.7935 -0.5292
 1632TIP3    H126311   3.025   4.576  11.424 -0.9362  2.0809 -0.3498
 1632TIP3    H226312   3.006   4.544  11.570 -1.3830  1.5821 -0.5140
 1633TIP3   OH226313   1.390   2.161  15.153 -0.8972  0.4666  0.6460
 1633TIP3    H126314   1.430   2.229  15.208  1.0281 -0.4880  0.5002
 1633TIP3    H226315   1.390   2.198  15.065 -0.7066  0.6375  0.7177
 1634TIP3   OH226316   4.270   4.630   0.336  0.2499 -0.3137  0.5324
 1634TIP3    H126317   4.332   4.682   0.388  0.2974 -0.5040  0.6691
 1634TIP3    H226318   4.314   4.546   0.325  0.2825 -0.2388  0.0946
 1635TIP3   OH226319   5.523   5.126  11.409 -0.2619 -0.2632 -0.3356
 1635TIP3    H126320   5.489   5.064  11.473 -0.2791  0.6952  0.6044
 1635TIP3    H226321   5.611   5.094  11.390 -0.3967 -0.7698 -0.1252
 1636TIP3   OH226322   6.094   0.640  14.608  0.3181 -0.4718 -0.0275
 1636TIP3    H126323   6.025   0.585  14.644 -0.6208  0.4333 -0.4053
 1636TIP3    H226324   6.114   0.703  14.677 -0.1025  0.0339 -0.3617
 1637TIP3   OH226325   3.776   0.494   0.976 -0.9077 -0.4916 -0.0810
 1637TIP3    H126326   3.719   0.494   1.053 -1.3309 -1.5220 -0.3773
 1637TIP3    H226327   3.817   0.407   0.977  0.9713  0.3485  0.3368
 1638TIP3   OH226328   1.245   1.609  13.238 -0.1993  0.1338  0.2738
 1638TIP3    H126329   1.203   1.592  13.322 -0.5697 -1.5978 -0.2208
 1638TIP3    H226330   1.182   1.663  13.190 -0.6717 -0.1762  0.5411
 1639TIP3   OH226331   0.623   5.038  12.683  0.4705 -0.1397 -0.1620
 1639TIP3    H126332   0.665   5.089  12.613  0.8730 -1.2088 -0.7178
 1639TIP3    H226333   0.533   5.070  12.684  1.3218  2.6164  1.4437
 1640TIP3   OH226334   0.690   5.639   5.257 -0.6734 -0.1334  0.1046
 1640TIP3    H126335   0.620   5.695   5.290 -1.3432 -1.0226  0.2274
 1640TIP3    H226336   0.656   5.604   5.175  0.9367  1.9698 -1.5621
 1641TIP3   OH226337   4.385   6.166   0.496  0.0434  0.2152  0.4957
 1641TIP3    H126338   4.330   6.195   0.569 -0.5398 -0.5905  0.3886
 1641TIP3    H226339   4.365   6.073   0.486  0.9935  0.0451  0.0660
 1642TIP3   OH226340   3.266   4.392  12.402  0.2869 -0.0217 -0.4330
 1642TIP3    H126341   3.349   4.347  12.416  0.5344  0.7417  0.6892
 1642TIP3    H226342   3.281   4.481  12.435 -0.9094  0.1843 -0.3938
 1643TIP3   OH226343   2.535   1.789  10.237  0.2223  0.1645  0.1807
 1643TIP3    H126344   2.531   1.696  10.258 -0.1799  0.2817  0.6338
 1643TIP3    H226345   2.625   1.815  10.255 -0.1225  0.2824  1.8722
 1644TIP3   OH226346   4.550   4.357   3.844  0.1081 -0.7076 -0.4302
 1644TIP3    H126347   4.458   4.339   3.828 -0.1337  0.7453 -0.8356
 1644TIP3    H226348   4.550   4.410   3.924  0.5431 -0.3062 -0.6911
 1645TIP3   OH226349   1.319   4.075   3.701  0.4854  0.1158 -0.6834
 1645TIP3    H126350   1.305   4.138   3.631 -1.3126  1.7540  1.0265
 1645TIP3    H226351   1.399   4.105   3.746 -0.8723  1.8723  0.7039
 1646TIP3   OH226352   5.118   4.341   2.812 -0.2681 -0.0927 -0.1853
 1646TIP3    H126353   5.167   4.316   2.891  0.1871  1.3967  0.0397
 1646TIP3    H226354   5.134   4.269   2.751  0.2702 -0.7608  0.7004
 1647TIP3   OH226355   6.247   3.857  15.801  0.1781  0.9774 -0.2453
 1647TIP3    H126356   6.243   3.828  15.710  0.4654  0.1599 -0.0124
 1647TIP3    H226357   6.209   3.945  15.801 -0.6631  0.6198 -0.9947
 1648TIP3   OH226358   1.962   4.020   3.709  0.2072  0.1819  0.1018
 1648TIP3    H126359   2.037   4.078   3.725  1.7370 -1.3617 -1.0822
 1648TIP3    H226360   1.948   3.975   3.792 -0.4783  1.5979  0.7931
 1649TIP3   OH226361   3.651   5.925  11.059 -0.0015 -0.0851 -0.0377
 1649TIP3    H126362   3.631   6.007  11.104 -0.2375 -0.6806  0.9597
 1649TIP3    H226363   3.654   5.949  10.966 -0.6522  0.9344  0.1912
 1650TIP3   OH226364   1.602   3.099  13.775 -0.0906 -0.2570  0.5381
 1650TIP3    H126365   1.675   3.042  13.799  0.0737 -0.3717 -0.2013
 1650TIP3    H226366   1.642   3.169  13.723 -0.7498 -1.6084 -1.9912
 1651TIP3   OH226367   5.862   4.978   3.967  0.0918 -0.2037  0.3850
 1651TIP3    H126368   5.921   5.033   4.018  0.1476 -1.4090  1.6761
 1651TIP3    H226369   5.897   4.890   3.975 -1.4123 -0.8267  0.5185
 1652TIP3   OH226370   6.157   1.107   4.870 -0.2808 -0.5871  0.8410
 1652TIP3    H126371   6.239   1.123   4.822  0.2834 -0.4007  1.8415
 1652TIP3    H226372   6.130   1.020   4.842 -0.7065  0.0460 -0.8474
 1653TIP3   OH226373   0.833   3.787   3.692  0.1210 -0.1593 -0.4024
 1653TIP3    H126374   0.773   3.847   3.649  2.4169  0.5597 -2.8848
 1653TIP3    H226375   0.863   3.834   3.770 -1.2847  0.1081 -0.0066
 1654TIP3   OH226376   3.115   5.053   3.518  0.1541 -0.1979  0.0530
 1654TIP3    H126377   3.019   5.055   3.513  0.1261  0.7484  0.6600
 1654TIP3    H226378   3.135   4.972   3.565 -0.3606 -0.2398  0.2086
 1655TIP3   OH226379   0.654   3.787   4.887 -0.3418 -0.0091  0.0075
 1655TIP3    H126380   0.649   3.741   4.803  1.9078  1.0360 -0.7846
 1655TIP3    H226381   0.731   3.750   4.929  2.0990  3.3764 -1.0247
 1656TIP3   OH226382   3.228   4.656   1.744  0.3726  0.8191 -0.0389
 1656TIP3    H126383   3.317   4.624   1.759  0.0395 -0.0023  0.2744
 1656TIP3    H226384   3.213   4.645   1.650  0.8942  1.7747 -0.2486
 1657TIP3   OH226385   3.473   3.640   0.417  0.0907  0.1520 -0.4215
 1657TIP3    H126386   3.409   3.669   0.483  1.0767  1.1267  0.1475
 1657TIP3    H226387   3.474   3.545   0.425  0.7725  0.2694  1.5868
 1658TIP3   OH226388   1.234   1.364  10.669 -0.1304  0.3575 -0.0407
 1658TIP3    H126389   1.302   1.350  10.603  0.4953  0.4138  0.5773
 1658TIP3    H226390   1.280   1.356  10.753 -1.0993 -0.6980  0.4134
 1659TIP3   OH226391   0.765   6.536  13.366  0.1256  0.4761 -0.5261
 1659TIP3    H126392   0.711   6.601  13.409 -3.7658 -2.3260 -0.6989
 1659TIP3    H226393   0.827   6.507  13.433 -2.2650 -0.0244  1.5819
 1660TIP3   OH226394   6.056   0.502   3.261 -0.3997  0.5610  0.3112
 1660TIP3    H126395   5.986   0.519   3.197 -1.5851  2.3452  1.9860
 1660TIP3    H226396   6.016   0.520   3.346  0.6427 -3.2130  1.8162
 1661TIP3   OH226397   0.587   4.773   1.313  0.0312  0.3733  0.2908
 1661TIP3    H126398   0.595   4.831   1.388 -1.9424 -0.4184  1.1584
 1661TIP3    H226399   0.513   4.716   1.333  0.1280 -0.5884 -1.7780
 1662TIP3   OH226400   0.267   1.513   4.149  0.1279  0.4695 -0.0185
 1662TIP3    H126401   0.240   1.475   4.232 -5.1971  2.3873 -0.5047
 1662TIP3    H226402   0.248   1.445   4.084 -3.2280  1.4793 -0.2519
 1663TIP3   OH226403   6.497   0.338  14.352 -0.2580  0.5894  1.0126
 1663TIP3    H126404   6.411   0.358  14.386 -0.5310  1.5964 -0.1927
 1663TIP3    H226405   6.485   0.331  14.257  0.7589 -0.4772  0.9319
 1664TIP3   OH226406   4.532   5.157  14.365 -0.1131  0.6115  0.3803
 1664TIP3    H126407   4.624   5.153  14.340 -0.2562  2.0870 -0.5121
 1664TIP3    H226408   4.488   5.099  14.303  0.3954 -1.8861  2.1734
 1665TIP3   OH226409   2.738   3.800  16.394  0.2805 -0.5729 -0.2863
 1665TIP3    H126410   2.811   3.738  16.396  2.3090  1.6283 -1.1794
 1665TIP3    H226411   2.748   3.847  16.311 -1.6525  0.4147 -0.0227
 1666TIP3   OH226412   0.928   4.587  11.824 -0.0554  0.1944  0.3999
 1666TIP3    H126413   0.877   4.578  11.744  2.3685 -1.1435 -1.0831
 1666TIP3    H226414   0.938   4.682  11.835 -0.9282  0.4127 -0.5153
 1667TIP3   OH226415   2.687   3.150  12.133 -0.7967  0.1148  0.8720
 1667TIP3    H126416   2.614   3.137  12.073  0.5507  0.4295 -0.8956
 1667TIP3    H226417   2.646   3.185  12.213 -2.5711  0.1976 -0.0297
 1668TIP3   OH226418   3.776   2.509  13.441  0.2311 -0.2451  0.0723
 1668TIP3    H126419   3.801   2.565  13.367 -0.6988  0.3996  0.2281
 1668TIP3    H226420   3.721   2.565  13.496 -0.4858 -1.2212  0.3852
 1669TIP3   OH226421   3.065   0.703   2.758  0.0347 -0.3916 -0.1399
 1669TIP3    H126422   3.148   0.679   2.799 -0.6192 -1.9569  0.3431
 1669TIP3    H226423   3.033   0.777   2.810  0.7736 -0.2580  0.1310
 1670TIP3   OH226424   6.613   1.733   3.997  0.4169 -0.3156 -0.5327
 1670TIP3    H126425   6.660   1.661   4.037  0.8969 -0.3285 -1.1087
 1670TIP3    H226426   6.655   1.746   3.912  0.1890  0.4851 -0.5384
 1671TIP3   OH226427   5.480   5.247  13.701 -0.9184 -0.5112 -0.2010
 1671TIP3    H126428   5.391   5.217  13.685 -0.8161 -0.5482 -0.7358
 1671TIP3    H226429   5.529   5.219  13.623 -0.8331  1.0983 -0.7573
 1672TIP3   OH226430   5.142   2.713  14.533 -0.0559  0.0236 -0.1166
 1672TIP3    H126431   5.115   2.785  14.591  0.3909 -0.5568  0.8450
 1672TIP3    H226432   5.169   2.757  14.452 -1.5418  0.7907 -0.2299
 1673TIP3   OH226433   3.314   1.666  12.648  0.0772 -0.4379  0.0239
 1673TIP3    H126434   3.234   1.717  12.658 -0.2661 -0.6819 -1.3574
 1673TIP3    H226435   3.327   1.626  12.734  0.1473  1.6127  1.0271
 1674TIP3   OH226436   5.152   0.734   5.680 -0.6659 -0.2114  0.1150
 1674TIP3    H126437   5.102   0.654   5.697  1.5692 -1.5191  0.9993
 1674TIP3    H226438   5.199   0.751   5.762  0.9678  0.4407 -0.9127
 1675TIP3   OH226439   2.640   6.318   3.407 -0.2281  0.0363 -0.0410
 1675TIP3    H126440   2.632   6.410   3.383 -0.6508 -0.1575 -0.6732
 1675TIP3    H226441   2.573   6.273   3.355 -1.5795 -0.3559  1.9186
 1676TIP3   OH226442   5.163   6.370   3.142 -0.1373  0.0101 -0.1020
 1676TIP3    H126443   5.210   6.288   3.156 -0.4716 -0.2324 -0.3928
 1676TIP3    H226444   5.138   6.368   3.050 -0.6085  0.1956  0.0207
 1677TIP3   OH226445   5.767   6.189   2.176 -0.6185 -0.5723 -0.2838
 1677TIP3    H126446   5.691   6.232   2.136 -0.3667 -1.0027 -1.2452
 1677TIP3    H226447   5.835   6.256   2.173 -0.9041 -0.2248  0.4752
 1678TIP3   OH226448   5.145   6.594  16.312 -0.4875 -0.4465  0.2748
 1678TIP3    H126449   5.120   6.526  16.250 -2.3188  0.7598 -0.3864
 1678TIP3    H226450   5.062   6.624  16.349  0.5146 -1.1478  3.4027
 1679TIP3   OH226451   2.535   6.411   0.672  0.8461  0.1976 -0.4317
 1679TIP3    H126452   2.489   6.431   0.754 -0.1534  1.2987 -1.2177
 1679TIP3    H226453   2.470   6.367   0.618  0.7355  1.5794 -1.4814
 1680TIP3   OH226454   4.872   2.113   5.488  0.1556  0.1942  0.3627
 1680TIP3    H126455   4.964   2.102   5.512 -0.4189 -2.3963  1.8329
 1680TIP3    H226456   4.827   2.125   5.572 -1.2027 -2.4373  0.1375
 1681TIP3   OH226457   3.813   4.294   3.059  0.5691 -0.5250  0.2543
 1681TIP3    H126458   3.729   4.263   3.027  0.4778  1.0544 -1.2045
 1681TIP3    H226459   3.850   4.344   2.986  2.3450 -0.3903  1.1835
 1682TIP3   OH226460   4.592   0.694  15.847  0.4035  0.6699  0.3640
 1682TIP3    H126461   4.682   0.661  15.840  0.5520  1.1793 -0.1816
 1682TIP3    H226462   4.551   0.637  15.912  1.3348  0.9034  1.1726
 1683TIP3   OH226463   2.707   6.699  12.767  0.1550 -0.1147  0.0668
 1683TIP3    H126464   2.766   6.636  12.725  2.5116  0.9339  1.5947
 1683TIP3    H226465   2.730   6.783  12.728  0.6130  0.5008  1.5807
 1684TIP3   OH226466   5.819   0.005   4.457  0.0478 -0.1832  0.5081
 1684TIP3    H126467   5.789  -0.085   4.453  2.1099 -0.8992 -2.5172
 1684TIP3    H226468   5.748   0.052   4.501 -1.9615 -2.9225  0.4686
 1685TIP3   OH226469   0.544   0.829   1.192 -0.4251 -0.2331  0.1843
 1685TIP3    H126470   0.613   0.893   1.181 -0.7559  0.1043  0.0469
 1685TIP3    H226471   0.480   0.850   1.123  0.3052 -1.8311 -1.0728
 1686TIP3   OH226472   0.812   3.490   3.289  0.7864 -0.3074 -0.4242
 1686TIP3    H126473   0.717   3.477   3.300  0.6806  1.1747  0.7119
 1686TIP3    H226474   0.820   3.526   3.200  0.4427 -1.6504 -1.0233
 1687TIP3   OH226475   4.164   6.309  15.015  0.0656  0.4551  0.4049
 1687TIP3    H126476   4.073   6.325  15.037  0.1232  0.2569  0.7770
 1687TIP3    H226477   4.165   6.222  14.976  0.0098  0.6857 -0.1226
 1688TIP3   OH226478   4.471   6.100   4.642 -0.1372  0.4778  0.0433
 1688TIP3    H126479   4.535   6.156   4.685  0.3202  0.4444 -0.5815
 1688TIP3    H226480   4.387   6.144   4.656  0.0527  0.6586  0.6406
 1689TIP3   OH226481   4.747   2.659  11.327  1.0157  0.3178 -0.2430
 1689TIP3    H126482   4.756   2.613  11.410  1.3202 -0.5926 -0.7717
 1689TIP3    H226483   4.700   2.599  11.270  3.8777 -0.6271 -1.8569
 1690TIP3   OH226484   3.840   3.733  11.708  0.1980 -0.2261 -0.4618
 1690TIP3    H126485   3.887   3.670  11.762  0.5278  1.0425  0.7954
 1690TIP3    H226486   3.909   3.777  11.658 -0.1313 -1.5920 -2.1962
 1691TIP3   OH226487   5.006   5.293   2.790  0.2086  0.1354 -0.2768
 1691TIP3    H126488   5.034   5.236   2.718 -0.6806 -0.6901  0.0068
 1691TIP3    H226489   5.057   5.373   2.779 -0.3964  0.2958 -2.2220
 1692TIP3   OH226490   6.646   4.417   1.851 -0.2909  0.6434 -0.3535
 1692TIP3    H126491   6.615   4.473   1.780  1.0353  1.4036 -0.3668
 1692TIP3    H226492   6.682   4.478   1.916 -1.4052 -0.0367  0.9665
 1693TIP3   OH226493   1.677   1.018   3.565 -0.3711 -0.1915  0.4762
 1693TIP3    H126494   1.622   1.090   3.534  0.1852  0.4045  0.8597
 1693TIP3    H226495   1.660   0.947   3.503 -1.2259  0.1345  0.3236
 1694TIP3   OH226496   2.022   3.784  15.755  0.1802 -0.4648  0.6253
 1694TIP3    H126497   1.987   3.732  15.827 -0.4425  0.3435  0.9257
 1694TIP3    H226498   2.023   3.725  15.680  2.4965 -1.8927  1.6600
 1695TIP3   OH226499   5.310   3.277   2.332  0.0880  0.1913  0.1758
 1695TIP3    H126500   5.262   3.223   2.269  0.0765  1.2727 -0.7813
 1695TIP3    H226501   5.323   3.360   2.286  2.4540  0.1073  0.5774
 1696TIP3   OH226502   3.548   4.672  11.484 -0.0056  0.8619 -0.4038
 1696TIP3    H126503   3.492   4.746  11.460 -0.0192  0.7214 -0.8174
 1696TIP3    H226504   3.536   4.609  11.413  1.2099  1.1258 -0.8828
 1697TIP3   OH226505   5.522   5.592  15.595 -0.2209  0.4008  0.0210
 1697TIP3    H126506   5.608   5.587  15.553  0.5544 -0.0522  1.5557
 1697TIP3    H226507   5.540   5.570  15.687 -1.7549  1.7125  0.6703
 1698TIP3   OH226508   0.495   0.426  16.456 -0.2480 -0.2488  0.0412
 1698TIP3    H126509   0.431   0.442  16.525 -1.0262 -0.1832 -0.6882
 1698TIP3    H226510   0.560   0.495  16.467 -1.8606  1.5362 -1.0399
 1699TIP3   OH226511   0.199   0.922  16.677 -0.5076 -0.3096 -0.1665
 1699TIP3    H126512   0.171   0.834  16.651 -0.0686 -0.0928 -1.4667
 1699TIP3    H226513   0.123   0.977  16.658 -0.4822 -0.2785 -0.1772
 1700TIP3   OH226514   0.586   2.017  11.300 -0.4466  0.1878  0.4869
 1700TIP3    H126515   0.522   2.030  11.370 -0.2745  0.8298  0.5292
 1700TIP3    H226516   0.606   1.924  11.304  0.2310  0.3608  1.8927
 1701TIP3   OH226517   5.456   1.565  16.135  0.1182 -0.3439  0.1951
 1701TIP3    H126518   5.385   1.625  16.110 -0.5115 -0.6857  1.0914
 1701TIP3    H226519   5.519   1.620  16.182  0.2121 -0.1244 -0.1903
 1702TIP3   OH226520   4.742   1.990   1.937  0.1604 -0.4232 -0.2577
 1702TIP3    H126521   4.748   1.961   2.028 -0.0808 -0.0141 -0.1044
 1702TIP3    H226522   4.806   1.938   1.890  1.9154  0.9047  0.5445
 1703TIP3   OH226523   0.348   1.885   0.354  0.6318 -0.0105  0.0819
 1703TIP3    H126524   0.303   1.953   0.304  0.3546 -0.4587 -0.2837
 1703TIP3    H226525   0.382   1.825   0.287 -0.2804 -0.9597  0.4524
 1704TIP3   OH226526   1.590   5.664  14.536  0.1834 -0.1764 -0.1281
 1704TIP3    H126527   1.498   5.671  14.508 -0.2155 -1.2097  0.8191
 1704TIP3    H226528   1.620   5.754  14.541 -0.9335  0.2143 -0.0277
 1705TIP3   OH226529   5.180   0.968   5.232  0.1458  0.2890 -0.0109
 1705TIP3    H126530   5.114   0.899   5.239 -1.4439  1.7515 -0.0641
 1705TIP3    H226531   5.227   0.964   5.316  0.3114 -1.0481 -0.1405
 1706TIP3   OH226532   3.572   2.756  16.793 -0.1121 -0.1788 -0.3909
 1706TIP3    H126533   3.590   2.845  16.825 -2.1578  1.7577 -3.9093
 1706TIP3    H226534   3.659   2.718  16.778  0.8360  1.5116  0.5386
 1707TIP3   OH226535   3.744   1.156  13.087  0.4092  0.2970  0.2243
 1707TIP3    H126536   3.765   1.151  13.180 -2.1486  2.8914  1.0676
 1707TIP3    H226537   3.663   1.105  13.079  0.1903  0.7493 -0.4316
 1708TIP3   OH226538   5.525   2.772   3.463  0.1625  0.3602 -0.2402
 1708TIP3    H126539   5.474   2.830   3.406  1.6479  0.3392 -1.6643
 1708TIP3    H226540   5.584   2.831   3.510  2.0823  0.0860 -2.1126
 1709TIP3   OH226541   4.700   0.449  13.788 -0.3398  0.0911  0.0810
 1709TIP3    H126542   4.715   0.476  13.878  0.3377 -0.5848  0.1862
 1709TIP3    H226543   4.778   0.398  13.765 -1.3751 -1.4038 -0.2430
 1710TIP3   OH226544   1.065   0.490   0.093 -0.3177  0.6180 -0.3362
 1710TIP3    H126545   1.121   0.555   0.136  0.4790  0.9239 -1.7709
 1710TIP3    H226546   1.101   0.406   0.120 -0.0238  0.7946 -0.1703
 1711TIP3   OH226547   4.999   3.539   4.373 -0.2008 -0.1688 -0.7958
 1711TIP3    H126548   5.044   3.607   4.323  0.5912 -0.7556 -0.8984
 1711TIP3    H226549   4.981   3.579   4.458 -0.2066  0.3372 -1.0337
 1712TIP3   OH226550   4.621   3.198  11.913 -0.1032  0.2876  0.5887
 1712TIP3    H126551   4.529   3.188  11.892  0.2075 -1.6359 -0.0760
 1712TIP3    H226552   4.652   3.266  11.852 -0.9456  0.5225  0.4065
 1713TIP3   OH226553   4.567   5.673  14.159 -0.3279  0.4554 -0.3974
 1713TIP3    H126554   4.511   5.597  14.174  0.6357  0.0684  1.6183
 1713TIP3    H226555   4.629   5.644  14.092 -1.5969  0.3919 -1.5732
 1714TIP3   OH226556   5.256   5.589   5.413  0.3254  0.6443  0.3703
 1714TIP3    H126557   5.251   5.630   5.500 -0.1610 -0.2877  0.7960
 1714TIP3    H226558   5.206   5.648   5.356  2.3501  2.3683  0.2420
 1715TIP3   OH226559   4.581   4.291  11.064  0.4352  0.0240 -0.0158
 1715TIP3    H126560   4.650   4.236  11.101  0.1739  0.2264  0.7832
 1715TIP3    H226561   4.628   4.360  11.018  0.7994  0.9743  1.7124
 1716TIP3   OH226562   1.399   2.181  10.678  0.2414  0.0504 -0.2505
 1716TIP3    H126563   1.353   2.238  10.616  2.8244 -0.4059 -2.8115
 1716TIP3    H226564   1.354   2.097  10.670 -0.3492  0.3742 -0.4236
 1717TIP3   OH226565   1.192   6.425   2.181 -0.2244 -0.0418  0.5464
 1717TIP3    H126566   1.150   6.375   2.251  1.6736 -1.5160  0.7225
 1717TIP3    H226567   1.283   6.434   2.209  0.3022  0.3771 -1.1724
 1718TIP3   OH226568   2.874   1.460  15.062  0.2320  0.3076  0.0234
 1718TIP3    H126569   2.828   1.495  14.986  0.3394 -0.0639 -0.2175
 1718TIP3    H226570   2.812   1.397  15.100 -0.7437  2.0949  1.5723
 1719TIP3   OH226571   3.796   5.470  12.366 -0.2743 -0.1372 -0.4988
 1719TIP3    H126572   3.873   5.415  12.350 -0.1025  0.3835 -1.5461
 1719TIP3    H226573   3.733   5.410  12.406 -0.7068 -1.6114 -3.1230
 1720TIP3   OH226574   6.337   4.509  15.030 -0.3844  0.0734 -0.3335
 1720TIP3    H126575   6.429   4.529  15.016 -0.7322 -0.1373 -3.7985
 1720TIP3    H226576   6.332   4.413  15.030 -0.4367  0.0323  1.8081
 1721TIP3   OH226577   6.298   5.584  12.266  0.5106  0.8972  0.5672
 1721TIP3    H126578   6.268   5.521  12.202  1.1538  1.6266 -0.4898
 1721TIP3    H226579   6.296   5.538  12.350  0.5376 -0.3600 -0.1154
 1722TIP3   OH226580   6.003   2.953  17.244  0.0545 -0.1787  0.2245
 1722TIP3    H126581   6.047   3.018  17.298 -0.0528  0.5352 -0.5233
 1722TIP3    H226582   6.014   2.871  17.291  0.4584  0.3283  1.0339
 1723TIP3   OH226583   3.047   4.438   1.494 -0.0525  0.1526 -0.0960
 1723TIP3    H126584   3.033   4.479   1.409 -0.4563 -1.8008 -1.0304
 1723TIP3    H226585   3.140   4.417   1.495  0.2276  1.3259  0.5284
 1724TIP3   OH226586   0.549   1.527  14.062  0.0968 -0.4518 -0.4726
 1724TIP3    H126587   0.582   1.570  13.983 -0.6210  0.3472 -0.3477
 1724TIP3    H226588   0.619   1.540  14.127  0.6807 -1.0950 -0.9574
 1725TIP3   OH226589   3.618   3.990   0.085 -0.1545 -0.2045 -0.1748
 1725TIP3    H126590   3.529   4.001   0.050 -1.2157  0.5569  2.4808
 1725TIP3    H226591   3.656   4.078   0.082  0.3126 -0.4164 -0.7357
 1726TIP3   OH226592   2.166   4.955  16.868  0.0208 -0.1185  0.2271
 1726TIP3    H126593   2.259   4.943  16.889  0.0233  0.3974  0.5239
 1726TIP3    H226594   2.123   4.878  16.905  0.2016  0.1423  1.0059
 1727TIP3   OH226595   0.887   5.203   4.484 -0.4486  0.4387  0.4803
 1727TIP3    H126596   0.888   5.296   4.459 -0.9617  0.6690  1.2639
 1727TIP3    H226597   0.794   5.180   4.486 -0.6744  1.0387  4.1164
 1728TIP3   OH226598   0.514   4.016  15.017 -0.0610  0.3235  0.3839
 1728TIP3    H126599   0.545   3.966  15.092  0.2424 -0.3621 -0.1896
 1728TIP3    H226600   0.476   4.095  15.055 -0.9325 -0.5278  1.3287
 1729TIP3   OH226601   2.065   0.108  11.553  0.1371  0.5324  0.0394
 1729TIP3    H126602   1.973   0.125  11.569 -0.0831 -0.9326  0.4691
 1729TIP3    H226603   2.110   0.146  11.628 -0.2061  0.4544  0.2882
 1730TIP3   OH226604   4.238   5.134   3.623  0.4109  0.1949 -0.0461
 1730TIP3    H126605   4.173   5.063   3.621 -0.0746  0.5873  0.8537
 1730TIP3    H226606   4.318   5.095   3.589  0.1220 -0.7600  0.3367
 1731TIP3   OH226607   6.624   4.467  14.964 -0.3377 -0.0754  0.2769
 1731TIP3    H126608   6.707   4.514  14.958  0.3798 -1.3808 -0.5239
 1731TIP3    H226609   6.592   4.462  14.874 -0.0379 -1.6821  0.2243
 1732TIP3   OH226610   4.254   3.079   0.638  0.1979 -0.7193 -0.1700
 1732TIP3    H126611   4.236   3.160   0.589 -0.7296 -0.3394  0.7757
 1732TIP3    H226612   4.347   3.063   0.622  0.6484  1.0726  0.3823
 1733TIP3   OH226613   3.270   5.568   1.427 -0.5043  0.0285  0.6002
 1733TIP3    H126614   3.280   5.663   1.431  1.6041 -0.1098 -0.1738
 1733TIP3    H226615   3.235   5.544   1.513  1.2598  1.3030  1.7562
 1734TIP3   OH226616   5.649   0.283   4.380 -0.0941 -0.0132 -0.2766
 1734TIP3    H126617   5.626   0.252   4.467 -2.9022 -3.2769 -1.9202
 1734TIP3    H226618   5.601   0.365   4.369 -0.7799 -0.2698  0.7617
 1735TIP3   OH226619   5.403   0.398  14.980  0.3237  0.0404  0.4022
 1735TIP3    H126620   5.312   0.387  15.006  0.0631 -2.8933 -1.3340
 1735TIP3    H226621   5.452   0.337  15.035  1.2931  1.5778  1.3104
 1736TIP3   OH226622   1.673   2.358   0.089 -0.3295 -0.1027 -0.0274
 1736TIP3    H126623   1.619   2.341   0.011  1.3780 -1.0337 -1.0945
 1736TIP3    H226624   1.749   2.405   0.055 -0.8686  2.1001  1.5939
 1737TIP3   OH226625   2.848   6.749   5.554  0.0642 -0.3665  0.5485
 1737TIP3    H126626   2.814   6.836   5.575 -0.1532  0.1023 -1.4986
 1737TIP3    H226627   2.802   6.724   5.474  3.0613 -0.5238 -1.2939
 1738TIP3   OH226628   3.944   4.616   3.696 -0.0739  0.0420  0.4904
 1738TIP3    H126629   3.950   4.555   3.769  1.1912  0.0217  0.3878
 1738TIP3    H226630   4.012   4.588   3.635 -0.3320  0.7728 -0.1545
 1739TIP3   OH226631   3.199   1.080   4.977  0.2512  0.5135 -0.0256
 1739TIP3    H126632   3.109   1.110   4.988  0.5164  1.4000 -0.1175
 1739TIP3    H226633   3.211   1.013   5.044 -0.3905  0.5849  0.1680
 1740TIP3   OH226634   1.545   2.323  11.182 -0.5345 -0.2008  0.7240
 1740TIP3    H126635   1.461   2.367  11.173  0.3272  1.2473 -0.7721
 1740TIP3    H226636   1.523   2.235  11.213 -2.8388 -0.7626 -2.1079
 1741TIP3   OH226637   0.277   3.676  16.660  0.4558  0.1416  0.2131
 1741TIP3    H126638   0.210   3.631  16.710  0.8072  1.5671  2.0800
 1741TIP3    H226639   0.296   3.618  16.586 -2.9424 -0.2247 -0.5354
 1742TIP3   OH226640   6.033   2.262   2.915  0.0081 -0.3342 -0.0867
 1742TIP3    H126641   6.022   2.224   2.827 -0.0474 -0.9608  0.1838
 1742TIP3    H226642   5.957   2.319   2.926 -0.3172 -0.7432 -0.2030
 1743TIP3   OH226643   2.468   4.772  15.118  0.3235  0.3259  0.4139
 1743TIP3    H126644   2.531   4.839  15.092 -0.5930  1.1447  0.2526
 1743TIP3    H226645   2.383   4.806  15.090 -0.1264 -1.1200 -0.0919
 1744TIP3   OH226646   0.349   1.556   1.794  0.0453 -0.2915  0.7379
 1744TIP3    H126647   0.295   1.575   1.717  2.1689 -0.3793 -0.8315
 1744TIP3    H226648   0.315   1.615   1.862 -2.1437 -0.5151 -0.0902
 1745TIP3   OH226649   5.192   3.428  12.365  0.2585  0.2876  0.7882
 1745TIP3    H126650   5.162   3.507  12.319  0.5873 -0.1410 -0.1934
 1745TIP3    H226651   5.131   3.359  12.336  1.0110 -0.1792  0.2729
 1746TIP3   OH226652   1.418   2.840   0.858  0.5008  0.5171  0.2849
 1746TIP3    H126653   1.469   2.859   0.936  0.7386  1.5362 -0.1048
 1746TIP3    H226654   1.327   2.837   0.889  0.6951 -0.3597  0.8109
 1747TIP3   OH226655   0.031   4.228   5.803  0.0450 -0.0657 -0.0456
 1747TIP3    H126656  -0.024   4.166   5.756 -0.3047 -0.4245  0.8126
 1747TIP3    H226657   0.024   4.309   5.753 -1.0066 -0.1981 -0.1252
 1748TIP3   OH226658   5.775   0.955   5.095 -0.5490 -0.1492  0.1177
 1748TIP3    H126659   5.829   0.881   5.068 -0.8960 -0.1955 -0.4841
 1748TIP3    H226660   5.832   1.031   5.087 -0.9177 -0.0116 -1.8285
 1749TIP3   OH226661   1.318   5.504  12.563 -0.3551 -0.4776  0.0195
 1749TIP3    H126662   1.277   5.501  12.650 -2.1770  1.2662 -0.7111
 1749TIP3    H226663   1.254   5.461  12.506  0.4470 -0.8388 -0.6253
 1750TIP3   OH226664   5.773   4.150   6.353 -0.0539  0.0720 -0.2370
 1750TIP3    H126665   5.762   4.055   6.365 -0.9298  0.2804  0.6921
 1750TIP3    H226666   5.865   4.166   6.371 -0.2316 -0.3871  1.1930
 1751TIP3   OH226667   1.265   5.484  14.315  0.2077  0.1416  0.0491
 1751TIP3    H126668   1.288   5.574  14.335 -1.5040  1.0620 -1.7420
 1751TIP3    H226669   1.230   5.449  14.397 -1.9631  2.1404  0.0764
 1752TIP3   OH226670   0.186   4.844  16.304 -0.3129  0.2011 -0.5393
 1752TIP3    H126671   0.240   4.920  16.284  0.1536 -0.2050 -0.8459
 1752TIP3    H226672   0.109   4.853  16.249 -0.3789  0.5896 -0.3803
 1753TIP3   OH226673   6.280   3.013  16.796 -0.0169 -0.6810 -0.2823
 1753TIP3    H126674   6.229   2.935  16.818  0.8650 -1.7358 -1.7638
 1753TIP3    H226675   6.226   3.061  16.733 -2.3100  2.0695  3.3576
 1754TIP3   OH226676   4.330   2.208   4.878  0.1035 -0.1752  0.3259
 1754TIP3    H126677   4.368   2.151   4.945 -1.6077 -0.4196  1.1471
 1754TIP3    H226678   4.252   2.161   4.848 -0.1786  0.7890 -0.5042
 1755TIP3   OH226679   5.293   6.123   3.068  0.3431 -0.1108  0.5283
 1755TIP3    H126680   5.202   6.093   3.064  0.7522 -1.6168  1.7176
 1755TIP3    H226681   5.311   6.132   3.162  1.1796  1.0263  0.2831
 1756TIP3   OH226682   0.120   4.252   2.424  0.4408  0.1905 -0.2491
 1756TIP3    H126683   0.095   4.343   2.411  0.9818  0.0887 -2.4859
 1756TIP3    H226684   0.141   4.245   2.517 -0.7079  2.0487  0.1876
 1757TIP3   OH226685   3.472   3.609  12.612 -0.2672  0.3735  1.0708
 1757TIP3    H126686   3.447   3.558  12.689 -0.5705 -2.7583 -0.8953
 1757TIP3    H226687   3.389   3.628  12.568  0.0536 -1.4796 -0.4769
 1758TIP3   OH226688   5.350   0.375   6.418 -0.3183 -0.0693  0.1030
 1758TIP3    H126689   5.418   0.362   6.483  0.2386  0.5595 -0.3366
 1758TIP3    H226690   5.294   0.444   6.455  0.7194  1.2075 -0.6013
 1759TIP3   OH226691   5.570   3.190  15.983 -0.8176  0.2523 -0.0380
 1759TIP3    H126692   5.649   3.152  16.021  1.1632  1.2525 -2.8975
 1759TIP3    H226693   5.550   3.135  15.908 -1.8386  1.0374 -0.3653
 1760TIP3   OH226694   1.557   2.539  15.112  0.5628  0.2029  0.3503
 1760TIP3    H126695   1.466   2.531  15.084  0.4035 -0.0976  0.9429
 1760TIP3    H226696   1.565   2.479  15.186  1.4349 -0.3458 -0.1649
 1761TIP3   OH226697   0.941   2.174   3.055  0.7465 -0.2751  0.4331
 1761TIP3    H126698   0.845   2.176   3.056  0.7186 -0.0780 -0.7475
 1761TIP3    H226699   0.962   2.082   3.038  0.6823  0.0454 -1.6647
 1762TIP3   OH226700   1.923   1.914   4.436 -0.1076 -0.1012  0.7883
 1762TIP3    H126701   1.846   1.858   4.430 -1.7905  2.2109 -0.3662
 1762TIP3    H226702   1.922   1.946   4.526  0.9914 -1.9466  1.5283
 1763TIP3   OH226703   6.137   4.098   3.224 -0.2435  0.5282  0.2635
 1763TIP3    H126704   6.175   4.096   3.312 -2.0822 -0.1564  1.0819
 1763TIP3    H226705   6.212   4.086   3.165  1.0731  1.3457  1.6899
 1764TIP3   OH226706   2.521   6.210   1.027  0.6458  0.3219  0.2167
 1764TIP3    H126707   2.439   6.170   0.999  0.3231  1.0573  0.0725
 1764TIP3    H226708   2.586   6.176   0.966  0.5340 -0.6043  0.6007
 1765TIP3   OH226709   6.545   3.602  12.523 -0.1390 -0.1957 -0.1927
 1765TIP3    H126710   6.639   3.589  12.540 -0.1448 -0.3201 -0.2519
 1765TIP3    H226711   6.501   3.564  12.599 -0.1384 -0.0921 -0.1417
 1766TIP3   OH226712   0.848   6.000  13.787  0.8657 -0.4800  0.2537
 1766TIP3    H126713   0.778   5.948  13.747  0.5893 -0.4780  0.7191
 1766TIP3    H226714   0.922   5.992  13.727  0.0536  0.6286 -0.9537
 1767TIP3   OH226715   4.101   1.547   1.244 -0.1346  0.3833 -0.9426
 1767TIP3    H126716   4.190   1.578   1.260 -0.4096  0.4284  0.6672
 1767TIP3    H226717   4.045   1.619   1.276 -0.7925 -1.5756  2.9018
 1768TIP3   OH226718   5.175   2.245   4.079 -0.0387  0.2791  0.3712
 1768TIP3    H126719   5.130   2.243   4.163 -1.1394  4.0402  0.0498
 1768TIP3    H226720   5.105   2.237   4.014  0.6515 -1.1544 -0.2518
 1769TIP3   OH226721   5.685   5.257  13.029 -0.2905 -0.3425 -0.1475
 1769TIP3    H126722   5.770   5.283  13.064 -0.3424  0.2242 -0.4298
 1769TIP3    H226723   5.703   5.235  12.938  0.1583 -3.4241  0.5857
 1770TIP3   OH226724   5.365   6.452   1.338 -0.7398  0.2192  0.6898
 1770TIP3    H126725   5.327   6.509   1.271 -0.5889  0.3565  0.7196
 1770TIP3    H226726   5.290   6.405   1.375 -0.5027 -2.3608 -1.8554
 1771TIP3   OH226727   1.361   6.226  12.429 -0.1596  0.1854  0.3023
 1771TIP3    H126728   1.376   6.283  12.353  1.1599 -0.2657  0.2129
 1771TIP3    H226729   1.299   6.275  12.483 -0.1976  1.0412 -0.4891
 1772TIP3   OH226730   0.204   3.582  12.171 -0.3501  0.8249 -0.1076
 1772TIP3    H126731   0.251   3.506  12.206 -0.2005  0.8411 -0.2697
 1772TIP3    H226732   0.175   3.630  12.248 -3.0991 -0.9615  0.0996
 1773TIP3   OH226733   0.630   3.802   5.311  0.3622  0.2844 -0.5390
 1773TIP3    H126734   0.596   3.740   5.246 -0.6218 -0.2160  0.4251
 1773TIP3    H226735   0.669   3.747   5.378  0.5008  0.7569 -0.2275
 1774TIP3   OH226736   0.562   4.905  14.560 -0.1386 -0.0731  0.3209
 1774TIP3    H126737   0.644   4.874  14.522 -0.3159 -1.2384  0.8513
 1774TIP3    H226738   0.498   4.836  14.539 -0.4801 -0.2200  1.7650
 1775TIP3   OH226739   5.797   5.602  12.657  0.2571  0.2066  0.1155
 1775TIP3    H126740   5.886   5.584  12.628 -0.2953  0.3264 -1.7682
 1775TIP3    H226741   5.773   5.683  12.612 -0.5320  0.6412  1.2600
 1776TIP3   OH226742   6.306   0.075   5.360  0.2101  0.5718  0.4078
 1776TIP3    H126743   6.233   0.120   5.402 -0.4744  0.4743 -0.6371
 1776TIP3    H226744   6.361   0.047   5.433 -0.2255  1.5949  1.1618
 1777TIP3   OH226745   6.221   6.011   4.685  0.3441 -0.8270 -0.0138
 1777TIP3    H126746   6.167   6.012   4.607  0.5743  0.4776 -0.1869
 1777TIP3    H226747   6.162   5.984   4.755 -0.7329  1.1313 -0.0964
 1778TIP3   OH226748   5.717   2.219   3.050  0.2559 -0.7573 -0.2074
 1778TIP3    H126749   5.623   2.233   3.034  0.4088  0.7850  0.0972
 1778TIP3    H226750   5.760   2.277   2.988  0.9462  1.0731  1.8803
 1779TIP3   OH226751   2.333   0.545   4.294 -0.2664  0.0519 -0.5713
 1779TIP3    H126752   2.349   0.592   4.212 -0.3644  2.7462  0.8456
 1779TIP3    H226753   2.351   0.610   4.363 -1.6738 -1.6331  1.5174
 1780TIP3   OH226754   1.176   0.741  17.044  0.1173  0.1212 -0.2174
 1780TIP3    H126755   1.174   0.834  17.065  1.6051  0.4270 -1.2921
 1780TIP3    H226756   1.172   0.738  16.949 -1.4192 -1.0030 -0.1520
 1781TIP3   OH226757   3.601   6.501   2.286  0.1704 -0.4940  0.5536
 1781TIP3    H126758   3.574   6.557   2.359  0.0513  0.0046  0.1300
 1781TIP3    H226759   3.642   6.560   2.223  1.7633 -1.1494  0.9238
 1782TIP3   OH226760   4.556   0.345   4.162 -0.0163  0.4907 -0.6498
 1782TIP3    H126761   4.549   0.287   4.238 -0.9997  1.6732  0.2064
 1782TIP3    H226762   4.486   0.315   4.103 -1.5879  1.7624  0.4992
 1783TIP3   OH226763   0.440   2.891  15.899 -0.3066 -0.4977  0.2076
 1783TIP3    H126764   0.528   2.926  15.883 -0.1697 -1.3826 -1.1362
 1783TIP3    H226765   0.396   2.959  15.951  1.7345 -0.8490  2.5765
 1784TIP3   OH226766   2.540   6.690  15.825 -0.4570  0.0456 -0.0347
 1784TIP3    H126767   2.553   6.783  15.805  1.3381 -0.1565  0.0328
 1784TIP3    H226768   2.454   6.686  15.868 -1.5614  1.3458 -1.9819
 1785TIP3   OH226769   0.779   3.001  12.267  0.1088 -0.0934  0.2717
 1785TIP3    H126770   0.762   2.954  12.348  0.2583  0.5473  0.6824
 1785TIP3    H226771   0.700   2.987  12.214 -0.4457  0.3676  0.9613
 1786TIP3   OH226772   3.129   6.657  16.898 -0.0708 -0.7026 -0.1025
 1786TIP3    H126773   3.183   6.671  16.820  1.2703 -1.0389  0.7348
 1786TIP3    H226774   3.072   6.733  16.902 -0.5340 -0.9258 -1.6880
 1787TIP3   OH226775   3.925   5.118  11.957  0.0287  0.7058  0.0274
 1787TIP3    H126776   3.832   5.100  11.944  0.2854 -0.9699  0.3068
 1787TIP3    H226777   3.945   5.084  12.044  0.7279  1.8796  0.3548
 1788TIP3   OH226778   1.388   2.385   2.314 -0.7257 -0.1107 -0.0847
 1788TIP3    H126779   1.333   2.403   2.390 -0.4478  0.9714 -0.1274
 1788TIP3    H226780   1.394   2.468   2.268 -2.9787 -1.2573 -2.7416
 1789TIP3   OH226781   1.361   1.292  12.829 -0.9952 -0.0187 -0.0000
 1789TIP3    H126782   1.313   1.266  12.750  0.3175 -1.3946 -0.4038
 1789TIP3    H226783   1.294   1.327  12.888 -2.0951  0.4609 -1.4759
 1790TIP3   OH226784   1.389   0.517  13.883 -0.3074  0.3037  0.2172
 1790TIP3    H126785   1.323   0.479  13.941 -0.2679 -0.9091 -0.5065
 1790TIP3    H226786   1.470   0.516  13.935 -0.3119 -0.6009  0.2181
 1791TIP3   OH226787   6.529   3.686   5.062  0.0084 -0.6724  0.4019
 1791TIP3    H126788   6.592   3.759   5.057  0.8039 -1.1727  2.1223
 1791TIP3    H226789   6.563   3.621   5.000 -0.8041  0.4371 -1.2789
 1792TIP3   OH226790   2.420   1.239   6.132 -0.0855  0.2284  0.0821
 1792TIP3    H126791   2.405   1.190   6.051 -0.5863 -1.8146  1.3226
 1792TIP3    H226792   2.415   1.331   6.106 -1.2027 -0.3561 -2.0256
 1793TIP3   OH226793   2.585   2.248   0.996  0.2450 -0.0176 -0.0267
 1793TIP3    H126794   2.677   2.269   1.011  0.4879 -0.1830 -1.1639
 1793TIP3    H226795   2.567   2.174   1.053  0.3967  0.9347  1.3009
 1794TIP3   OH226796   3.369   3.942  17.215  0.3844  0.0003 -0.6989
 1794TIP3    H126797   3.318   3.897  17.147 -1.0285 -0.1601  0.4219
 1794TIP3    H226798   3.319   4.022  17.233  0.2113 -0.4264  0.8131
 1795TIP3   OH226799   4.267   1.576  16.141  0.3979  0.1400  0.6682
 1795TIP3    H126800   4.341   1.610  16.191 -0.2343 -0.7525  2.3144
 1795TIP3    H226801   4.260   1.484  16.169 -0.5274 -0.1495 -0.4346
 1796TIP3   OH226802   6.691   0.747  16.884  0.0412  0.3257  0.2070
 1796TIP3    H126803   6.615   0.793  16.919  0.3252 -0.0390  1.3226
 1796TIP3    H226804   6.672   0.739  16.790 -0.0263  2.6575 -0.0489
 1797TIP3   OH226805   5.941   4.185   2.997  0.1178 -0.9242  0.0392
 1797TIP3    H126806   5.908   4.183   2.907 -0.7197  0.3666  0.2856
 1797TIP3    H226807   5.880   4.243   3.044  0.6664 -1.3883  1.3874
 1798TIP3   OH226808   5.807   3.917  14.777  0.6393  0.3300 -0.5083
 1798TIP3    H126809   5.869   3.851  14.806 -1.7488 -0.9750  2.1297
 1798TIP3    H226810   5.803   3.980  14.849  1.6912  2.6054 -2.3072
 1799TIP3   OH226811   1.645   0.687   4.713 -0.1822  0.1462 -0.1662
 1799TIP3    H126812   1.567   0.729   4.750  1.4527  1.7595  1.7464
 1799TIP3    H226813   1.718   0.729   4.760  1.7525 -2.4902 -0.6350
 1800TIP3   OH226814   3.934   5.191   6.327 -0.2673 -0.5323 -0.1149
 1800TIP3    H126815   3.901   5.244   6.255  1.5464 -0.4982 -0.9585
 1800TIP3    H226816   3.910   5.102   6.304 -1.0645 -0.3758  0.0484
 1801TIP3   OH226817   6.386   6.432   3.643  0.2001  0.2616  0.1301
 1801TIP3    H126818   6.381   6.337   3.636 -0.0443  0.2919 -0.1347
 1801TIP3    H226819   6.443   6.448   3.718 -1.6806 -0.1104  1.6995
 1802TIP3   OH226820   2.170   6.670  14.230 -0.0460 -0.1628  0.3853
 1802TIP3    H126821   2.185   6.617  14.309  1.9259 -0.4298 -0.1060
 1802TIP3    H226822   2.257   6.702  14.206 -0.3340 -1.2968 -2.5282
 1803TIP3   OH226823   3.026   4.715   2.848  0.1277  0.0293  0.1942
 1803TIP3    H126824   2.946   4.720   2.796  0.0613  0.3794  0.3213
 1803TIP3    H226825   3.094   4.749   2.791  0.0899  0.2257  0.2633
 1804TIP3   OH226826   6.110   4.963   2.603  0.1158 -0.3467  0.0308
 1804TIP3    H126827   6.162   4.922   2.533 -1.4361  0.0621 -1.4176
 1804TIP3    H226828   6.058   4.892   2.639 -1.3746 -0.0147 -1.3789
 1805TIP3   OH226829   4.717   0.074   3.194  0.0405  0.0610 -0.2440
 1805TIP3    H126830   4.752   0.158   3.226 -2.1932  0.8934  0.1517
 1805TIP3    H226831   4.650   0.098   3.131  0.0883 -1.4879 -0.9286
 1806TIP3   OH226832   0.019   2.833  12.027 -0.1789  0.3879 -0.3088
 1806TIP3    H126833  -0.070   2.801  12.043  0.2464 -0.4374  0.4575
 1806TIP3    H226834   0.013   2.879  11.943 -1.0277 -0.8999 -0.9938
 1807TIP3   OH226835   1.473   3.455  15.670 -0.0178 -0.4131 -0.1190
 1807TIP3    H126836   1.480   3.389  15.602 -1.4121 -0.7750  0.0641
 1807TIP3    H226837   1.487   3.408  15.752 -1.4377 -0.6108  0.0445
 1808TIP3   OH226838   2.995   5.515  14.656 -0.5098 -0.9740 -0.0109
 1808TIP3    H126839   3.033   5.489  14.573  0.8855 -1.4762  0.7625
 1808TIP3    H226840   3.032   5.601  14.674  0.7697 -1.7108  1.0221
 1809TIP3   OH226841   3.275   1.772   5.951  0.6674  0.2447  0.4118
 1809TIP3    H126842   3.369   1.762   5.964  0.4348 -3.2294  0.3526
 1809TIP3    H226843   3.247   1.832   6.020  2.4011 -1.8309  3.0805
 1810TIP3   OH226844   4.615   5.629   3.694 -0.0960 -0.3193 -0.1533
 1810TIP3    H126845   4.618   5.603   3.602 -0.8585 -1.9902  0.2561
 1810TIP3    H226846   4.535   5.588   3.728  0.4324 -0.1513  1.3805
 1811TIP3   OH226847   3.592   5.548   0.207  0.0578  0.1771 -0.5766
 1811TIP3    H126848   3.547   5.632   0.202  0.5154  0.5213  0.6945
 1811TIP3    H226849   3.548   5.493   0.142 -0.2146  1.4030 -1.4533
 1812TIP3   OH226850   0.262   5.499   6.289 -1.1297  0.2483  0.6464
 1812TIP3    H126851   0.184   5.459   6.251 -0.8108  0.6119 -0.4042
 1812TIP3    H226852   0.286   5.569   6.228  0.6710 -0.5737  0.3573
 1813TIP3   OH226853   2.682   6.290  15.352 -0.0339 -0.0789  0.4127
 1813TIP3    H126854   2.772   6.266  15.327 -0.5916 -1.2205 -0.6541
 1813TIP3    H226855   2.648   6.211  15.394 -1.4462 -0.7357 -1.8121
 1814TIP3   OH226856   4.543   1.820   0.168 -0.0800  0.2496  0.6909
 1814TIP3    H126857   4.587   1.738   0.147  0.9504  0.7290  0.8831
 1814TIP3    H226858   4.473   1.828   0.103 -0.3950 -0.9187  0.8605
 1815TIP3   OH226859   4.688   5.216  17.024 -0.2681  0.0723 -0.0487
 1815TIP3    H126860   4.747   5.238  16.952  1.7706 -0.9919  1.2009
 1815TIP3    H226861   4.640   5.139  16.994 -2.3534  1.9049 -1.7208
 1816TIP3   OH226862   5.842   4.466  13.828  0.3573 -0.0652  0.3121
 1816TIP3    H126863   5.835   4.505  13.915  1.5846 -1.2981  1.0232
 1816TIP3    H226864   5.766   4.408  13.822  0.5586 -0.3922  0.8073
 1817TIP3   OH226865   6.730   5.267  13.430  0.2680 -0.0865 -0.0552
 1817TIP3    H126866   6.720   5.250  13.524  3.0348  0.0612  0.3427
 1817TIP3    H226867   6.750   5.181  13.392 -0.2350 -0.0424 -0.4375
 1818TIP3   OH226868   5.962   2.872   0.383  0.5671 -0.0448  0.4870
 1818TIP3    H126869   6.047   2.888   0.341  0.6790 -1.4581  0.1315
 1818TIP3    H226870   5.946   2.779   0.370 -1.6488  0.4015 -0.6076
 1819TIP3   OH226871   3.843   1.116   4.506  0.1505  0.4242 -0.1310
 1819TIP3    H126872   3.907   1.046   4.511 -0.9518 -0.5082  1.8662
 1819TIP3    H226873   3.777   1.094   4.571 -0.4507  3.1217  0.3064
 1820TIP3   OH226874   2.119   5.717   2.957 -0.5304  0.2693 -0.0329
 1820TIP3    H126875   2.121   5.728   3.052  0.5394 -0.7634  0.0857
 1820TIP3    H226876   2.208   5.736   2.928 -0.1907 -1.8394 -0.5113
 1821TIP3   OH226877   6.377   2.136   1.858 -0.2027  0.0636 -0.2210
 1821TIP3    H126878   6.387   2.061   1.799 -0.6109 -0.7573  0.7283
 1821TIP3    H226879   6.441   2.121   1.927  0.8208  1.4194 -0.8195
 1822TIP3   OH226880   2.495   0.822   5.014  0.1571 -0.3876 -0.2101
 1822TIP3    H126881   2.470   0.915   5.007  1.1910 -0.0773  0.0242
 1822TIP3    H226882   2.415   0.777   5.039 -0.4216  0.4117 -0.5860
 1823TIP3   OH226883   0.871   1.833   5.630  0.3022  0.3013 -0.6733
 1823TIP3    H126884   0.903   1.904   5.686  4.2848 -0.8008 -1.2050
 1823TIP3    H226885   0.878   1.868   5.541 -0.3622  0.1261 -0.7979
 1824TIP3   OH226886   0.542   2.845   5.172  0.0208 -0.0985  0.0434
 1824TIP3    H126887   0.542   2.825   5.078 -0.8950  0.1729 -0.0304
 1824TIP3    H226888   0.574   2.935   5.178  0.2204 -0.1669  0.0052
 1825TIP3   OH226889   0.070   3.538  16.784 -0.6459 -0.3493  0.5324
 1825TIP3    H126890  -0.013   3.544  16.738 -0.7367 -1.1076  0.5798
 1825TIP3    H226891   0.110   3.458  16.751  0.1950  0.1447  0.3109
 1826TIP3   OH226892   6.050   3.872  11.249 -0.1141  0.0590 -0.2443
 1826TIP3    H126893   6.121   3.893  11.188 -0.1789  0.2328 -0.2602
 1826TIP3    H226894   5.974   3.856  11.193 -0.6579  2.0354 -0.1613
 1827TIP3   OH226895   6.112   4.818  16.748  0.0918 -0.4171  0.3747
 1827TIP3    H126896   6.055   4.813  16.671 -0.3364 -0.5600  0.6971
 1827TIP3    H226897   6.200   4.813  16.713 -0.0485  1.1074 -0.2458
 1828TIP3   OH226898   6.169   1.605   2.696 -0.5590  0.0429  0.3560
 1828TIP3    H126899   6.086   1.559   2.684  1.2725 -3.1458 -1.4355
 1828TIP3    H226900   6.208   1.564   2.773 -0.7227  1.7787  1.4120
 1829TIP3   OH226901   1.004   6.446  17.150  0.0356 -0.2322  0.2568
 1829TIP3    H126902   0.939   6.497  17.198 -1.0453 -1.3161 -0.0173
 1829TIP3    H226903   1.035   6.505  17.082 -0.0190  0.5849  0.9149
 1830TIP3   OH226904   6.652   1.419  12.976 -0.2261  0.2978 -0.3308
 1830TIP3    H126905   6.688   1.490  12.923  0.3906  0.0708 -0.2305
 1830TIP3    H226906   6.570   1.454  13.011  0.7559  1.4967  0.8863
 1831TIP3   OH226907   0.035   5.729  13.452 -0.0996 -0.2804  0.2016
 1831TIP3    H126908   0.120   5.738  13.408 -1.6445  2.4017 -2.6824
 1831TIP3    H226909  -0.005   5.653  13.411  0.5353 -1.0039  0.9063
 1832TIP3   OH226910   3.379   3.507  14.504  0.3978  0.3591 -0.2120
 1832TIP3    H126911   3.337   3.564  14.440  0.1530  0.8656  0.3976
 1832TIP3    H226912   3.373   3.420  14.465  1.3944  0.8087 -1.4864
 1833TIP3   OH226913   4.456   1.421  11.416  0.3085 -0.0852  0.0882
 1833TIP3    H126914   4.488   1.480  11.485 -1.5561  1.9785 -0.6906
 1833TIP3    H226915   4.361   1.421  11.427 -0.0512  0.2840 -2.4336
 1834TIP3   OH226916   1.202   3.119   1.872 -0.3440 -0.3596  0.0316
 1834TIP3    H126917   1.188   3.213   1.876 -1.1520 -0.4635 -0.1661
 1834TIP3    H226918   1.114   3.081   1.867 -0.0275 -1.1172 -0.0484
 1835TIP3   OH226919   5.547   3.217   2.438 -0.1521  0.2006  0.3427
 1835TIP3    H126920   5.455   3.219   2.411  0.0074  0.0634 -0.2200
 1835TIP3    H226921   5.578   3.306   2.425  0.5878 -0.3690 -2.3154
 1836TIP3   OH226922   6.674   0.486   5.377 -0.5418  0.0958  0.1803
 1836TIP3    H126923   6.748   0.532   5.337 -0.4729 -1.3767 -1.5094
 1836TIP3    H226924   6.712   0.442   5.453  0.2670 -0.3325 -0.4474
 1837TIP3   OH226925   2.665   2.500   3.750 -0.4414  0.0017  0.9296
 1837TIP3    H126926   2.702   2.500   3.661 -0.6477 -0.2226  0.8434
 1837TIP3    H226927   2.741   2.515   3.807 -0.3288  0.2921  0.7102
 1838TIP3   OH226928   3.738   4.393  12.525  0.4329  0.5665  0.5497
 1838TIP3    H126929   3.827   4.362  12.543  0.2920 -0.2497 -0.0864
 1838TIP3    H226930   3.697   4.399  12.611  0.4079 -1.2775  0.7116
 1839TIP3   OH226931   6.544   2.490   1.791 -0.6086  0.5031  0.2766
 1839TIP3    H126932   6.562   2.557   1.726 -2.5597 -0.4827 -1.3976
 1839TIP3    H226933   6.462   2.517   1.832 -1.4914 -0.8331 -0.5095
 1840TIP3   OH226934   3.051   3.680   5.568 -0.7325  0.6416  0.3097
 1840TIP3    H126935   3.013   3.709   5.651 -1.4522 -0.8592  0.5431
 1840TIP3    H226936   3.005   3.731   5.501 -3.4426 -1.2454  0.5628
 1841TIP3   OH226937   1.328   2.421  16.056 -0.6555  0.0664 -0.1617
 1841TIP3    H126938   1.247   2.376  16.030 -0.7069 -0.7540  1.3085
 1841TIP3    H226939   1.307   2.514  16.049 -1.6747 -0.1387  0.0059
 1842TIP3   OH226940   0.869   5.992   5.476 -0.2379  0.2091  0.1939
 1842TIP3    H126941   0.865   6.088   5.485 -1.2607  0.1456  0.5338
 1842TIP3    H226942   0.784   5.962   5.506  0.0923 -0.8236  0.1191
 1843TIP3   OH226943   2.402   3.801   4.052  0.1346 -0.0212 -0.0540
 1843TIP3    H126944   2.401   3.888   4.012  3.6826  0.2521  0.1852
 1843TIP3    H226945   2.361   3.745   3.986 -1.8016  1.6687 -0.4091
 1844TIP3   OH226946   3.193   2.965   3.580  0.0063  0.4075 -0.3699
 1844TIP3    H126947   3.251   2.991   3.651  1.0901  1.0478 -1.4552
 1844TIP3    H226948   3.242   2.984   3.500 -0.7377 -1.3064 -1.2939
 1845TIP3   OH226949   4.454   5.936  14.128 -0.3121 -0.7971  0.1798
 1845TIP3    H126950   4.483   5.968  14.213  0.3281  0.6099 -0.5262
 1845TIP3    H226951   4.482   5.844  14.126 -1.6935 -1.3145  2.0518
 1846TIP3   OH226952   4.392   1.734   2.528 -0.2315 -0.1751 -0.0820
 1846TIP3    H126953   4.334   1.807   2.510  2.0605  1.9694  0.6280
 1846TIP3    H226954   4.384   1.720   2.623 -0.0722 -0.2661 -0.0809
 1847TIP3   OH226955   4.124   1.465   2.260  0.0018 -0.0873 -0.1241
 1847TIP3    H126956   4.210   1.491   2.294 -0.2988  0.7339  0.0344
 1847TIP3    H226957   4.069   1.457   2.338 -0.9866  2.8790 -0.3826
 1848TIP3   OH226958   0.582   1.824   0.841  0.2526  0.6038  0.0017
 1848TIP3    H126959   0.606   1.755   0.904 -2.2642 -1.6038 -1.2314
 1848TIP3    H226960   0.654   1.826   0.779  0.8150 -0.2525  0.6049
 1849TIP3   OH226961   0.173   2.632   6.028  0.3951  0.1271 -0.5047
 1849TIP3    H126962   0.175   2.559   5.967 -0.2108 -0.4358  0.1293
 1849TIP3    H226963   0.156   2.709   5.973  2.1585 -0.0068 -1.3240
 1850TIP3   OH226964   1.630   0.095   1.963  0.0725 -0.2301 -0.0137
 1850TIP3    H126965   1.619   0.062   2.052 -0.4671 -0.6768 -0.2355
 1850TIP3    H226966   1.705   0.047   1.928  0.6392  0.3557  0.3814
 1851TIP3   OH226967   3.349   4.974   4.780  0.0983  0.0620  0.0527
 1851TIP3    H126968   3.302   4.953   4.699 -0.3212  0.9273  0.0577
 1851TIP3    H226969   3.291   5.034   4.827  0.5824  0.0077  0.7364
 1852TIP3   OH226970   3.915   1.383  15.543  0.2605  0.1486 -0.2945
 1852TIP3    H126971   3.971   1.362  15.618  1.4629  0.1035 -1.1733
 1852TIP3    H226972   3.900   1.477  15.549  0.7975  0.2374 -0.2856
 1853TIP3   OH226973   5.673   0.557   1.548 -0.3734 -0.0154  0.1272
 1853TIP3    H126974   5.742   0.538   1.484 -1.9170  1.5128 -2.1244
 1853TIP3    H226975   5.676   0.651   1.559 -0.3251 -0.2261  2.1695
 1854TIP3   OH226976   6.690   3.701  15.119  0.0534 -0.5466  0.6477
 1854TIP3    H126977   6.644   3.727  15.039  3.3250 -0.4212 -1.3819
 1854TIP3    H226978   6.735   3.781  15.148  0.3387 -1.0220  1.5561
 1855TIP3   OH226979   0.964   3.883  16.213 -0.0672  0.0241  0.4450
 1855TIP3    H126980   0.970   3.943  16.139 -0.1576 -2.1070 -1.3969
 1855TIP3    H226981   0.875   3.848  16.209 -0.2172  0.1684  1.8497
 1856TIP3   OH226982   5.607   1.767   4.211  0.4042 -0.4155 -0.4698
 1856TIP3    H126983   5.656   1.712   4.271 -0.8896  0.1512  1.1725
 1856TIP3    H226984   5.547   1.706   4.167 -0.9850 -0.3989  1.2989
 1857TIP3   OH226985   2.591   6.041  17.184  0.4392 -0.1332  0.0322
 1857TIP3    H126986   2.567   6.097  17.258 -0.6841  0.2725 -0.6094
 1857TIP3    H226987   2.654   6.093  17.134 -0.6069  0.5750 -0.5656
 1858TIP3   OH226988   3.591   1.600  13.808  0.0510 -0.0256  0.0605
 1858TIP3    H126989   3.607   1.564  13.721  1.2630 -0.3860  0.4112
 1858TIP3    H226990   3.535   1.535  13.852  1.6929 -1.2182  0.4673
 1859TIP3   OH226991   1.943   3.865  12.210 -0.2290  0.1178  0.1210
 1859TIP3    H126992   1.894   3.783  12.202  0.2718 -0.0814 -1.0399
 1859TIP3    H226993   1.875   3.932  12.218 -0.7771 -0.0556 -2.3991
 1860TIP3   OH226994   6.260   2.321   1.680 -0.1139  0.1505  0.0309
 1860TIP3    H126995   6.170   2.326   1.710 -0.0978 -2.5426  0.8199
 1860TIP3    H226996   6.303   2.263   1.743  1.6911 -0.1221 -1.3640
 1861TIP3   OH226997   3.044   4.826  14.237 -0.0044  0.2484 -0.5820
 1861TIP3    H126998   3.132   4.823  14.275 -0.1308  0.5183 -0.2724
 1861TIP3    H226999   2.986   4.797  14.307 -0.2781  1.1133 -0.4417
 1862TIP3   OH227000   4.203   6.332  10.331 -0.5198 -0.3768  0.2215
 1862TIP3    H127001   4.221   6.240  10.313 -0.6655  0.0750 -2.6833
 1862TIP3    H227002   4.285   6.366  10.366 -0.2546 -1.4273  0.6569
 1863TIP3   OH227003   0.178   3.997  13.951 -0.2747  0.2692 -0.0151
 1863TIP3    H127004   0.264   3.994  13.992  0.7518  1.6171 -1.9312
 1863TIP3    H227005   0.195   3.999  13.857 -2.3858  0.8472 -0.4495
 1864TIP3   OH227006   1.881   2.004  16.018  0.0437 -0.2568  0.1366
 1864TIP3    H127007   1.822   2.067  16.060  1.4938  1.1780  0.0948
 1864TIP3    H227008   1.936   1.971  16.089  1.2416  0.7551 -0.2961
 1865TIP3   OH227009   1.699   4.973   3.988 -0.6704 -0.0789  0.2740
 1865TIP3    H127010   1.671   4.917   4.060 -2.4795  0.1742 -0.1920
 1865TIP3    H227011   1.643   5.051   3.995  1.4570  1.5414  0.6498
 1866TIP3   OH227012   3.007   5.011   2.582 -0.1147 -0.4615  0.1300
 1866TIP3    H127013   2.954   5.086   2.554 -0.3008 -0.7635 -0.3346
 1866TIP3    H227014   2.943   4.944   2.605  0.0554 -1.0704 -1.0963
 1867TIP3   OH227015   4.471   6.025  11.576  0.0580 -0.2185 -0.4087
 1867TIP3    H127016   4.434   5.954  11.524 -1.2365 -0.3481  0.6508
 1867TIP3    H227017   4.510   5.983  11.652 -0.8361  0.1939  0.2949
 1868TIP3   OH227018   1.507   1.211  13.593  0.2881  0.0934 -0.0940
 1868TIP3    H127019   1.572   1.144  13.572 -0.0033 -0.2590  0.1238
 1868TIP3    H227020   1.439   1.164  13.642  0.1541  0.5737  0.1836
 1869TIP3   OH227021   5.544   6.006  13.696  0.1477  0.5124  0.1142
 1869TIP3    H127022   5.599   5.948  13.749  2.5231  2.4209 -0.0593
 1869TIP3    H227023   5.606   6.050  13.637 -2.2842 -1.4186 -4.3490
 1870TIP3   OH227024   6.373   3.950  12.053  0.2713  0.3904 -0.0544
 1870TIP3    H127025   6.287   3.975  12.086  0.7392 -0.0102  1.5482
 1870TIP3    H227026   6.362   3.861  12.020 -0.2125  0.8098 -1.0609
 1871TIP3   OH227027   6.346   1.925   0.362  0.0425 -0.2613  0.1519
 1871TIP3    H127028   6.422   1.965   0.404 -0.3670  2.5861 -1.5392
 1871TIP3    H227029   6.379   1.893   0.278 -0.4431  0.3206 -0.2731
 1872TIP3   OH227030   2.269   5.576  12.881 -0.2155 -0.1069  0.5321
 1872TIP3    H127031   2.241   5.504  12.938 -0.3363  0.0372  0.6542
 1872TIP3    H227032   2.321   5.533  12.813  0.9752 -0.1494  1.4372
 1873TIP3   OH227033   4.394   0.498  11.907 -0.0025 -0.0576  0.1400
 1873TIP3    H127034   4.312   0.479  11.953 -0.5910  1.2520 -0.3066
 1873TIP3    H227035   4.451   0.424  11.927 -0.9034 -0.4427  1.3946
 1874TIP3   OH227036   2.916   0.927   2.485  0.0836  0.3894 -0.2594
 1874TIP3    H127037   2.939   0.857   2.546  1.4549  0.6572 -0.4273
 1874TIP3    H227038   2.937   1.008   2.531 -2.0292  0.7506  0.1472
 1875TIP3   OH227039   2.086   4.340  17.036 -0.5792 -0.1780  0.7048
 1875TIP3    H127040   2.138   4.315  17.112  2.8864 -1.8873 -1.9211
 1875TIP3    H227041   2.035   4.262  17.015 -0.7148 -0.0860  0.6938
 1876TIP3   OH227042   0.143   3.947   4.073  0.0999  1.2503 -0.0128
 1876TIP3    H127043   0.196   4.019   4.108  2.0890 -0.2421  0.2512
 1876TIP3    H227044   0.205   3.893   4.025 -0.6988 -1.6383  1.8983
 1877TIP3   OH227045   1.904   4.620   1.616  0.0337 -0.1932  0.4441
 1877TIP3    H127046   1.978   4.681   1.614 -0.4333  0.3672  0.0049
 1877TIP3    H227047   1.918   4.563   1.541 -0.0074 -0.0590  0.3354
 1878TIP3   OH227048   1.236   2.963  16.985 -0.1976 -0.2602 -0.1369
 1878TIP3    H127049   1.221   2.877  16.945 -0.1173 -0.0516 -0.6317
 1878TIP3    H227050   1.311   2.950  17.042  0.6222 -0.2318 -1.1731
 1879TIP3   OH227051   5.553   5.818  13.490  0.0041 -0.0592  0.3760
 1879TIP3    H127052   5.484   5.795  13.427 -1.4140  1.0683  1.4374
 1879TIP3    H227053   5.511   5.880  13.549  2.2888  1.5439  0.4135
 1880TIP3   OH227054   1.725   1.731  13.395 -0.0784  0.2018 -0.2291
 1880TIP3    H127055   1.703   1.691  13.479  0.0110  0.9683  0.1729
 1880TIP3    H227056   1.641   1.753  13.356 -0.2441 -2.2370 -1.4277
 1881TIP3   OH227057   1.242   4.739  13.352  0.2818 -0.2828  0.7630
 1881TIP3    H127058   1.221   4.685  13.276  0.4123 -1.1641  1.3376
 1881TIP3    H227059   1.222   4.829  13.324 -0.1577 -0.6454 -0.1285
 1882TIP3   OH227060   3.597   3.600  11.673 -0.0332 -0.8291  0.2426
 1882TIP3    H127061   3.540   3.635  11.605 -1.9485  0.4003  2.3321
 1882TIP3    H227062   3.671   3.662  11.677  0.0994 -0.9181 -0.6811
 1883TIP3   OH227063   6.698   5.213  16.389 -0.0121 -0.1473  0.1093
 1883TIP3    H127064   6.718   5.295  16.345  0.3178 -0.1228  0.3009
 1883TIP3    H227065   6.672   5.239  16.477 -1.9248 -0.0940 -0.4212
 1884TIP3   OH227066   3.132   5.592   2.273 -0.4423 -0.0672  0.1975
 1884TIP3    H127067   3.165   5.503   2.256 -0.1799  0.0420  0.1388
 1884TIP3    H227068   3.196   5.632   2.331 -1.2576 -0.3766  1.3517
 1885TIP3   OH227069   2.931   4.939   0.045 -0.0636  0.4595 -0.1487
 1885TIP3    H127070   2.901   4.908  -0.040  0.8271 -2.9194  0.6076
 1885TIP3    H227071   2.880   4.888   0.109  1.8225  0.1733  1.2217
 1886TIP3   OH227072   2.768   2.643   1.089  0.3768  0.0911 -0.3239
 1886TIP3    H127073   2.809   2.700   1.154 -1.1706  0.7744  0.0892
 1886TIP3    H227074   2.681   2.681   1.074 -0.3632 -1.6456 -0.6899
 1887TIP3   OH227075   3.521   1.613  12.954 -0.3103 -0.2273 -0.7743
 1887TIP3    H127076   3.428   1.597  12.935 -0.4601 -0.4142  0.0714
 1887TIP3    H227077   3.533   1.706  12.935 -0.5097 -0.3461 -1.5141
 1888TIP3   OH227078   5.869   6.593   5.197 -0.3690  0.2668  0.7440
 1888TIP3    H127079   5.776   6.578   5.214 -0.7043 -1.6448 -2.0710
 1888TIP3    H227080   5.872   6.637   5.112  1.2557 -1.7302 -0.3391
 1889TIP3   OH227081   6.007   2.728   2.622  0.8779  0.2608 -0.2163
 1889TIP3    H127082   5.998   2.636   2.646 -1.0900 -0.2044 -2.2903
 1889TIP3    H227083   5.918   2.763   2.631  1.4043  1.6874 -0.4229
 1890TIP3   OH227084   5.745   6.088  11.519 -0.0850  0.2295  0.1522
 1890TIP3    H127085   5.714   6.142  11.592  0.1341 -0.5644  0.8415
 1890TIP3    H227086   5.807   6.027  11.559 -1.1369 -1.2735 -0.4165
 1891TIP3   OH227087   1.540   4.680  17.139 -0.5075 -1.0570 -0.6790
 1891TIP3    H127088   1.502   4.682  17.051  1.2462 -0.4430 -1.4770
 1891TIP3    H227089   1.617   4.736  17.133 -1.5157  0.7708  1.8571
 1892TIP3   OH227090   6.224   1.828  13.542  0.4099 -0.8600 -0.0404
 1892TIP3    H127091   6.276   1.771  13.598 -1.2613  0.0892  2.6816
 1892TIP3    H227092   6.276   1.908  13.534  0.1612 -0.5231  1.3295
 1893TIP3   OH227093   0.977   6.267  15.806 -0.2356 -0.6956  0.3220
 1893TIP3    H127094   0.889   6.249  15.774 -1.1988 -0.3207  2.5540
 1893TIP3    H227095   0.963   6.312  15.889  2.0634  1.7198 -0.4628
 1894TIP3   OH227096   4.580   2.233   1.546  0.3913 -0.0432 -0.1632
 1894TIP3    H127097   4.615   2.199   1.464 -1.2708 -0.5068 -0.7167
 1894TIP3    H227098   4.561   2.156   1.599  1.1586  0.2419  0.5372
 1895TIP3   OH227099   1.648   1.644  13.687  0.1663 -0.1475 -0.7984
 1895TIP3    H127100   1.627   1.725  13.733  1.1635 -0.6890  0.6894
 1895TIP3    H227101   1.660   1.580  13.756  3.1345 -0.6802 -1.6546
 1896TIP3   OH227102   5.980   2.647  13.702 -0.0601  0.4451  0.2662
 1896TIP3    H127103   5.987   2.624  13.609 -0.0244 -1.3135  0.6710
 1896TIP3    H227104   5.911   2.590  13.735 -0.6762  1.6672  1.1594
 1897TIP3   OH227105   6.138   1.791  11.963 -0.0662  0.0935  0.0328
 1897TIP3    H127106   6.043   1.783  11.952 -0.1986  2.3550 -0.9671
 1897TIP3    H227107   6.150   1.804  12.057 -0.4763 -2.3608  0.5091
 1898TIP3   OH227108   3.180   0.232   5.473 -0.3774 -0.3016  0.0800
 1898TIP3    H127109   3.220   0.209   5.557 -1.2154  2.2730  1.2920
 1898TIP3    H227110   3.173   0.328   5.475 -0.9554 -0.1976 -2.7071
 1899TIP3   OH227111   5.377   1.152   0.644 -0.6893 -0.1922 -0.2935
 1899TIP3    H127112   5.418   1.069   0.622  0.3675 -0.5780  2.7087
 1899TIP3    H227113   5.400   1.167   0.736 -0.3089  3.7196 -0.8397
 1900TIP3   OH227114   4.911   6.071  16.542  0.0949  0.1158  0.2934
 1900TIP3    H127115   4.904   6.091  16.635  2.3400  0.1980  0.5075
 1900TIP3    H227116   4.962   5.990  16.539 -1.0000 -0.5602 -0.8529
 1901TIP3   OH227117   5.928   2.323  12.729 -0.3110 -0.0612 -0.0852
 1901TIP3    H127118   5.992   2.393  12.739 -1.4150  1.0570 -0.5601
 1901TIP3    H227119   5.861   2.342  12.796 -0.0093 -1.4002  0.6415
 1902TIP3   OH227120   6.192   6.375   2.001 -0.4115 -0.1233  0.4096
 1902TIP3    H127121   6.104   6.392   1.967  0.3787  0.9851 -1.2357
 1902TIP3    H227122   6.234   6.461   2.000  1.4237 -0.9830 -1.1197
 1903TIP3   OH227123   3.744   5.825  13.573 -0.1802  0.4379  0.1983
 1903TIP3    H127124   3.679   5.757  13.590  0.1396 -0.1455 -0.8517
 1903TIP3    H227125   3.715   5.900  13.626 -0.2095 -0.6811  1.8491
 1904TIP3   OH227126   0.857   5.609  13.789 -0.2726 -0.7295 -0.2445
 1904TIP3    H127127   0.824   5.533  13.741 -0.3550 -1.4276  0.8753
 1904TIP3    H227128   0.811   5.605  13.873 -1.2193  1.2731 -0.6112
 1905TIP3   OH227129   2.301   3.014   2.466 -0.0964 -0.0260  0.1457
 1905TIP3    H127130   2.226   3.057   2.507 -0.6348  1.0094 -1.7917
 1905TIP3    H227131   2.371   3.078   2.469  0.5358 -0.7405  1.3316
 1906TIP3   OH227132   3.688   3.784   0.509  0.1981 -0.3619 -0.6911
 1906TIP3    H127133   3.707   3.713   0.570 -1.9199  0.2516  0.7924
 1906TIP3    H227134   3.650   3.741   0.432 -0.7094 -0.9053  0.0388
 1907TIP3   OH227135   0.520   1.870  13.902  0.4253  0.6286 -0.6469
 1907TIP3    H127136   0.559   1.787  13.875 -0.6191  0.4427 -1.6583
 1907TIP3    H227137   0.579   1.904  13.969  2.1369  0.2143 -1.8787
 1908TIP3   OH227138   6.494   4.537   2.359  0.3524 -0.1761  0.2316
 1908TIP3    H127139   6.490   4.540   2.263 -0.9532  0.8568  0.2891
 1908TIP3    H227140   6.588   4.536   2.379  0.7065  1.8358 -1.0348
 1909TIP3   OH227141   2.499   3.435   6.043 -0.2248 -0.3015 -0.0375
 1909TIP3    H127142   2.588   3.400   6.040  0.0236  0.2050  1.0060
 1909TIP3    H227143   2.506   3.513   6.097 -1.0162  0.6443 -1.2437
 1910TIP3   OH227144   0.007   6.308   4.761 -0.2078 -0.6858 -0.8563
 1910TIP3    H127145   0.002   6.321   4.856  1.1774 -1.1224 -0.7069
 1910TIP3    H227146  -0.081   6.278   4.737 -0.8145  0.1934  0.1516
 1911TIP3   OH227147   1.671   1.902   5.007 -0.1018 -0.3564 -0.4415
 1911TIP3    H127148   1.729   1.961   4.959  0.0080 -1.4585 -1.7441
 1911TIP3    H227149   1.605   1.959   5.047 -0.2680  0.6342 -2.0382
 1912TIP3   OH227150   6.305   5.250   5.996  0.1542 -0.0296  0.2293
 1912TIP3    H127151   6.244   5.189   6.036 -0.1657  0.2292  0.1409
 1912TIP3    H227152   6.255   5.293   5.926  0.6509 -0.3491 -0.3385
 1913TIP3   OH227153   5.152   0.591   1.057  0.2815 -0.1120 -0.4968
 1913TIP3    H127154   5.074   0.609   1.005  0.7219  0.7809 -0.8903
 1913TIP3    H227155   5.211   0.664   1.036 -0.1698  1.3080  2.5958
 1914TIP3   OH227156   2.057   3.244   2.959  0.0338  0.1942 -1.0129
 1914TIP3    H127157   1.987   3.288   3.009  1.3003 -1.1753  2.2689
 1914TIP3    H227158   2.034   3.151   2.963  1.5124 -0.1864 -0.6490
 1915TIP3   OH227159   1.000   5.974  15.761 -0.0570  0.4319  0.0414
 1915TIP3    H127160   1.062   6.040  15.790 -0.9276  1.3347 -0.0771
 1915TIP3    H227161   1.042   5.933  15.685  0.5657  0.7220  0.2244
 1916TIP3   OH227162   4.992   2.295   3.292  0.0849 -0.2386 -0.1005
 1916TIP3    H127163   5.001   2.221   3.352 -0.3998  0.3868  0.7513
 1916TIP3    H227164   5.037   2.266   3.212 -1.8588 -2.2937 -0.5668
 1917TIP3   OH227165   2.504   5.621  11.559  0.0954 -0.4531  0.1169
 1917TIP3    H127166   2.510   5.715  11.541  0.4657 -0.7931 -1.7590
 1917TIP3    H227167   2.577   5.583  11.511 -1.3957 -1.9225 -1.1120
 1918TIP3   OH227168   5.264   6.619   4.445  0.0042  0.1538  0.2235
 1918TIP3    H127169   5.213   6.629   4.365 -1.0274 -2.8811  0.3843
 1918TIP3    H227170   5.335   6.560   4.421 -0.0819 -0.4705  1.4468
 1919TIP3   OH227171   3.925   1.000   5.652  0.1032 -0.6238 -0.9999
 1919TIP3    H127172   3.833   0.974   5.643 -0.5165  0.8334  0.7234
 1919TIP3    H227173   3.932   1.081   5.602  0.2260 -0.2611 -0.3984
 1920TIP3   OH227174   4.856   1.809   3.601 -0.7218  0.3548 -0.1860
 1920TIP3    H127175   4.944   1.790   3.634  0.3241  2.1942 -1.7562
 1920TIP3    H227176   4.829   1.728   3.557 -1.3229 -1.4570  3.1225
 1921TIP3   OH227177   4.455   2.523   2.840  0.2297 -0.2749  0.2052
 1921TIP3    H127178   4.492   2.524   2.929 -0.0278 -0.1948  0.3104
 1921TIP3    H227179   4.498   2.448   2.798  1.6522  0.6951 -0.1649
 1922TIP3   OH227180   6.017   5.030  15.240  0.3278 -0.3298 -0.1158
 1922TIP3    H127181   5.934   5.044  15.194 -0.8952 -0.6017  1.8572
 1922TIP3    H227182   6.034   5.113  15.285  2.2994  0.4583 -2.1281
 1923TIP3   OH227183   1.901   1.560   5.523  0.1391  0.1042 -0.4845
 1923TIP3    H127184   1.859   1.642   5.496  0.3794  0.3103 -0.2251
 1923TIP3    H227185   1.926   1.519   5.440  0.0991  0.3330 -0.6120
 1924TIP3   OH227186   1.965   0.038  14.716 -0.6063  0.0688 -0.8374
 1924TIP3    H127187   2.047   0.048  14.668  0.2657  0.9451  0.7521
 1924TIP3    H227188   1.992   0.016  14.805 -2.1406 -0.5751 -0.5050
 1925TIP3   OH227189   3.308   1.446  16.173  0.2766 -0.6739  0.3661
 1925TIP3    H127190   3.400   1.453  16.198  0.7712 -0.2099 -1.4064
 1925TIP3    H227191   3.304   1.486  16.086 -1.8002  0.1840  0.8089
 1926TIP3   OH227192   2.827   5.467   0.225  0.2808  0.7231 -0.1443
 1926TIP3    H127193   2.746   5.419   0.245  0.2372  0.6203 -0.5471
 1926TIP3    H227194   2.886   5.400   0.190  0.8065  0.6547  0.8380
 1927TIP3   OH227195   3.370   2.564   4.257 -0.2166  0.1838 -0.2278
 1927TIP3    H127196   3.439   2.566   4.191  0.1548 -2.1909 -0.0202
 1927TIP3    H227197   3.303   2.507   4.220  0.3561 -1.8658  1.6691
 1928TIP3   OH227198   6.576   2.324  11.898  0.1167  0.0455  0.3389
 1928TIP3    H127199   6.482   2.314  11.911  0.0813  0.3491  0.3148
 1928TIP3    H227200   6.584   2.389  11.828  0.3758  2.1111  2.1853
 1929TIP3   OH227201   5.322   6.387  14.012 -0.2206 -0.5426  0.1734
 1929TIP3    H127202   5.291   6.301  14.040 -0.0294 -0.3904  0.8586
 1929TIP3    H227203   5.255   6.417  13.950 -0.5331 -0.9798  0.2955
 1930TIP3   OH227204   3.551   3.829   2.064  0.3300 -0.1919  0.4903
 1930TIP3    H127205   3.567   3.742   2.099  4.0371 -0.4046 -1.2791
 1930TIP3    H227206   3.515   3.814   1.977  0.1321  0.0898  0.5216
 1931TIP3   OH227207   0.679   1.206  15.319 -0.2288 -0.7265 -0.2725
 1931TIP3    H127208   0.657   1.114  15.335  1.7279 -1.3771 -0.9938
 1931TIP3    H227209   0.768   1.204  15.285  1.3287  1.6891  3.0721
 1932TIP3   OH227210   0.660   0.022  10.333  0.1105  0.0759  0.1747
 1932TIP3    H127211   0.647   0.003  10.240  2.2426 -0.4160 -0.0754
 1932TIP3    H227212   0.678  -0.063  10.373  0.4231  0.4335  0.8060
 1933TIP3   OH227213   1.471   5.124   4.054 -0.0124 -0.0037 -0.0724
 1933TIP3    H127214   1.424   5.100   4.134  1.0393 -1.0568  0.2549
 1933TIP3    H227215   1.424   5.078   3.985 -0.6197  0.5080 -0.0129
 1934TIP3   OH227216   2.587   3.584   4.803  0.2210  0.6814 -0.3202
 1934TIP3    H127217   2.563   3.587   4.896  1.0285  1.2785 -0.1235
 1934TIP3    H227218   2.586   3.676   4.775  2.4697  0.7755 -0.2408
 1935TIP3   OH227219   3.424   6.156  16.247  0.2998 -0.2454  0.1530
 1935TIP3    H127220   3.353   6.093  16.237  0.3040 -0.0365 -1.3055
 1935TIP3    H227221   3.387   6.239  16.218  0.8342  0.0785  0.3817
 1936TIP3   OH227222   4.969   0.059  12.114  0.9025 -0.3974  0.6776
 1936TIP3    H127223   4.876   0.042  12.128  0.4073  0.7489 -0.9613
 1936TIP3    H227224   5.011  -0.026  12.128 -0.5652 -1.2502  0.0824
 1937TIP3   OH227225   4.553   4.841   6.195  0.2497 -0.2532 -0.3020
 1937TIP3    H127226   4.544   4.933   6.218 -0.4086 -0.6234  1.0352
 1937TIP3    H227227   4.608   4.804   6.264 -0.3993 -1.0717 -0.1990
 1938TIP3   OH227228   5.988   1.420  13.118  0.0345 -0.2704 -0.3417
 1938TIP3    H127229   5.899   1.394  13.096 -0.6022  0.5272  1.1513
 1938TIP3    H227230   6.021   1.463  13.039 -1.9712  2.0705 -0.0350
 1939TIP3   OH227231   6.698   3.557   2.280 -0.0554 -0.0484 -0.2793
 1939TIP3    H127232   6.729   3.475   2.241 -0.2038 -0.1129 -0.2641
 1939TIP3    H227233   6.777   3.606   2.301  0.0748 -0.8057  1.0534
 1940TIP3   OH227234   2.009   2.207   2.332 -0.4511  0.1606 -0.5657
 1940TIP3    H127235   1.946   2.277   2.348  0.8969  1.6607 -1.5721
 1940TIP3    H227236   2.013   2.200   2.236 -0.5031 -1.2582 -0.4875
 1941TIP3   OH227237   3.227   5.452  17.316  0.1875 -0.2085 -0.4026
 1941TIP3    H127238   3.166   5.511  17.271  1.8463  1.5835 -0.4303
 1941TIP3    H227239   3.233   5.488  17.405  0.0071 -1.3368  0.0899
 1942TIP3   OH227240   3.252   1.580  12.900 -0.4823  0.0043 -0.0785
 1942TIP3    H127241   3.210   1.652  12.948 -1.1598 -0.4246 -0.0265
 1942TIP3    H227242   3.180   1.527  12.867  0.0151 -0.6136 -0.1883
 1943TIP3   OH227243   6.231   2.845  13.249  0.0442 -0.0698  0.0157
 1943TIP3    H127244   6.196   2.934  13.248  1.4877  0.5404 -1.8314
 1943TIP3    H227245   6.157   2.790  13.225 -0.8223  0.6109  0.9986
 1944TIP3   OH227246   3.561   2.852   3.462  0.4429  0.6152  0.4253
 1944TIP3    H127247   3.573   2.946   3.469  1.9235  0.4139  1.0454
 1944TIP3    H227248   3.573   2.832   3.369  3.8404  0.6612  0.7176
 1945TIP3   OH227249   1.758   5.568   4.895 -0.4196 -0.1093  0.1522
 1945TIP3    H127250   1.774   5.528   4.810 -0.8873 -0.0587  0.0387
 1945TIP3    H227251   1.663   5.573   4.902 -0.3742  0.5603  0.3613
 1946TIP3   OH227252   2.581   0.162   4.883 -0.1169 -0.3446  0.1537
 1946TIP3    H127253   2.520   0.088   4.883 -1.2223  0.4635  2.6705
 1946TIP3    H227254   2.665   0.123   4.910 -0.2109 -0.9569 -0.3942
 1947TIP3   OH227255   5.274   3.260  16.658 -0.0639 -0.6243 -0.0412
 1947TIP3    H127256   5.265   3.165  16.652  1.6441 -0.7555 -1.2167
 1947TIP3    H227257   5.316   3.285  16.576 -0.6679  1.1892  0.1689
 1948TIP3   OH227258   2.607   4.896   5.366  0.7816  0.6159  0.1778
 1948TIP3    H127259   2.576   4.848   5.443 -0.0561 -0.7975 -1.0063
 1948TIP3    H227260   2.570   4.984   5.376  1.8075  0.9039  2.0499
 1949TIP3   OH227261   0.450   6.572  15.041  0.2194  0.1080  0.0392
 1949TIP3    H127262   0.500   6.595  14.963  0.4772 -0.2754  0.0878
 1949TIP3    H227263   0.511   6.582  15.113 -0.1687  0.9765  0.2596
 1950TIP3   OH227264   4.111   3.709   2.395  0.0170  1.0886  0.1683
 1950TIP3    H127265   4.180   3.715   2.461  1.4632  0.4630 -1.2130
 1950TIP3    H227266   4.063   3.792   2.403  0.9980  1.5917  1.0777
 1951TIP3   OH227267   0.217   1.234   2.712 -0.1678  0.4904  0.0698
 1951TIP3    H127268   0.235   1.172   2.640  0.5737 -0.0543  0.7084
 1951TIP3    H227269   0.135   1.201   2.751  0.1357 -0.0024  0.3040
 1952TIP3   OH227270   6.777   1.023   0.660 -0.0814  0.1847 -0.1101
 1952TIP3    H127271   6.763   1.104   0.710 -0.6422  0.8063 -1.2365
 1952TIP3    H227272   6.872   1.019   0.648 -0.0889  1.0340 -0.5874
 1953TIP3   OH227273   1.781   6.100  14.742 -0.4045 -0.7118  0.0188
 1953TIP3    H127274   1.784   6.013  14.782  3.2307 -1.6137 -1.7720
 1953TIP3    H227275   1.859   6.145  14.776 -2.4886  2.2457  1.3918
 1954TIP3   OH227276   6.700   5.809  14.093  0.3604 -0.6791 -0.1609
 1954TIP3    H127277   6.664   5.799  14.005  0.5860 -0.4175 -0.2812
 1954TIP3    H227278   6.774   5.868  14.083  0.4347 -0.7084  0.1925
 1955TIP3   OH227279   3.471   6.708   0.836 -0.2193 -0.2425 -0.3845
 1955TIP3    H127280   3.474   6.678   0.745  1.5839 -0.2350 -0.3642
 1955TIP3    H227281   3.481   6.803   0.830 -1.9435 -0.0159 -0.2365
 1956TIP3   OH227282   0.358   5.853  16.928 -0.3415 -0.2685  0.0572
 1956TIP3    H127283   0.282   5.798  16.947 -1.1685  0.0467 -2.0591
 1956TIP3    H227284   0.433   5.796  16.943 -1.0998 -1.3704 -0.2282
 1957TIP3   OH227285   0.939   3.279  13.467 -0.1427  0.0258 -0.0354
 1957TIP3    H127286   0.956   3.322  13.551  0.3874  2.4968 -1.3192
 1957TIP3    H227287   1.022   3.236  13.445  0.5339  1.4522 -0.3997
 1958TIP3   OH227288   6.031   0.976   0.739  0.0785  0.1407  0.0588
 1958TIP3    H127289   6.021   1.057   0.788 -2.5545 -0.4639  0.7053
 1958TIP3    H227290   5.960   0.978   0.674 -0.9407 -2.1316  0.9622
 1959TIP3   OH227291   3.131   6.303  12.255 -0.2652 -0.8463 -0.0761
 1959TIP3    H127292   3.039   6.329  12.248  0.0407  0.2481 -0.2547
 1959TIP3    H227293   3.135   6.252  12.336 -0.8726 -0.1259  0.4311
 1960TIP3   OH227294   0.312   6.763  12.775  0.3898 -0.4828 -0.3837
 1960TIP3    H127295   0.229   6.728  12.807  0.2042 -0.9394 -1.3180
 1960TIP3    H227296   0.374   6.691  12.783  0.4409 -0.4708 -0.6543
 1961TIP3   OH227297   1.410   5.340   6.004  0.2407 -0.2185  0.0923
 1961TIP3    H127298   1.364   5.416   6.037  1.2758 -0.3302  1.9422
 1961TIP3    H227299   1.363   5.265   6.041  0.0123 -0.4359 -0.6296
 1962TIP3   OH227300   4.691   3.004   5.663  0.8319 -0.1137 -1.2992
 1962TIP3    H127301   4.647   2.977   5.743  1.1458 -0.7566 -1.3377
 1962TIP3    H227302   4.620   3.021   5.601  0.6172 -0.6611 -1.2087
 1963TIP3   OH227303   5.739   6.316   3.669 -0.2135 -0.7288  0.0616
 1963TIP3    H127304   5.652   6.351   3.648  0.2682  0.3145 -0.2452
 1963TIP3    H227305   5.721   6.229   3.705 -1.2329 -2.3160 -3.6782
 1964TIP3   OH227306   5.348   5.905   2.465 -0.4932 -0.6232  0.2614
 1964TIP3    H127307   5.421   5.846   2.484 -0.3223 -0.1514  1.1276
 1964TIP3    H227308   5.278   5.875   2.522 -0.1115  0.5506  1.4049
 1965TIP3   OH227309   1.843   3.468   0.978  0.3985  0.0247 -0.5520
 1965TIP3    H127310   1.904   3.540   0.967 -1.1920  1.5627  0.2546
 1965TIP3    H227311   1.788   3.471   0.899 -0.4417  0.5019  0.0349
 1966TIP3   OH227312   5.383   5.813  14.527 -0.4097 -0.3417 -0.2694
 1966TIP3    H127313   5.305   5.869  14.528  0.2462  0.5915  0.4496
 1966TIP3    H227314   5.388   5.781  14.437 -0.3478  1.4237 -0.9343
 1967TIP3   OH227315   6.694   4.415  17.151 -0.0135 -0.1641  0.4935
 1967TIP3    H127316   6.604   4.438  17.129  0.5229  0.7364 -0.9058
 1967TIP3    H227317   6.735   4.395  17.067  1.7065  1.7896  0.7716
 1968TIP3   OH227318   4.258   5.348   0.463  0.2745  0.0140 -0.2529
 1968TIP3    H127319   4.196   5.340   0.536 -0.3238 -1.4871 -0.8867
 1968TIP3    H227320   4.343   5.362   0.505 -0.5274  2.7951  0.6246
 1969TIP3   OH227321   4.316   0.333   3.713  0.2298  0.0767 -0.3778
 1969TIP3    H127322   4.234   0.331   3.762  0.8560  0.9329  0.7435
 1969TIP3    H227323   4.384   0.323   3.779  1.0753  0.3461 -1.1842
 1970TIP3   OH227324   4.302   2.545   5.836  0.3272  0.3410  0.7274
 1970TIP3    H127325   4.343   2.496   5.766 -0.1346 -0.2852  0.8850
 1970TIP3    H227326   4.309   2.636   5.809 -0.4548  0.0677 -0.4636
 1971TIP3   OH227327   4.084   5.410  12.962  0.3270  0.3672 -0.4053
 1971TIP3    H127328   4.126   5.324  12.973 -1.5929 -0.5600  0.0786
 1971TIP3    H227329   4.000   5.390  12.920 -1.1767  1.7138  1.7842
 1972TIP3   OH227330   2.009   5.056  14.418  0.1124  0.3387  0.8438
 1972TIP3    H127331   1.960   5.138  14.422 -2.3969 -1.0696  0.9257
 1972TIP3    H227332   2.017   5.028  14.509 -0.6532 -0.3926  0.6903
 1973TIP3   OH227333   0.911   2.938   0.128  0.1350  0.3867  0.7930
 1973TIP3    H127334   0.850   3.011   0.124 -0.5752 -0.2398 -0.3775
 1973TIP3    H227335   0.997   2.976   0.109 -0.2424  0.9074  0.0976
 1974TIP3   OH227336   4.779   0.957   4.285  0.2968  0.3550 -0.4187
 1974TIP3    H127337   4.735   1.040   4.265  0.5910  0.5394 -0.3044
 1974TIP3    H227338   4.846   0.980   4.348 -1.0618 -0.3190  1.3760
 1975TIP3   OH227339   5.318   0.336  13.741  0.8047 -0.0451 -0.1775
 1975TIP3    H127340   5.344   0.255  13.697  0.7779  0.3834 -1.0071
 1975TIP3    H227341   5.393   0.394  13.729  0.5265  0.3005 -0.2498
 1976TIP3   OH227342   2.773   2.239  10.762  0.3429 -0.3227  0.3895
 1976TIP3    H127343   2.797   2.210  10.674  0.3611 -1.8299  0.8605
 1976TIP3    H227344   2.828   2.186  10.821  1.4145  1.6951  1.3022
 1977TIP3   OH227345   0.315   0.793   5.639 -0.5848 -0.1806  0.2368
 1977TIP3    H127346   0.238   0.799   5.583  1.3014  0.3299 -2.4738
 1977TIP3    H227347   0.341   0.701   5.634 -1.1287 -0.4099  1.3624
 1978TIP3   OH227348   6.138   5.905  11.705 -0.1512 -0.2851 -0.5465
 1978TIP3    H127349   6.077   5.923  11.633  0.3097  2.5803 -0.3523
 1978TIP3    H227350   6.220   5.947  11.677 -0.7918  3.9133  2.8357
 1979TIP3   OH227351   6.518   5.905  16.295 -0.3633 -0.0038 -0.4886
 1979TIP3    H127352   6.535   5.819  16.333  0.1997  0.0322 -0.6487
 1979TIP3    H227353   6.603   5.934  16.262 -0.5601  0.5851 -0.4975
 1980TIP3   OH227354   4.004   0.603  15.531 -0.0677 -0.0689  0.0751
 1980TIP3    H127355   3.959   0.629  15.450 -0.0735  0.3484  0.2139
 1980TIP3    H227356   4.053   0.524  15.506  0.5058  0.4687 -0.5217
 1981TIP3   OH227357   5.081   5.270   5.612 -0.1186  0.1503 -0.5146
 1981TIP3    H127358   4.996   5.313   5.603  0.3476  0.9710 -1.1964
 1981TIP3    H227359   5.141   5.341   5.638  0.4413 -0.3250 -0.4859
 1982TIP3   OH227360   3.030   2.604  16.233 -0.8091 -0.2749  0.0148
 1982TIP3    H127361   2.990   2.609  16.146  1.4061 -0.3464 -1.0818
 1982TIP3    H227362   3.120   2.574  16.217 -0.4483 -0.6847  2.3797
 1983TIP3   OH227363   4.583   4.394  14.495  0.7876 -0.3357 -0.2760
 1983TIP3    H127364   4.644   4.320  14.501 -0.0915 -1.0121  0.5721
 1983TIP3    H227365   4.627   4.466  14.541  0.3191 -1.2743  1.7511
 1984TIP3   OH227366   1.869   2.747  15.395  0.1730 -0.2275 -0.0113
 1984TIP3    H127367   1.918   2.675  15.356  1.4150  0.5574  0.0475
 1984TIP3    H227368   1.897   2.824  15.346  1.3535  0.7118  1.9818
 1985TIP3   OH227369   6.140   0.716   6.553  0.1809  0.1158  0.6200
 1985TIP3    H127370   6.058   0.758   6.529 -0.0659 -0.6702  0.0835
 1985TIP3    H227371   6.115   0.644   6.611  0.3960 -0.7782 -0.3828
 1986TIP3   OH227372   3.392   1.716  16.559 -0.2141  1.0406  1.1822
 1986TIP3    H127373   3.305   1.729  16.522 -0.2549 -1.0619  0.3753
 1986TIP3    H227374   3.381   1.731  16.653 -2.4693 -2.9123  1.7731
 1987TIP3   OH227375   2.441   1.820  14.215 -0.7083  0.4176 -0.0490
 1987TIP3    H127376   2.427   1.735  14.173 -0.6759  1.0008 -1.2990
 1987TIP3    H227377   2.523   1.809  14.263 -0.6270 -0.2191 -0.3137
 1988TIP3   OH227378   2.772   4.887  14.570  0.1253  0.1108 -0.5282
 1988TIP3    H127379   2.781   4.981  14.555  0.5412 -0.1534 -2.1733
 1988TIP3    H227380   2.689   4.863  14.529 -1.6978  0.2360  2.7305
 1989TIP3   OH227381   2.614   2.104  13.729 -0.0510 -0.2315 -0.7207
 1989TIP3    H127382   2.581   2.065  13.649  0.5660  0.0920 -1.1367
 1989TIP3    H227383   2.709   2.109  13.717 -0.1544  2.3672 -1.1644
 1990TIP3   OH227384   0.384   6.702  11.911 -0.0814 -0.3480  0.2765
 1990TIP3    H127385   0.343   6.616  11.902  3.5814 -2.6888  3.0289
 1990TIP3    H227386   0.388   6.716  12.006  0.2065  2.5136 -0.0932
 1991TIP3   OH227387   1.009   0.297  17.121 -0.0986  0.7089  0.8020
 1991TIP3    H127388   0.962   0.314  17.040 -0.4419  0.3987  0.9328
 1991TIP3    H227389   1.097   0.331  17.105  0.7129 -1.7824 -0.7444
 1992TIP3   OH227390   5.113   6.012  13.174  0.2377  0.3822 -0.2095
 1992TIP3    H127391   5.159   6.087  13.212  0.6933  1.1327 -2.1290
 1992TIP3    H227392   5.179   5.966  13.123 -0.4565 -0.3195 -0.5104
 1993TIP3   OH227393   4.899   2.926   5.820  0.4280  0.3870  0.3488
 1993TIP3    H127394   4.829   2.949   5.759  1.9192 -0.6150 -1.9285
 1993TIP3    H227395   4.855   2.884   5.893 -1.4124  0.7035 -0.5124
 1994TIP3   OH227396   3.783   3.680   1.549  0.0285  0.1706 -0.3487
 1994TIP3    H127397   3.718   3.750   1.547  0.8565  1.0901  1.7177
 1994TIP3    H227398   3.766   3.628   1.471 -1.2730  2.0918 -1.4000
 1995TIP3   OH227399   1.569   1.567   2.649  0.2943 -0.0415 -0.1155
 1995TIP3    H127400   1.637   1.519   2.602 -0.5839 -2.1797  0.7101
 1995TIP3    H227401   1.532   1.626   2.584  0.2363 -1.7384 -1.6870
 1996TIP3   OH227402   3.646   0.373  14.519 -0.9230  0.7601 -0.7187
 1996TIP3    H127403   3.612   0.300  14.468 -2.1470  0.1271  0.8904
 1996TIP3    H227404   3.573   0.434  14.526 -0.9212  0.6414  0.5747
 1997TIP3   OH227405   2.604   6.752  13.592  0.1965 -0.6086  1.0962
 1997TIP3    H127406   2.696   6.741  13.617  0.7875  3.1817  1.1868
 1997TIP3    H227407   2.606   6.768  13.498 -0.5503 -1.5416  0.9000
 1998TIP3   OH227408   2.452   5.955   3.353 -0.1890 -0.2438 -0.3979
 1998TIP3    H127409   2.423   5.905   3.276 -0.9861  0.1843 -0.3800
 1998TIP3    H227410   2.547   5.962   3.342 -0.2893 -0.2187 -1.3245
 1999TIP3   OH227411   3.354   2.148   4.909 -1.1132 -1.0326  0.2310
 1999TIP3    H127412   3.362   2.098   4.990 -1.0313  0.2758  1.0471
 1999TIP3    H227413   3.274   2.200   4.921 -0.2312  0.3821  0.1734
 2000TIP3   OH227414   3.114   1.936  16.069 -0.2832  0.0279 -0.2449
 2000TIP3    H127415   3.027   1.950  16.107 -0.1896  0.1686 -0.0826
 2000TIP3    H227416   3.174   1.952  16.141 -0.1720 -1.6711  0.0849
 2001TIP3   OH227417   1.756   0.967  17.277 -0.0487 -0.2539  0.5420
 2001TIP3    H127418   1.733   0.993  17.188 -1.0054 -0.7054  0.6464
 2001TIP3    H227419   1.686   0.908  17.304  0.2212 -0.1151  1.5982
 2002TIP3   OH227420   0.157   4.221   4.345 -0.0225  0.2615  0.0141
 2002TIP3    H127421   0.078   4.190   4.301 -0.2457  0.7468  0.0555
 2002TIP3    H227422   0.229   4.196   4.287 -0.1791 -0.4722  0.1363
 2003TIP3   OH227423   1.174   5.728   1.776  0.1272  0.1406 -0.6450
 2003TIP3    H127424   1.191   5.652   1.831  1.0286  1.1005  0.4468
 2003TIP3    H227425   1.261   5.763   1.755 -0.2848  1.6362 -0.0257
 2004TIP3   OH227426   0.176   4.768   3.833 -0.0545 -0.3600  0.1653
 2004TIP3    H127427   0.107   4.812   3.883  0.6924 -0.8724  1.7154
 2004TIP3    H227428   0.247   4.756   3.896  1.8132  0.8837 -1.5951
 2005TIP3   OH227429   5.839   3.409   4.640 -0.2989  0.3039  0.5369
 2005TIP3    H127430   5.846   3.330   4.693 -0.4428  1.0917  1.7671
 2005TIP3    H227431   5.768   3.391   4.579  0.2463 -0.8370  0.2076
 2006TIP3   OH227432   1.144   4.042   6.539  0.2261 -0.3785  0.0765
 2006TIP3    H127433   1.057   4.045   6.499  0.1909 -2.2107 -0.0925
 2006TIP3    H227434   1.129   4.071   6.630 -0.3059  0.5379 -0.2901
 2007TIP3   OH227435   2.870   0.915  12.270 -0.0557 -0.1369  0.2330
 2007TIP3    H127436   2.804   0.977  12.238 -0.0857 -0.5941 -0.5980
 2007TIP3    H227437   2.937   0.913  12.202  0.8350  0.3205  1.0721
 2008TIP3   OH227438   4.656   3.618  11.220  0.0144  0.3778 -0.5170
 2008TIP3    H127439   4.641   3.524  11.217 -1.1794  0.5188  0.3114
 2008TIP3    H227440   4.580   3.656  11.175 -0.0282  0.9629  0.0287
 2009TIP3   OH227441   3.404   3.315  13.352 -0.0793  0.5073 -0.5950
 2009TIP3    H127442   3.369   3.273  13.274  1.0377  0.0580 -0.8710
 2009TIP3    H227443   3.476   3.258  13.381 -1.6870 -0.4102  1.9221
 2010TIP3   OH227444   1.180   2.130  10.931 -0.3117 -0.2306  0.4951
 2010TIP3    H127445   1.197   2.191  11.003  1.3362  1.2841 -1.0666
 2010TIP3    H227446   1.121   2.178  10.873  0.0021 -0.6162 -0.1494
 2011TIP3   OH227447   5.347   4.165  16.053 -0.2160 -0.2333 -0.2889
 2011TIP3    H127448   5.322   4.147  15.963  0.1128 -0.7875 -0.2693
 2011TIP3    H227449   5.440   4.143  16.058  0.6390  2.8689 -0.6528
 2012TIP3   OH227450   3.723   0.287   4.265  0.5716  0.1282 -0.2784
 2012TIP3    H127451   3.786   0.240   4.319  0.5454  0.8835  0.4415
 2012TIP3    H227452   3.738   0.379   4.286 -2.9518  0.3103  2.5473
 2013TIP3   OH227453   5.790   4.047  16.496 -0.4234  0.0202  0.2635
 2013TIP3    H127454   5.875   4.004  16.488 -0.0453  0.6047  1.0081
 2013TIP3    H227455   5.810   4.134  16.530 -1.3472  0.0332  0.8062
 2014TIP3   OH227456   2.088   6.384   2.753  0.6966 -0.3994 -0.1737
 2014TIP3    H127457   2.148   6.458   2.761  2.0351 -1.4811  0.2997
 2014TIP3    H227458   2.123   6.318   2.813 -0.5545 -1.3636 -0.4414
 2015TIP3   OH227459   6.384   4.599  12.375 -0.6935 -0.4873 -0.4635
 2015TIP3    H127460   6.326   4.594  12.299 -0.4601  0.8261 -0.7571
 2015TIP3    H227461   6.472   4.594  12.338 -0.5724  0.4539 -0.3273
 2016TIP3   OH227462   5.304   1.230   2.054  0.0885  0.0504 -0.4513
 2016TIP3    H127463   5.236   1.174   2.091  0.7427  1.2147  2.8486
 2016TIP3    H227464   5.386   1.186   2.077  0.5503  0.5889 -1.0217
 2017TIP3   OH227465   6.667   0.793   2.052 -0.0853 -0.3212  0.1776
 2017TIP3    H127466   6.702   0.881   2.066 -1.0217  0.1272 -0.2181
 2017TIP3    H227467   6.573   0.805   2.043 -0.0658 -1.1246 -1.6798
 2018TIP3   OH227468   3.874   4.131   5.170  0.2946 -0.1454  0.1026
 2018TIP3    H127469   3.875   4.040   5.200 -1.7276 -0.1210  0.4298
 2018TIP3    H227470   3.923   4.131   5.088 -2.9686 -2.4576 -2.1027
 2019TIP3   OH227471   5.634   3.706   2.710  0.2994 -0.1918 -0.2356
 2019TIP3    H127472   5.613   3.618   2.741  0.1049 -0.5524 -1.3666
 2019TIP3    H227473   5.612   3.763   2.784  0.7412 -1.1095  0.6354
 2020TIP3   OH227474   2.995   6.087   4.288 -0.1645 -0.4803 -0.0846
 2020TIP3    H127475   3.002   6.181   4.306 -1.4226 -0.6562  1.5286
 2020TIP3    H227476   3.076   6.050   4.323 -0.3974 -0.1806  0.7982
 2021TIP3   OH227477   1.595   1.866  17.220  0.6211  0.2168 -0.4041
 2021TIP3    H127478   1.591   1.961  17.211 -0.8297  0.2347  0.0945
 2021TIP3    H227479   1.625   1.851  17.309 -0.5309  0.2540  0.0137
 2022TIP3   OH227480   1.962   6.136   3.251  0.0014 -0.3572 -0.2562
 2022TIP3    H127481   2.023   6.113   3.321 -0.7824 -2.6869 -0.2595
 2022TIP3    H227482   1.924   6.219   3.279  0.6274 -0.6113  1.4765
 2023TIP3   OH227483   2.515   4.281   0.897 -0.2843  0.8274  0.5667
 2023TIP3    H127484   2.506   4.261   0.991 -0.7643 -0.1992  0.3245
 2023TIP3    H227485   2.609   4.285   0.882 -0.2075  1.7493  1.2338
 2024TIP3   OH227486   1.015   6.419  16.064  0.2487 -0.0205  0.2660
 2024TIP3    H127487   1.099   6.418  16.109  0.4400 -1.1265 -0.0747
 2024TIP3    H227488   0.954   6.454  16.129  1.0083  1.1201  0.4068
 2025TIP3   OH227489   1.009   4.073  17.054  0.2153  0.6548 -0.2322
 2025TIP3    H127490   0.952   4.142  17.089 -1.2134 -1.2839  1.4976
 2025TIP3    H227491   0.955   3.994  17.056  2.7831 -1.2025  1.0481
 2026TIP3   OH227492   6.627   3.384  13.133  0.3760  0.6199  0.0452
 2026TIP3    H127493   6.643   3.360  13.042 -1.3131 -1.1633  0.1523
 2026TIP3    H227494   6.595   3.474  13.129  0.4324  0.5998 -1.1194
 2027TIP3   OH227495   1.580   2.385   4.780 -0.5569  0.7472 -0.0978
 2027TIP3    H127496   1.532   2.322   4.833  0.6955  0.2533  0.5033
 2027TIP3    H227497   1.659   2.339   4.754  1.2974  2.5616  1.8743
 2028TIP3   OH227498   1.951   2.373  13.573  0.2539 -0.0167 -0.0220
 2028TIP3    H127499   1.875   2.377  13.630 -0.3146 -0.5863 -0.7093
 2028TIP3    H227500   1.992   2.288  13.593 -0.3691 -0.5567 -0.9506
 2029TIP3   OH227501   5.129   4.577   4.600 -0.0637  0.3676 -0.4508
 2029TIP3    H127502   5.099   4.563   4.690 -0.6356  1.2756 -0.4811
 2029TIP3    H227503   5.201   4.516   4.588 -1.8480 -1.8695 -0.3333
 2030TIP3   OH227504   4.390   4.168   2.788 -0.8999  0.3968  0.3367
 2030TIP3    H127505   4.478   4.180   2.825 -0.0758 -2.2756 -0.5185
 2030TIP3    H227506   4.401   4.183   2.695 -1.2175 -0.3522  0.1669
 2031TIP3   OH227507   0.219   0.119  12.026  0.3892  0.3054  0.8299
 2031TIP3    H127508   0.299   0.111  11.974  0.2370  0.6255  0.5402
 2031TIP3    H227509   0.189   0.029  12.039  0.3592  0.2245  0.2470
 2032TIP3   OH227510   0.006   1.945  13.474  0.0120 -0.1699  0.2797
 2032TIP3    H127511   0.051   2.024  13.444 -1.8094  0.6304 -0.5040
 2032TIP3    H227512   0.026   1.879  13.409  1.3179 -0.2988  0.7881
 2033TIP3   OH227513   6.769   4.934  16.138  0.3767  0.5883  0.2821
 2033TIP3    H127514   6.805   5.005  16.084  0.3456  1.3227  1.2035
 2033TIP3    H227515   6.714   4.979  16.202 -2.2354 -0.4659 -1.0419
 2034TIP3   OH227516   0.723   3.102  13.482 -0.4715  0.2948 -0.0255
 2034TIP3    H127517   0.762   3.190  13.485 -0.7744  0.3996  0.9118
 2034TIP3    H227518   0.645   3.108  13.537 -1.9543  0.1257 -1.9840
 2035TIP3   OH227519   0.410   6.580  11.336  0.5713 -0.3478  0.3064
 2035TIP3    H127520   0.503   6.601  11.343  0.9582 -2.4294  2.9790
 2035TIP3    H227521   0.404   6.519  11.263  1.3977 -0.5929  0.4356
 2036TIP3   OH227522   3.329   6.183   1.364  0.1790  0.6177  0.1051
 2036TIP3    H127523   3.310   6.253   1.302 -0.7071  0.6815  0.4457
 2036TIP3    H227524   3.370   6.227   1.439 -0.3842  0.7704  0.3218
 2037TIP3   OH227525   1.374   1.237   5.857  0.0855  0.1382 -0.0018
 2037TIP3    H127526   1.391   1.330   5.842 -3.5609  0.9871  0.3227
 2037TIP3    H227527   1.399   1.224   5.949 -2.6381  1.8327  1.1109
 2038TIP3   OH227528   5.796   2.075  11.091  0.0267  0.0264  0.7437
 2038TIP3    H127529   5.842   1.992  11.103 -0.1350  0.0140  1.2950
 2038TIP3    H227530   5.706   2.050  11.068 -0.1090  0.0489  1.2533
 2039TIP3   OH227531   3.755   4.112  17.139  0.7452  0.1425  0.1917
 2039TIP3    H127532   3.822   4.109  17.207  0.7516  1.6559  0.2926
 2039TIP3    H227533   3.708   4.193  17.156 -1.7954 -1.3317  0.7499
 2040TIP3   OH227534   3.160   4.686   6.019 -0.0955  0.0883  0.2362
 2040TIP3    H127535   3.212   4.680   5.939  0.2215  0.1636  0.4361
 2040TIP3    H227536   3.197   4.620   6.077  0.6345  1.0356  0.8669
 2041TIP3   OH227537   1.413   5.204   5.403 -0.3219  0.1499  0.7538
 2041TIP3    H127538   1.470   5.255   5.345  0.3569  0.2691  1.5086
 2041TIP3    H227539   1.340   5.262   5.422 -0.0551  0.4750  0.7990
 2042TIP3   OH227540   2.528   5.145  13.607  0.2496 -0.0598 -0.0828
 2042TIP3    H127541   2.572   5.065  13.638  0.0804 -0.3779 -0.6595
 2042TIP3    H227542   2.447   5.114  13.567 -0.4163  0.5115  0.7880
 2043TIP3   OH227543   0.718   6.650   2.053  0.3919 -0.4037 -0.1667
 2043TIP3    H127544   0.656   6.663   1.981 -0.1532 -0.9431  0.1945
 2043TIP3    H227545   0.774   6.578   2.025  2.1221  1.2813 -1.3098
 2044TIP3   OH227546   2.792   1.905   2.624 -0.4199  0.2273  0.2095
 2044TIP3    H127547   2.706   1.937   2.651 -1.1708 -1.4147 -0.0752
 2044TIP3    H227548   2.815   1.960   2.549 -2.1657 -0.5397 -0.9649
 2045TIP3   OH227549   2.028   3.116  14.824  0.0859  0.0308 -0.5583
 2045TIP3    H127550   2.078   3.050  14.873 -0.2839  0.8814  1.0372
 2045TIP3    H227551   2.094   3.163  14.773  0.4214 -1.1836 -1.2866
 2046TIP3   OH227552   4.715   4.526  13.041  0.5297 -0.4032 -0.0468
 2046TIP3    H127553   4.736   4.453  12.982  0.3301 -0.3098 -0.2364
 2046TIP3    H227554   4.666   4.587  12.987  0.5877 -0.1849  0.1462
 2047TIP3   OH227555   6.026   5.515   2.232 -0.1743 -0.2798  0.0464
 2047TIP3    H127556   6.041   5.470   2.149  0.3187  0.1984 -0.1327
 2047TIP3    H227557   6.039   5.447   2.298 -0.3484 -0.6135 -0.2557
 2048TIP3   OH227558   5.646   1.473   3.756 -0.0882 -0.6914  0.1753
 2048TIP3    H127559   5.696   1.555   3.756 -0.5411 -0.3798  1.6492
 2048TIP3    H227560   5.567   1.494   3.705 -1.3789  0.6132  2.5540
 2049TIP3   OH227561   3.710   3.939   1.380  0.5630  0.6466  0.0302
 2049TIP3    H127562   3.743   4.003   1.443  1.2489 -0.1328  0.4947
 2049TIP3    H227563   3.784   3.920   1.323  0.1729  0.7573 -0.5230
 2050TIP3   OH227564   0.360   1.010  13.548  0.5098  0.0951  0.0064
 2050TIP3    H127565   0.279   0.961  13.532  0.6661 -0.1733  0.0326
 2050TIP3    H227566   0.355   1.085  13.489 -1.1879  1.7563  2.0838
 2051TIP3   OH227567   0.079   2.837  12.776  0.4116 -0.1472 -0.7900
 2051TIP3    H127568   0.143   2.827  12.846  1.3046 -0.1242 -1.5774
 2051TIP3    H227569   0.095   2.761  12.719 -2.8022 -2.3059  0.8940
 2052TIP3   OH227570   5.444   1.008  11.123 -0.1359  0.6928 -1.0218
 2052TIP3    H127571   5.392   1.012  11.203 -0.0315  1.0292 -0.9702
 2052TIP3    H227572   5.381   1.028  11.053 -0.3054  0.0443 -1.0621
 2053TIP3   OH227573   5.153   5.815   2.630  0.8798  0.1152 -0.0818
 2053TIP3    H127574   5.089   5.852   2.569 -0.7752 -2.2887  0.0471
 2053TIP3    H227575   5.128   5.850   2.715  1.1308  0.9085 -0.3301
 2054TIP3   OH227576   6.363   3.487   5.149  0.4952  0.4809 -0.2093
 2054TIP3    H127577   6.416   3.565   5.131  0.5778  0.1112 -1.7144
 2054TIP3    H227578   6.427   3.417   5.160  0.4068 -0.1118 -2.7357
 2055TIP3   OH227579   3.146   2.398   4.226 -0.6649  0.1366  0.0650
 2055TIP3    H127580   3.111   2.356   4.147 -0.5625 -1.0232  0.6184
 2055TIP3    H227581   3.125   2.338   4.297  1.2648  0.0325  0.6054
 2056TIP3   OH227582   4.985   4.707   3.570 -0.2340  0.2010  0.6572
 2056TIP3    H127583   4.983   4.612   3.580 -1.7916 -0.1237 -1.9547
 2056TIP3    H227584   5.077   4.726   3.548 -0.4506 -1.1793 -1.8893
 2057TIP3   OH227585   3.532   5.831  13.819  0.4404  0.4555  0.0288
 2057TIP3    H127586   3.527   5.917  13.775  0.0838  0.3469 -0.1549
 2057TIP3    H227587   3.603   5.840  13.881 -0.2127  1.2097  0.6971
 2058TIP3   OH227588   1.386   3.896  16.114  0.2623  0.3431  0.3680
 2058TIP3    H127589   1.463   3.930  16.160 -0.1045  1.0954  0.4368
 2058TIP3    H227590   1.356   3.969  16.060 -0.9020  0.3230  0.9743
 2059TIP3   OH227591   2.431   0.207  17.290  0.5526  0.3926 -0.3707
 2059TIP3    H127592   2.353   0.158  17.265  1.8041 -1.8863 -0.1237
 2059TIP3    H227593   2.399   0.292  17.318 -1.7575 -0.2708 -0.8151
 2060TIP3   OH227594   2.663   1.457  14.318 -0.2359  0.1833 -0.4551
 2060TIP3    H127595   2.605   1.387  14.350 -1.1808  1.2558  0.2601
 2060TIP3    H227596   2.681   1.433  14.227 -0.8448 -0.7911 -0.3384
 2061TIP3   OH227597   0.492   3.653  12.769 -0.5150 -0.1611  0.3759
 2061TIP3    H127598   0.490   3.732  12.823 -0.9280 -0.0071  0.1420
 2061TIP3    H227599   0.435   3.591  12.814 -0.5534 -0.1658  0.3215
 2062TIP3   OH227600   4.522   0.835  14.018 -0.1055 -0.2743  0.3967
 2062TIP3    H127601   4.453   0.886  13.975 -1.3643 -1.0646  1.3829
 2062TIP3    H227602   4.584   0.900  14.051  0.5666  0.3813 -1.9792
 2063TIP3   OH227603   6.143   6.521  14.604  0.2447 -0.3706  0.1400
 2063TIP3    H127604   6.100   6.465  14.539  0.4739  1.2304 -1.4590
 2063TIP3    H227605   6.086   6.516  14.681 -0.1253 -2.1752 -0.1981
 2064TIP3   OH227606   5.919   0.377  15.224 -0.3404  0.3683  0.3265
 2064TIP3    H127607   5.826   0.393  15.238 -0.5493  0.2137 -0.8160
 2064TIP3    H227608   5.952   0.459  15.187 -0.0307  0.3881  0.6326
 2065TIP3   OH227609   3.684   2.289   5.811 -0.3018 -0.0546  0.1037
 2065TIP3    H127610   3.743   2.286   5.885 -0.2482  1.1038  0.1327
 2065TIP3    H227611   3.654   2.380   5.808 -0.9692 -0.2862 -0.7677
 2066TIP3   OH227612   0.798   0.537   3.367 -0.0299 -0.4717  0.0999
 2066TIP3    H127613   0.803   0.506   3.457 -0.4042  0.1039  0.3248
 2066TIP3    H227614   0.797   0.633   3.375 -1.4788 -0.4230 -0.4384
 2067TIP3   OH227615   3.368   2.504   0.509  0.1906  0.2606 -0.8135
 2067TIP3    H127616   3.379   2.409   0.496 -0.0027  0.4616 -2.8892
 2067TIP3    H227617   3.376   2.540   0.421 -0.6639  2.0951 -0.1712
 2068TIP3   OH227618   3.739   6.467  16.168  0.9087  0.3720  0.1892
 2068TIP3    H127619   3.675   6.419  16.115 -0.9214  0.8293  1.8464
 2068TIP3    H227620   3.695   6.479  16.252  2.9138  1.4112  1.1490
 2069TIP3   OH227621   3.645   4.638  12.658 -0.7341 -0.3176  0.0088
 2069TIP3    H127622   3.625   4.589  12.738  0.7725 -1.7056 -0.4226
 2069TIP3    H227623   3.648   4.573  12.589  3.3778 -0.1163 -0.2507
 2070TIP3   OH227624   2.789   3.176   0.210 -0.0101 -0.1759 -0.0947
 2070TIP3    H127625   2.758   3.137   0.291  1.1196  1.0055  0.9439
 2070TIP3    H227626   2.844   3.249   0.237 -1.5676  1.8356 -1.9532
 2071TIP3   OH227627   5.995   1.891   2.715  0.1359 -0.1284  0.1946
 2071TIP3    H127628   5.972   1.825   2.649 -2.2909 -0.2698  1.0827
 2071TIP3    H227629   5.970   1.974   2.675  2.5202  0.2712 -0.6311
 2072TIP3   OH227630   1.960   4.328  11.972 -0.2717 -0.0197 -0.1085
 2072TIP3    H127631   2.023   4.365  12.035  0.0657 -0.4385 -0.1888
 2072TIP3    H227632   1.875   4.362  11.999 -0.5499 -2.2054  2.2185
 2073TIP3   OH227633   6.631   5.004   1.606 -0.4917 -0.3224  0.3436
 2073TIP3    H127634   6.726   5.016   1.603 -0.5172  1.1950  2.9067
 2073TIP3    H227635   6.595   5.091   1.588 -1.4421 -0.9682 -1.0334
 2074TIP3   OH227636   1.112   1.371   1.313  0.5663 -0.1600  0.8379
 2074TIP3    H127637   1.032   1.344   1.269  0.0829 -2.0346  2.7002
 2074TIP3    H227638   1.182   1.350   1.252 -0.1858 -1.0684  0.2667
 2075TIP3   OH227639   3.585   2.996  15.888 -0.2438  0.6473  0.9589
 2075TIP3    H127640   3.526   2.922  15.900  0.6116 -0.0678  0.8160
 2075TIP3    H227641   3.534   3.072  15.918 -1.3214  0.0938  0.6025
 2076TIP3   OH227642   3.285   5.150  11.387 -0.1810 -0.3749  0.0436
 2076TIP3    H127643   3.325   5.104  11.461 -0.9032 -0.7688  0.1944
 2076TIP3    H227644   3.191   5.135  11.397 -0.3996  0.7601 -0.1557
 2077TIP3   OH227645   5.742   5.636  15.772 -0.3099  0.2409  0.7950
 2077TIP3    H127646   5.681   5.681  15.831 -3.1016  1.4573 -2.6824
 2077TIP3    H227647   5.720   5.543  15.781  0.1476  0.2594  2.4265
 2078TIP3   OH227648   0.337   4.861   1.625 -0.0577 -0.1321 -0.1586
 2078TIP3    H127649   0.428   4.890   1.619 -0.4140  1.5081  1.5354
 2078TIP3    H227650   0.335   4.805   1.702 -0.2014 -1.5002 -1.1191
 2079TIP3   OH227651   2.708   3.520   1.106 -0.4845 -0.5162  0.4876
 2079TIP3    H127652   2.626   3.505   1.060 -0.6228  1.2749  0.1093
 2079TIP3    H227653   2.764   3.565   1.043 -0.2144  0.8051  1.6264
 2080TIP3   OH227654   2.334   6.598   4.432  0.2591  0.1892 -0.0030
 2080TIP3    H127655   2.254   6.546   4.433  0.2811  0.1408 -0.3963
 2080TIP3    H227656   2.367   6.595   4.522  0.3069 -0.5513 -0.0405
 2081TIP3   OH227657   6.029   4.120   0.515 -0.4847  0.3488  0.1764
 2081TIP3    H127658   6.018   4.133   0.609 -0.9415  2.7281 -0.1630
 2081TIP3    H227659   5.948   4.154   0.476 -0.7363 -1.5020 -1.0648
 2082TIP3   OH227660   2.473   6.366  15.181 -0.5346 -0.1306  0.3266
 2082TIP3    H127661   2.491   6.372  15.087 -1.0067 -1.0345  0.1726
 2082TIP3    H227662   2.540   6.306  15.214  0.4205  1.1452  0.8081
 2083TIP3   OH227663   2.623   2.272   1.331 -0.3841 -0.1113 -0.3155
 2083TIP3    H127664   2.699   2.271   1.390 -0.2699  0.7060 -0.4435
 2083TIP3    H227665   2.551   2.303   1.385 -0.2418  0.8108 -0.6339
 2084TIP3   OH227666   3.883   2.276   0.271 -0.6975  0.5345  0.0639
 2084TIP3    H127667   3.824   2.204   0.291  1.1415 -0.6522  1.5155
 2084TIP3    H227668   3.933   2.290   0.351  0.4252  2.0487 -0.8362
 2085TIP3   OH227669   0.674   5.054   3.829 -0.2497 -0.1766 -0.9659
 2085TIP3    H127670   0.587   5.078   3.861  1.0862  1.4690  1.8701
 2085TIP3    H227671   0.704   5.131   3.781 -0.0048 -0.3397 -1.0772
 2086TIP3   OH227672   3.674   3.923  13.749  0.0158 -0.0237  0.1781
 2086TIP3    H127673   3.708   3.984  13.814 -2.1596  0.2470  1.1499
 2086TIP3    H227674   3.583   3.908  13.775 -0.2574 -1.7082 -1.5054
 2087TIP3   OH227675   0.672   0.734   5.765  0.5209  0.0166 -0.1395
 2087TIP3    H127676   0.695   0.719   5.673  0.0354 -1.0285 -0.1031
 2087TIP3    H227677   0.619   0.814   5.764  2.1771  1.1558 -0.5046
 2088TIP3   OH227678   5.540   0.802  10.892 -0.1575 -0.3386 -0.0869
 2088TIP3    H127679   5.526   0.715  10.854 -0.5117  0.0768 -0.9397
 2088TIP3    H227680   5.532   0.861  10.818 -1.5286  0.5699  0.7558
 2089TIP3   OH227681   5.784   6.083   2.431 -0.6492  0.3329  0.3430
 2089TIP3    H127682   5.700   6.072   2.476 -0.9299 -1.0430 -0.4867
 2089TIP3    H227683   5.761   6.114   2.344 -0.2940 -0.1586  0.0765
 2090TIP3   OH227684   2.122   2.439   4.115 -0.1270  0.0331 -0.1367
 2090TIP3    H127685   2.142   2.488   4.194  0.0706  2.6842 -1.7164
 2090TIP3    H227686   2.128   2.503   4.045  0.1605 -2.3000 -2.3946
 2091TIP3   OH227687   5.760   1.807  16.531 -0.3034  0.0440 -0.5120
 2091TIP3    H127688   5.821   1.815  16.605 -0.7511 -0.1024 -0.1200
 2091TIP3    H227689   5.791   1.871  16.467  0.0203  0.2574 -0.1466
 2092TIP3   OH227690   0.140   4.297  11.258  0.5125 -0.9861 -0.6057
 2092TIP3    H127691   0.103   4.355  11.324  2.5239  0.7283 -0.8967
 2092TIP3    H227692   0.107   4.210  11.281 -3.0372  0.2230 -0.4499
 2093TIP3   OH227693   3.477   2.665  16.517  0.0228  0.0302 -0.0672
 2093TIP3    H127694   3.503   2.608  16.590  0.9376 -1.3678 -1.4205
 2093TIP3    H227695   3.559   2.705  16.487 -0.5427  1.6838  0.5240
 2094TIP3   OH227696   0.338   5.073   4.953 -0.1594 -0.1549  0.0943
 2094TIP3    H127697   0.299   5.154   4.919  1.2613  0.3829 -0.3399
 2094TIP3    H227698   0.357   5.021   4.875 -1.9866 -1.3783  0.4290
 2095TIP3   OH227699   3.504   3.389   1.443  0.0942  0.1462  0.0707
 2095TIP3    H127700   3.460   3.441   1.376 -0.3126 -1.7785 -1.2558
 2095TIP3    H227701   3.455   3.306   1.446  2.0241 -1.0607  0.4050
 2096TIP3   OH227702   3.098   4.230  12.673 -0.1478  0.5402 -0.6961
 2096TIP3    H127703   3.044   4.192  12.604  1.3334 -1.7822 -0.7005
 2096TIP3    H227704   3.181   4.251  12.630  0.5612 -0.3334  0.1959
 2097TIP3   OH227705   1.134   3.004   1.323 -0.6266  0.2673 -0.0858
 2097TIP3    H127706   1.062   2.950   1.290 -1.1782  0.6073  0.5600
 2097TIP3    H227707   1.125   3.002   1.418  0.1674  0.3841  0.0041
 2098TIP3   OH227708   0.495   4.264   6.713  0.1251  0.0059 -0.4396
 2098TIP3    H127709   0.529   4.223   6.792 -0.3317 -0.3124 -0.4030
 2098TIP3    H227710   0.520   4.205   6.642 -2.3048 -1.4975 -0.1846
 2099TIP3   OH227711   4.172   5.750   5.817 -0.5005  0.1337 -0.3445
 2099TIP3    H127712   4.212   5.788   5.739  0.0919  2.2103  0.9011
 2099TIP3    H227713   4.246   5.712   5.865 -0.4704  1.0864  0.3874
 2100TIP3   OH227714   0.003   0.468   5.726  0.0576  0.2217 -0.4319
 2100TIP3    H127715   0.058   0.465   5.805 -1.0879  1.7539  0.5048
 2100TIP3    H227716  -0.080   0.505   5.757 -1.2619 -1.3351 -1.9344
 2101TIP3   OH227717   0.821   5.798   2.996  0.3241  0.0335  0.3263
 2101TIP3    H127718   0.804   5.869   2.933 -0.4008 -0.2113  0.2342
 2101TIP3    H227719   0.745   5.800   3.055  0.6720 -0.1782  0.7837
 2102TIP3   OH227720   6.063   0.821  11.151  0.5109  0.1328  0.0567
 2102TIP3    H127721   5.975   0.857  11.153 -1.3720 -3.7784 -1.3499
 2102TIP3    H227722   6.101   0.853  11.069 -0.9681 -0.6871 -1.0013
 2103TIP3   OH227723   0.712   2.279  13.201  0.3649 -0.0794 -0.0325
 2103TIP3    H127724   0.753   2.365  13.209  1.3374 -0.6112  0.9646
 2103TIP3    H227725   0.620   2.294  13.222  0.3927  0.8159 -0.5041
 2104TIP3   OH227726   4.368   1.826   5.705 -0.1892 -0.1421 -0.0286
 2104TIP3    H127727   4.428   1.899   5.688  1.0670 -1.4383 -1.5749
 2104TIP3    H227728   4.379   1.808   5.798  1.7185 -0.1748 -0.2088
 2105TIP3   OH227729   1.226   6.052   1.854  0.3707  0.7216  0.3646
 2105TIP3    H127730   1.185   5.972   1.884 -1.0394  1.2228 -0.1414
 2105TIP3    H227731   1.318   6.044   1.880 -0.0373 -0.4414  1.5053
 2106TIP3   OH227732   2.461   2.428   3.432  0.0373  0.2332 -0.4979
 2106TIP3    H127733   2.523   2.360   3.406  2.1028  1.2524  1.4433
 2106TIP3    H227734   2.426   2.398   3.516 -0.6491  0.6133 -0.6381
 2107TIP3   OH227735   6.112   1.581  15.374  0.0948 -0.0052  0.4895
 2107TIP3    H127736   6.191   1.588  15.427  0.0773 -3.5875  1.2505
 2107TIP3    H227737   6.049   1.537  15.431 -1.9325  1.1973 -0.6778
 2108TIP3   OH227738   3.939   5.249  13.869 -0.1452 -0.0186 -0.3734
 2108TIP3    H127739   3.862   5.293  13.906 -0.4378 -0.3553 -0.5637
 2108TIP3    H227740   3.910   5.158  13.858  1.2098 -0.8739  2.2741
 2109TIP3   OH227741   5.535   2.705  16.386  0.1475 -0.8022 -0.2536
 2109TIP3    H127742   5.608   2.670  16.335  1.2992  1.2931 -0.1656
 2109TIP3    H227743   5.501   2.777  16.334 -0.4217 -0.3657  0.6904
 2110TIP3   OH227744   0.853   4.723  14.949  0.7951  0.2799  0.5352
 2110TIP3    H127745   0.919   4.716  15.017  1.1223  0.2717  0.2206
 2110TIP3    H227746   0.900   4.760  14.874 -0.0922  2.8232  1.1002
 2111TIP3   OH227747   1.908   2.424  13.927  0.6668 -0.3817 -0.0058
 2111TIP3    H127748   1.826   2.402  13.972  0.2553  0.3460 -0.3739
 2111TIP3    H227749   1.918   2.355  13.861  0.0365 -0.1574 -0.3447
 2112TIP3   OH227750   2.984   4.269   4.289 -0.5361 -0.4305 -0.6480
 2112TIP3    H127751   2.894   4.240   4.276 -0.7552  0.1862 -0.5038
 2112TIP3    H227752   3.011   4.303   4.203  0.6393 -3.4656 -1.6338
 2113TIP3   OH227753   2.192   5.348   2.624  0.3488 -0.3996  0.0778
 2113TIP3    H127754   2.175   5.353   2.718  0.1883 -0.7495  0.0700
 2113TIP3    H227755   2.276   5.303   2.617  1.6835  1.9473  0.1422
 2114TIP3   OH227756   4.353   4.671   4.342  0.6220  0.0804 -0.2864
 2114TIP3    H127757   4.409   4.615   4.396 -0.0037  2.2805  2.9596
 2114TIP3    H227758   4.269   4.671   4.387  0.1648  2.3810 -1.0312
 2115TIP3   OH227759   0.321   1.648   0.576 -0.0129 -0.2637  0.3280
 2115TIP3    H127760   0.341   1.740   0.565  0.4656 -0.6374 -2.8548
 2115TIP3    H227761   0.401   1.609   0.611  0.6329  0.1947 -0.6022
 2116TIP3   OH227762   0.332   0.312  13.454 -0.1472 -0.0016  0.7580
 2116TIP3    H127763   0.423   0.307  13.485 -0.0425 -0.2590  0.4184
 2116TIP3    H227764   0.317   0.405  13.440  1.2114 -0.1371 -2.4801
 2117TIP3   OH227765   0.297   1.152   5.430 -0.4464  0.2089 -0.1322
 2117TIP3    H127766   0.204   1.162   5.451 -0.3826  0.7760 -0.1314
 2117TIP3    H227767   0.302   1.065   5.389 -0.8500 -0.1588  0.5703
 2118TIP3   OH227768   4.947   5.312   6.160  0.2074 -0.3966  0.3337
 2118TIP3    H127769   4.939   5.379   6.228 -1.4361  0.4151 -0.5700
 2118TIP3    H227770   4.968   5.362   6.081 -1.6351 -0.7963 -0.4808
 2119TIP3   OH227771   0.057   6.000  11.789  0.0949  0.5830  0.1380
 2119TIP3    H127772  -0.010   5.946  11.831 -0.9357  0.9823 -0.9163
 2119TIP3    H227773   0.123   6.014  11.856 -0.8670  0.1497  1.2028
 2120TIP3   OH227774   6.334   1.951  16.759 -0.6620  0.1226 -0.2769
 2120TIP3    H127775   6.295   1.886  16.817 -1.5573  0.8872  0.0089
 2120TIP3    H227776   6.281   2.030  16.773 -0.6372  0.4424 -1.8315
 2121TIP3   OH227777   5.410   4.017  14.255  0.0353  0.1135  0.2405
 2121TIP3    H127778   5.336   4.078  14.262  0.0457  0.2088 -0.3934
 2121TIP3    H227779   5.457   4.026  14.338  1.1276  2.4103 -0.5168
 2122TIP3   OH227780   1.680   4.334  16.963 -0.1716 -0.2452 -0.0274
 2122TIP3    H127781   1.708   4.376  17.044 -1.1814 -0.2891  0.3641
 2122TIP3    H227782   1.719   4.386  16.893 -0.5194  0.7006  0.4726
 2123TIP3   OH227783   4.966   6.740  13.076  0.3825  0.1636 -0.5091
 2123TIP3    H127784   4.979   6.829  13.045 -2.0490  0.6697 -0.2489
 2123TIP3    H227785   5.041   6.723  13.133  0.6605  2.2156 -0.1986
 2124TIP3   OH227786   0.781   3.607   0.797  0.0356 -0.3588  0.0568
 2124TIP3    H127787   0.824   3.587   0.880 -1.5970  2.0284  1.5945
 2124TIP3    H227788   0.853   3.627   0.737  1.3058 -3.0793  0.5026
 2125TIP3   OH227789   3.006   1.719   1.830 -0.0839  0.3456  0.2510
 2125TIP3    H127790   3.079   1.749   1.885 -0.7485  0.8769  0.8533
 2125TIP3    H227791   3.048   1.695   1.747  0.7876  0.5698  0.6088
 2126TIP3   OH227792   4.009   1.622  16.085 -0.2695  0.2206  0.1517
 2126TIP3    H127793   4.100   1.619  16.114 -0.2537  1.0633  0.2057
 2126TIP3    H227794   3.985   1.714  16.090 -1.7638 -0.2063  2.1169
 2127TIP3   OH227795   2.018   4.593   5.735  0.2692 -0.3664  0.3530
 2127TIP3    H127796   1.925   4.613   5.731  0.3630 -0.0275 -0.2930
 2127TIP3    H227797   2.034   4.570   5.827 -0.6124 -1.2679  0.2992
 2128TIP3   OH227798   6.727   2.821   0.647  0.0498 -0.0462 -0.0781
 2128TIP3    H127799   6.720   2.908   0.687 -2.6837  0.0091 -0.5009
 2128TIP3    H227800   6.731   2.761   0.722 -1.9056  0.2509  0.3075
 2129TIP3   OH227801   6.555   2.525   4.113 -0.0568 -0.6250  0.1176
 2129TIP3    H127802   6.519   2.611   4.136 -1.2497 -0.9518 -0.4598
 2129TIP3    H227803   6.560   2.478   4.197 -0.0164 -0.2238  0.3422
 2130TIP3   OH227804   3.850   5.271  13.476  0.2841  0.0246 -0.7298
 2130TIP3    H127805   3.845   5.175  13.482  1.8529 -0.0274  0.4227
 2130TIP3    H227806   3.932   5.293  13.520  0.7219  1.8007 -2.3312
 2131TIP3   OH227807   4.084   6.234  14.089  0.4381 -0.6043 -0.6406
 2131TIP3    H127808   4.152   6.278  14.140  1.0299  0.4912 -2.3145
 2131TIP3    H227809   4.123   6.150  14.064  0.9396 -0.2531 -1.0462
 2132TIP3   OH227810   4.717   4.210  16.994 -0.6778 -0.0452  0.3336
 2132TIP3    H127811   4.771   4.158  17.054  0.2047  0.8553  0.3671
 2132TIP3    H227812   4.778   4.238  16.926 -1.2256  0.5736  0.0885
 2133TIP3   OH227813   5.257   3.408   3.599  0.4796 -0.3985  0.0191
 2133TIP3    H127814   5.349   3.429   3.610  0.7113 -0.0795 -2.0349
 2133TIP3    H227815   5.211   3.491   3.613  0.4607 -0.5905  1.1969
 2134TIP3   OH227816   3.254   1.500  15.443 -0.1924  0.3548  0.1283
 2134TIP3    H127817   3.294   1.587  15.443 -0.6768  0.5862  0.5861
 2134TIP3    H227818   3.173   1.511  15.393 -1.3540  0.7174  1.9696
 2135TIP3   OH227819   5.397   0.511  16.025 -0.2342 -0.5690 -0.2325
 2135TIP3    H127820   5.359   0.469  15.948 -1.0590  0.2342 -0.2835
 2135TIP3    H227821   5.457   0.446  16.061 -0.3342 -1.1995 -1.1747
 2136TIP3   OH227822   4.696   0.442   5.831 -0.3734 -0.1981  0.3797
 2136TIP3    H127823   4.694   0.412   5.922  0.1783 -1.3754  0.0188
 2136TIP3    H227824   4.705   0.362   5.780 -0.1420  0.4978 -0.6939
 2137TIP3   OH227825   5.599   0.901  16.326  0.6947 -0.1265  0.0679
 2137TIP3    H127826   5.556   0.816  16.325 -0.1153  0.2703 -0.8708
 2137TIP3    H227827   5.532   0.962  16.359  0.8282  0.3521 -0.5245
 2138TIP3   OH227828   2.836   0.027   2.210  0.6459 -0.3666 -0.1755
 2138TIP3    H127829   2.855   0.116   2.180  2.2444  0.3993  2.7383
 2138TIP3    H227830   2.908  -0.026   2.176  1.7636  0.2471  1.1519
 2139TIP3   OH227831   6.630   5.275  12.420  0.0998 -0.2229  0.0501
 2139TIP3    H127832   6.624   5.205  12.356  1.6857 -1.0386  0.7510
 2139TIP3    H227833   6.562   5.254  12.484  0.3936 -0.9861  0.1197
 2140TIP3   OH227834   5.514   4.161  11.468  0.0551 -0.3667  0.3121
 2140TIP3    H127835   5.527   4.130  11.379 -0.9930 -1.9497  0.6711
 2140TIP3    H227836   5.545   4.089  11.524 -0.1028  0.2454  1.2157
 2141TIP3   OH227837   5.491   1.292   3.885 -0.4522 -0.0478  0.0273
 2141TIP3    H127838   5.544   1.345   3.826 -0.0224 -1.3016 -0.7541
 2141TIP3    H227839   5.538   1.295   3.968  0.6724 -0.8393 -0.5561
 2142TIP3   OH227840   2.955   4.434  15.378  0.0628  0.0455  0.1153
 2142TIP3    H127841   2.990   4.400  15.460  0.8289  2.9665  1.1197
 2142TIP3    H227842   2.867   4.397  15.372  0.1629 -0.6074  2.0091
 2143TIP3   OH227843   0.573   6.166   1.158 -0.7246 -0.6919 -0.0199
 2143TIP3    H127844   0.623   6.208   1.088 -1.0386 -0.6609 -0.2283
 2143TIP3    H227845   0.508   6.232   1.184  0.1123 -0.2722  1.0865
 2144TIP3   OH227846   1.429   3.790  17.295  0.1555  0.1982  0.4822
 2144TIP3    H127847   1.410   3.879  17.325 -0.0717 -0.1138  1.2974
 2144TIP3    H227848   1.345   3.756  17.266  0.1121  0.0227  0.8059
 2145TIP3   OH227849   0.700   2.262  11.388  0.2843 -0.3603 -0.1442
 2145TIP3    H127850   0.662   2.187  11.342 -0.7884 -0.3237  0.6524
 2145TIP3    H227851   0.630   2.328  11.388  1.0854  0.5036 -0.5081
 2146TIP3   OH227852   4.462   5.599  15.172 -0.0810 -0.3043  0.4130
 2146TIP3    H127853   4.384   5.554  15.142 -0.7117 -0.5887  2.3306
 2146TIP3    H227854   4.431   5.682  15.207  0.6544  0.1860 -0.0710
 2147TIP3   OH227855   2.339   2.855  11.696  0.4522  0.0210 -0.0651
 2147TIP3    H127856   2.422   2.898  11.718 -0.3350  2.0501 -0.8096
 2147TIP3    H227857   2.364   2.779  11.644  1.8787  0.1992  0.3231
 2148TIP3   OH227858   2.598   5.449  17.183 -0.0504 -0.2736  0.5074
 2148TIP3    H127859   2.602   5.438  17.277 -0.0621 -1.9386  0.3415
 2148TIP3    H227860   2.536   5.382  17.153 -2.3171  2.0347 -0.4278
 2149TIP3   OH227861   2.642   5.344   2.395 -0.0947 -0.5454  0.0377
 2149TIP3    H127862   2.727   5.384   2.377 -1.0715  0.3032 -3.2319
 2149TIP3    H227863   2.578   5.403   2.355 -2.1363 -1.9568  1.0473
 2150TIP3   OH227864   1.637   5.010   3.340  0.1022  0.4251  0.6767
 2150TIP3    H127865   1.572   5.039   3.275  1.7862  4.0399  0.3858
 2150TIP3    H227866   1.665   4.924   3.308 -0.6828  1.1183 -2.2342
 2151TIP3   OH227867   2.320   3.765   4.997  0.2682  0.3597  0.3515
 2151TIP3    H127868   2.312   3.767   4.902 -0.4324 -0.1095  0.3926
 2151TIP3    H227869   2.409   3.733   5.013  0.0036 -0.6598 -0.1481
 2152TIP3   OH227870   0.188   2.059   0.236 -0.2448 -0.4140  0.2867
 2152TIP3    H127871   0.199   2.140   0.185  2.1373 -0.5437  0.4789
 2152TIP3    H227872   0.110   2.018   0.199 -1.1260  1.6146 -0.2794
 2153TIP3   OH227873   2.959   6.773  14.213  0.2300 -0.4414 -0.9613
 2153TIP3    H127874   2.891   6.745  14.273  1.1908 -0.6125  0.0794
 2153TIP3    H227875   2.997   6.851  14.253 -1.1913  1.3756 -2.9161
 2154TIP3   OH227876   3.898   0.366  12.950 -0.1622 -0.2766 -0.6848
 2154TIP3    H127877   3.971   0.337  13.005 -0.5427  0.6960  0.3836
 2154TIP3    H227878   3.893   0.460  12.965 -1.1201 -0.2042 -1.3855
 2155TIP3   OH227879   1.468   4.974  10.705 -0.1615 -0.5465  0.1266
 2155TIP3    H127880   1.457   4.879  10.700 -0.1404 -0.4853 -2.9855
 2155TIP3    H227881   1.403   5.008  10.644  1.4111  1.2741 -0.6153
 2156TIP3   OH227882   1.748   5.746  16.478  0.5929 -0.0217  0.2113
 2156TIP3    H127883   1.693   5.824  16.479  0.8761  0.1833  0.1335
 2156TIP3    H227884   1.783   5.742  16.389  0.9332  0.0152  0.3415
 2157TIP3   OH227885   3.440   5.304  15.208  0.8326  0.2188  0.0130
 2157TIP3    H127886   3.450   5.394  15.240 -1.7478  0.6028 -0.0439
 2157TIP3    H227887   3.362   5.271  15.252  0.5629 -1.2980 -1.4855
 2158TIP3   OH227888   1.475   5.788  10.976  0.3646 -0.2280  0.0998
 2158TIP3    H127889   1.444   5.785  10.885  1.2409 -0.4735 -0.1986
 2158TIP3    H227890   1.433   5.866  11.013  0.4380  0.1933 -0.6835
 2159TIP3   OH227891   3.961   1.502   0.907 -0.2435  0.0656  0.4321
 2159TIP3    H127892   4.011   1.469   0.982  0.2206 -0.3331 -0.0470
 2159TIP3    H227893   3.977   1.438   0.838  2.4343  2.2926 -1.2241
 2160TIP3   OH227894   1.527   0.446  12.790  0.1916  0.0878 -0.2215
 2160TIP3    H127895   1.449   0.433  12.736  0.0309 -1.8779  0.4137
 2160TIP3    H227896   1.494   0.443  12.880  0.9417 -0.4122  0.0430
 2161TIP3   OH227897   4.648   0.619  12.212 -0.0692 -0.4994  0.2978
 2161TIP3    H127898   4.696   0.670  12.147 -0.0332 -0.9432 -0.0297
 2161TIP3    H227899   4.640   0.532  12.173  0.7088 -1.0203  1.2317
 2162TIP3   OH227900   3.616   0.408   4.578  0.4089  0.5694 -0.1274
 2162TIP3    H127901   3.593   0.336   4.520  0.8468  0.7416 -0.5200
 2162TIP3    H227902   3.577   0.384   4.663 -1.1466  0.8085 -0.7278
 2163TIP3   OH227903   2.582   1.157   1.197 -0.3569  0.0206  0.1052
 2163TIP3    H127904   2.505   1.145   1.252  0.2821  0.0252  1.0036
 2163TIP3    H227905   2.648   1.099   1.234  0.6135  1.2625  0.3720
 2164TIP3   OH227906   0.701   1.573  12.966 -0.1539 -0.4791  0.0054
 2164TIP3    H127907   0.757   1.570  13.044  1.5915 -1.7120 -1.2074
 2164TIP3    H227908   0.724   1.656  12.923  0.3485 -0.7210 -0.1997
 2165TIP3   OH227909   0.442   5.377  13.215 -0.7285  0.0294 -0.8541
 2165TIP3    H127910   0.485   5.338  13.140 -0.0082  0.8296 -0.8731
 2165TIP3    H227911   0.375   5.313  13.241 -1.0637 -0.1987 -2.2313
 2166TIP3   OH227912   5.513   2.391  11.825 -0.1281 -0.0403  0.4478
 2166TIP3    H127913   5.487   2.445  11.751  0.0976 -0.6848 -0.1127
 2166TIP3    H227914   5.589   2.436  11.863 -0.8021  0.7689  0.8531
 2167TIP3   OH227915   0.961   0.612  13.464 -0.3469  0.0850 -0.1135
 2167TIP3    H127916   0.970   0.592  13.371 -1.0544 -0.0054 -0.1636
 2167TIP3    H227917   1.051   0.630  13.493  0.1512 -1.8443 -0.3455
 2168TIP3   OH227918   4.523   1.154  11.427  0.0277 -0.2996 -0.2504
 2168TIP3    H127919   4.522   1.246  11.456 -0.1288 -1.0541  2.3803
 2168TIP3    H227920   4.468   1.108  11.490  3.4132 -2.8882  1.1464
 2169TIP3   OH227921   2.644   0.145  11.098 -0.0931 -0.5226 -0.4761
 2169TIP3    H127922   2.690   0.063  11.116  1.8922  0.3589 -1.2214
 2169TIP3    H227923   2.552   0.125  11.112  0.1597 -3.3021 -2.1415
 2170TIP3   OH227924   6.383   4.218   2.517  0.2529  0.1633 -0.3063
 2170TIP3    H127925   6.318   4.219   2.587  0.8306 -0.0652  0.2407
 2170TIP3    H227926   6.467   4.221   2.562  0.6245  0.5785 -1.0119
 2171TIP3   OH227927   3.304   2.488  12.926 -0.4876  0.1367 -0.0410
 2171TIP3    H127928   3.317   2.521  12.837  2.3102 -0.1450  0.1702
 2171TIP3    H227929   3.251   2.555  12.969  0.7107  1.8167 -1.0790
 2172TIP3   OH227930   5.662   3.281  17.041  0.0781  0.0599 -0.2171
 2172TIP3    H127931   5.701   3.280  16.953  1.7672  0.0220  0.5000
 2172TIP3    H227932   5.704   3.208  17.087  0.5770  1.1678  1.1660
 2173TIP3   OH227933   3.962   5.432   3.808 -0.7284  0.3884 -0.0694
 2173TIP3    H127934   4.048   5.411   3.773 -0.3818  0.3207  0.8187
 2173TIP3    H227935   3.953   5.379   3.887 -1.1631  1.1421  0.4110
 2174TIP3   OH227936   5.013   1.627  14.973  0.6006 -0.1803 -0.5012
 2174TIP3    H127937   5.012   1.686  15.049 -1.0859 -0.7850  0.0030
 2174TIP3    H227938   5.004   1.686  14.897  2.8141  0.4682 -0.3181
 2175TIP3   OH227939   0.339   2.034  16.799  0.5162 -0.1448 -0.3556
 2175TIP3    H127940   0.295   2.078  16.872 -2.3448  0.2965 -2.1849
 2175TIP3    H227941   0.397   2.100  16.762 -0.7834  0.8812 -0.6537
 2176TIP3   OH227942   1.781   4.694  13.129  0.5184 -0.2183 -0.5367
 2176TIP3    H127943   1.800   4.751  13.205  1.0120 -0.1060 -0.7367
 2176TIP3    H227944   1.843   4.621  13.139 -0.8244 -1.2914  0.2997
 2177TIP3   OH227945   0.503   1.232   4.759 -0.0656 -0.3057  0.5079
 2177TIP3    H127946   0.537   1.143   4.752  0.9606  0.1118 -0.1171
 2177TIP3    H227947   0.566   1.286   4.710 -0.7063  0.7504  0.8010
 2178TIP3   OH227948   4.330   4.027  15.506  0.1984  0.3917  0.3069
 2178TIP3    H127949   4.279   4.099  15.468  0.2663  0.6564  0.7153
 2178TIP3    H227950   4.421   4.047  15.483  0.2973  0.8381  1.0648
 2179TIP3   OH227951   1.126   1.585   6.427 -0.4581 -0.3499  0.3154
 2179TIP3    H127952   1.160   1.524   6.361  0.9867  0.1502  0.5602
 2179TIP3    H227953   1.120   1.669   6.382 -0.4058 -0.2191  0.5485
 2180TIP3   OH227954   1.815   3.875  12.934  0.1305 -0.1320  0.1157
 2180TIP3    H127955   1.776   3.954  12.897 -0.5288 -0.7206 -0.4880
 2180TIP3    H227956   1.877   3.907  13.000 -1.9701  0.8541  1.7483
 2181TIP3   OH227957   5.323   4.169  14.481  0.1986  0.1473  0.6978
 2181TIP3    H127958   5.298   4.262  14.479  2.6704  0.8838 -0.4119
 2181TIP3    H227959   5.398   4.166  14.540  1.2784 -0.7860 -0.6611
 2182TIP3   OH227960   0.698   3.891   0.148  0.0737  0.7331 -0.4951
 2182TIP3    H127961   0.689   3.809   0.100 -0.7425 -0.1470  1.0894
 2182TIP3    H227962   0.620   3.941   0.125  0.2840  0.8334 -1.0080
 2183TIP3   OH227963   4.435   4.193   5.367 -0.4264  0.5552  0.5126
 2183TIP3    H127964   4.482   4.115   5.396  0.2040  0.6577 -0.1875
 2183TIP3    H227965   4.354   4.159   5.328  0.2360  0.1728 -0.5658
 2184TIP3   OH227966   5.136   1.008   0.789 -0.3038  0.0635  0.4700
 2184TIP3    H127967   5.146   0.969   0.876  1.7042 -0.9017 -0.1324
 2184TIP3    H227968   5.121   0.933   0.731 -1.5917  0.6924 -0.0568
 2185TIP3   OH227969   0.257   6.735  15.451 -0.1818  0.0851 -0.3584
 2185TIP3    H127970   0.218   6.648  15.458 -1.6663  0.7445  0.0303
 2185TIP3    H227971   0.280   6.744  15.359 -1.8109 -0.0241 -0.8109
 2186TIP3   OH227972   2.690   3.276  14.708  0.5902 -0.0480  0.3706
 2186TIP3    H127973   2.661   3.265  14.799 -1.5380  2.6497  0.1651
 2186TIP3    H227974   2.785   3.289  14.714  0.4677  0.2723  2.2489
 2187TIP3   OH227975   1.586   0.790  11.405 -0.3390 -0.0076  0.1462
 2187TIP3    H127976   1.662   0.778  11.462 -1.1728  0.4867  1.4119
 2187TIP3    H227977   1.571   0.704  11.366  0.4820 -0.2714  0.3977
 2188TIP3   OH227978   4.842   5.306   3.387 -0.2179 -0.2468 -0.4035
 2188TIP3    H127979   4.782   5.234   3.407  1.7815 -1.6938  0.7086
 2188TIP3    H227980   4.928   5.264   3.380  0.8172  1.8660 -1.1148
 2189TIP3   OH227981   2.458   3.252   2.366 -0.1925  0.6255  0.6534
 2189TIP3    H127982   2.474   3.322   2.304  0.4942  1.6287  1.9076
 2189TIP3    H227983   2.374   3.273   2.406 -1.0912 -0.5219 -0.5452
 2190TIP3   OH227984   0.423   6.246  15.975 -0.2120  0.1326 -0.1468
 2190TIP3    H127985   0.367   6.223  16.049 -1.2961 -1.2450 -1.3256
 2190TIP3    H227986   0.443   6.339  15.988 -1.2404  0.1960  1.2959
 2191TIP3   OH227987   6.547   5.714   2.679  0.2738  0.2873 -0.0666
 2191TIP3    H127988   6.582   5.762   2.603 -0.8233  1.4214  0.1025
 2191TIP3    H227989   6.466   5.761   2.701  0.3031 -0.3395  1.4859
 2192TIP3   OH227990   3.879   3.767   3.836  0.0821  0.0605 -0.1899
 2192TIP3    H127991   3.954   3.729   3.882 -0.2448 -0.0382  0.2591
 2192TIP3    H227992   3.849   3.698   3.777  1.2233  0.5709 -1.4274
 2193TIP3   OH227993   5.633   0.993  11.879 -0.1234 -0.6614 -0.4448
 2193TIP3    H127994   5.604   1.077  11.914  0.5465 -0.2276 -0.9149
 2193TIP3    H227995   5.704   0.967  11.937  1.5455  0.4504 -1.8851
 2194TIP3   OH227996   1.028   3.228   2.514 -0.6119  0.7066  0.2001
 2194TIP3    H127997   1.081   3.227   2.434  2.8837  0.0747  2.3129
 2194TIP3    H227998   1.030   3.319   2.543  0.7928  0.4286  1.0851
 2195TIP3   OH227999   6.732   6.607  13.833  0.3678 -0.9256  0.1920
 2195TIP3    H128000   6.822   6.633  13.815  0.3583 -0.0707  1.2857
 2195TIP3    H228001   6.706   6.556  13.757  0.8505  1.1155 -1.4207
 2196TIP3   OH228002   2.580   1.305  11.413 -0.6110 -0.0510  0.5069
 2196TIP3    H128003   2.636   1.293  11.337 -0.6619 -0.5182  0.5371
 2196TIP3    H228004   2.491   1.293  11.379 -0.8452  2.4949  0.0916
 2197TIP3   OH228005   6.279   2.783   3.573 -0.1207 -0.1345  0.3158
 2197TIP3    H128006   6.355   2.842   3.570  0.4071 -0.6799  1.9503
 2197TIP3    H228007   6.217   2.821   3.511  1.5138  0.2671 -1.1541
 2198TIP3   OH228008   2.944   5.600  13.982 -0.7646 -0.4654  0.0569
 2198TIP3    H128009   2.892   5.588  14.062 -2.9060  1.2638 -1.0029
 2198TIP3    H228010   2.941   5.694  13.965  1.7252 -0.4605 -0.7755
 2199TIP3   OH228011   5.102   5.542   1.625 -0.8128 -0.1697 -0.4041
 2199TIP3    H128012   5.154   5.616   1.592  0.3346 -1.2677 -1.1742
 2199TIP3    H228013   5.100   5.555   1.720 -0.2665  0.6208 -0.4852
 2200TIP3   OH228014   3.146   3.348   0.445  0.1447  0.0264 -0.4827
 2200TIP3    H128015   3.117   3.418   0.504  1.5150  1.7569 -1.7710
 2200TIP3    H228016   3.182   3.281   0.504 -0.3639  0.7807  0.7322
 2201TIP3   OH228017   4.830   1.649   5.974 -0.1833 -0.0284 -0.0129
 2201TIP3    H128018   4.783   1.719   5.929 -3.0478 -2.3795 -0.9653
 2201TIP3    H228019   4.903   1.628   5.915 -0.5246  0.7498 -0.7343
 2202TIP3   OH228020   6.573   0.934   5.374  0.3030  0.3095  0.1520
 2202TIP3    H128021   6.483   0.901   5.369  0.3245  0.3877 -1.0435
 2202TIP3    H228022   6.581   0.969   5.462 -1.6219  2.4482 -0.4475
 2203TIP3   OH228023   5.685   2.456   2.301  0.1308  0.3076 -0.2549
 2203TIP3    H128024   5.773   2.439   2.333  0.3853  0.6837 -0.7478
 2203TIP3    H228025   5.631   2.461   2.381  0.7135  0.9887  0.1057
 2204TIP3   OH228026   5.731   4.961  14.115  0.0765 -0.5140  0.1706
 2204TIP3    H128027   5.719   5.054  14.099  2.1558 -0.4365 -1.3152
 2204TIP3    H228028   5.681   4.918  14.046  1.0549 -0.4195 -0.6105
 2205TIP3   OH228029   2.511   1.263  13.573  0.5727 -0.3843 -0.5794
 2205TIP3    H128030   2.519   1.269  13.478  1.5845  0.8009 -0.4576
 2205TIP3    H228031   2.601   1.259  13.604  0.2431 -1.1732  0.3275
 2206TIP3   OH228032   3.391   5.588   5.630 -0.7310  0.7954  0.3357
 2206TIP3    H128033   3.446   5.642   5.687  1.8104  1.1730 -2.2428
 2206TIP3    H228034   3.317   5.563   5.685  0.7121  2.4195  3.2620
 2207TIP3   OH228035   5.070   6.344  11.131  0.1928  0.1016 -0.4336
 2207TIP3    H128036   5.001   6.297  11.178 -0.9498  2.3096  0.2545
 2207TIP3    H228037   5.028   6.425  11.101  2.1369  0.9071 -1.1742
 2208TIP3   OH228038   1.409   0.012  13.982 -0.1302  0.0239  0.4801
 2208TIP3    H128039   1.432   0.067  13.907  1.3156 -0.1933  0.7445
 2208TIP3    H228040   1.421   0.069  14.058  0.4447 -0.3562  0.6837
 2209TIP3   OH228041   0.292   2.003   5.968 -0.8833  0.2070 -0.8659
 2209TIP3    H128042   0.280   2.012   6.062 -0.0093  1.0427 -0.8180
 2209TIP3    H228043   0.235   1.930   5.943 -0.6382 -0.4417  0.4036
 2210TIP3   OH228044   3.784   4.425   1.420 -0.1659  0.4240  0.5295
 2210TIP3    H128045   3.861   4.432   1.364  1.7646  1.2621  3.1022
 2210TIP3    H228046   3.716   4.390   1.363  1.7555  0.7930 -2.1725
 2211TIP3   OH228047   5.242   1.101  11.298  0.3826  0.7154 -0.4063
 2211TIP3    H128048   5.155   1.093  11.336  0.1565  2.7321 -0.3827
 2211TIP3    H228049   5.228   1.096  11.204  0.7894 -2.9583 -0.4169
 2212TIP3   OH228050   4.385   5.014   4.635 -0.0928 -0.1276 -0.0442
 2212TIP3    H128051   4.290   5.015   4.650 -0.2547  3.2961 -0.5035
 2212TIP3    H228052   4.394   5.000   4.541 -0.2205  0.4032 -0.1409
 2213TIP3   OH228053   4.547   1.221   1.399  0.1003  0.2877 -0.2828
 2213TIP3    H128054   4.530   1.256   1.487 -0.4541 -0.9680  0.1246
 2213TIP3    H228055   4.494   1.142   1.394 -0.2816  0.6256 -1.9551
 2214TIP3   OH228056   5.191   1.931  17.071 -0.1852 -0.1272  0.7920
 2214TIP3    H128057   5.142   1.850  17.061 -0.2621 -0.2020  1.7001
 2214TIP3    H228058   5.264   1.923  17.010 -1.7803  0.3910 -1.3279
 2215TIP3   OH228059   3.407   3.838  12.891  0.4292 -0.0829  0.4355
 2215TIP3    H128060   3.409   3.756  12.940 -0.0923  0.0209  0.6355
 2215TIP3    H228061   3.449   3.902  12.948  0.3101 -0.0824  0.5224
 2216TIP3   OH228062   0.534   6.129   1.708 -0.1844  0.2068  0.2960
 2216TIP3    H128063   0.479   6.197   1.668  0.1954  0.4494  0.1772
 2216TIP3    H228064   0.473   6.073   1.754 -0.4772  0.8232  0.6796
 2217TIP3   OH228065   0.566   1.053   2.433  0.5241  0.3402 -0.2815
 2217TIP3    H128066   0.480   1.071   2.471 -0.9614 -2.7705 -1.7575
 2217TIP3    H228067   0.626   1.056   2.508 -0.9809  1.7121  0.9499
 2218TIP3   OH228068   6.079   5.185   0.763  0.6446  0.0989 -0.3064
 2218TIP3    H128069   6.135   5.209   0.837  0.0130  1.1461 -0.1483
 2218TIP3    H228070   6.138   5.181   0.688  1.1489 -0.1402  0.0948
 2219TIP3   OH228071   3.244   4.522  14.287  0.6376  0.2681 -0.2318
 2219TIP3    H128072   3.228   4.612  14.314  1.5785  0.6309 -0.8358
 2219TIP3    H228073   3.182   4.470  14.339 -1.1481  1.3979 -1.1332
 2220TIP3   OH228074   0.701   6.375   0.992 -0.0090 -0.4477  0.0610
 2220TIP3    H128075   0.697   6.403   1.084 -0.4764 -0.0227 -0.0881
 2220TIP3    H228076   0.794   6.380   0.971 -0.1391  1.7928 -0.1886
 2221TIP3   OH228077   0.170   1.367  14.694 -0.2027  0.0852  0.1525
 2221TIP3    H128078   0.194   1.458  14.679  0.7202  0.1752  1.8125
 2221TIP3    H228079   0.093   1.371  14.750 -1.1129 -0.1817 -1.0599
 2222TIP3   OH228080   3.876   3.913   6.001  0.1873 -0.9619 -0.0538
 2222TIP3    H128081   3.866   3.986   6.063 -0.0550  0.3639 -1.5829
 2222TIP3    H228082   3.798   3.859   6.015  0.1103 -0.6622  0.7526
 2223TIP3   OH228083   5.290   6.088   6.245 -0.2281 -0.4684  0.6979
 2223TIP3    H128084   5.240   6.028   6.300  0.1194  0.1587  1.7362
 2223TIP3    H228085   5.226   6.154   6.217  0.0003  0.4879  2.2489
 2224TIP3   OH228086   6.273   4.099   3.459  0.0805 -0.0806 -0.0163
 2224TIP3    H128087   6.238   4.055   3.537  1.0117 -1.0652 -0.1178
 2224TIP3    H228088   6.272   4.192   3.481  0.1961 -0.3308  1.1313
 2225TIP3   OH228089   3.463   5.841   0.419  0.2742  0.3831 -0.1384
 2225TIP3    H128090   3.485   5.934   0.423  1.2242  0.1905 -0.4996
 2225TIP3    H228091   3.402   5.833   0.346 -0.0828  0.7703  0.1165
 2226TIP3   OH228092   0.879   2.754  12.956  0.2844 -0.4295 -0.0104
 2226TIP3    H128093   0.879   2.832  12.901  2.3231 -0.9881 -0.9254
 2226TIP3    H228094   0.926   2.688  12.904 -1.6726 -2.4282  0.5564
 2227TIP3   OH228095   0.051   3.063   4.655  0.1030  0.2998 -0.3112
 2227TIP3    H128096   0.051   3.119   4.732 -4.3684 -1.0972  1.0194
 2227TIP3    H228097   0.007   3.115   4.588 -0.4670 -0.1916 -0.3266
 2228TIP3   OH228098   4.891   0.473  12.948 -0.0973  0.5051  0.2183
 2228TIP3    H128099   4.878   0.395  13.001  1.4543 -0.2492 -0.4644
 2228TIP3    H228100   4.877   0.444  12.858 -0.0906  1.1652 -0.0042
 2229TIP3   OH228101   3.215   0.040   0.025 -0.2188  0.2346 -0.2414
 2229TIP3    H128102   3.199   0.003   0.112  0.8334  1.1884  0.3886
 2229TIP3    H228103   3.152  -0.004  -0.032 -1.6562  0.3467  1.1886
 2230TIP3   OH228104   6.685   6.076  12.924 -0.0380  0.0604  0.1215
 2230TIP3    H128105   6.649   6.011  12.985 -1.0866 -0.5463 -1.0948
 2230TIP3    H228106   6.615   6.142  12.916 -0.8331 -0.9533 -2.0032
 2231TIP3   OH228107   0.927   4.442  12.574 -0.1399 -0.5128  0.2690
 2231TIP3    H128108   1.016   4.405  12.566  0.5867  0.9705  1.0738
 2231TIP3    H228109   0.918   4.499  12.498 -0.5084 -0.8388  0.0653
 2232TIP3   OH228110   1.953   1.579  13.266 -0.4040  0.0795  0.2622
 2232TIP3    H128111   1.935   1.486  13.276 -0.4434  0.3713  4.7626
 2232TIP3    H228112   1.870   1.623  13.285 -0.0240  1.0641 -0.2602
 2233TIP3   OH228113   1.578   3.914   1.642  0.0103 -0.2278  0.1503
 2233TIP3    H128114   1.659   3.936   1.688 -0.7107  1.1162  0.8306
 2233TIP3    H228115   1.607   3.866   1.565  1.3267 -1.4746  1.3630
 2234TIP3   OH228116   1.192   1.546  13.534  0.0902  0.4804 -0.7580
 2234TIP3    H128117   1.231   1.632  13.519  0.7918  0.4707  0.8486
 2234TIP3    H228118   1.123   1.561  13.599  1.2614 -0.3576  0.7612
 2235TIP3   OH228119   3.989   0.573  13.542  0.5435 -0.0989  0.4120
 2235TIP3    H128120   4.000   0.594  13.635 -0.9753  1.4304  0.3066
 2235TIP3    H228121   3.901   0.535  13.536 -0.1599  1.5738 -0.6053
 2236TIP3   OH228122   5.468   0.024   4.243  0.3577 -0.2758  0.1848
 2236TIP3    H128123   5.467   0.120   4.250  0.3813 -0.3833  2.0927
 2236TIP3    H228124   5.441  -0.006   4.329 -0.6249 -2.0073 -0.6874
 2237TIP3   OH228125   3.166   2.506  14.736  0.5083 -0.4363  0.7467
 2237TIP3    H128126   3.078   2.484  14.769 -0.7005  2.0546 -0.5642
 2237TIP3    H228127   3.194   2.427  14.690 -0.4189 -1.7651  2.3345
 2238TIP3   OH228128   2.175   1.553   3.489 -0.0050 -0.4817 -0.8855
 2238TIP3    H128129   2.147   1.631   3.441  0.3583 -0.5549 -1.2227
 2238TIP3    H228130   2.142   1.567   3.577  0.0868  0.0725 -0.9326
 2239TIP3   OH228131   2.998   1.425  13.065 -0.1459  0.5526  0.6558
 2239TIP3    H128132   2.989   1.334  13.039 -2.3658  0.7840  0.4231
 2239TIP3    H228133   3.057   1.423  13.141  2.9044 -0.5911 -1.5657
 2240TIP3   OH228134   5.798   5.715   5.101  0.3930  0.1355 -0.6341
 2240TIP3    H128135   5.886   5.694   5.133 -0.1205  0.1076  0.8272
 2240TIP3    H228136   5.762   5.630   5.076  0.5073  0.0560 -0.5291
 2241TIP3   OH228137   5.503   1.685   2.986 -0.3152 -0.4596 -0.3513
 2241TIP3    H128138   5.464   1.721   2.907 -0.4068  0.6945  0.1980
 2241TIP3    H228139   5.429   1.661   3.041 -0.2748  0.5657  0.1745
 2242TIP3   OH228140   4.851   3.134   0.821  0.3341 -0.1668 -0.4509
 2242TIP3    H128141   4.914   3.091   0.878  0.0728 -0.1086 -0.1191
 2242TIP3    H228142   4.769   3.132   0.869 -0.0378 -0.6929 -1.0869
 2243TIP3   OH228143   0.336   6.527  15.945  0.2031 -0.1925 -0.1844
 2243TIP3    H128144   0.332   6.568  16.032  0.4933 -0.0876 -0.2201
 2243TIP3    H228145   0.391   6.586  15.894 -2.2775  1.3070 -1.2996
 2244TIP3   OH228146   0.470   2.960   2.930  0.2014  0.2711  0.0656
 2244TIP3    H128147   0.445   2.994   2.843  1.2070  0.2943 -0.2239
 2244TIP3    H228148   0.406   2.891   2.947 -2.6654  2.9842  1.1930
 2245TIP3   OH228149   2.672   0.913   4.532  0.4834 -0.4823 -0.3033
 2245TIP3    H128150   2.647   0.957   4.450  1.8509 -1.1693 -1.1336
 2245TIP3    H228151   2.670   0.982   4.598 -0.2057  0.1854 -1.0021
 2246TIP3   OH228152   6.129   2.358   3.636 -0.0256 -0.1050 -0.4805
 2246TIP3    H128153   6.103   2.316   3.554  0.1419 -0.0680 -0.5537
 2246TIP3    H228154   6.163   2.287   3.690  0.2320 -0.0709 -0.5939
 2247TIP3   OH228155   6.401   2.935  12.924 -0.0711  0.3251 -0.5570
 2247TIP3    H128156   6.326   2.988  12.898  0.4303  0.5354 -1.6491
 2247TIP3    H228157   6.411   2.952  13.018  0.9786  3.3971 -1.0962
 2248TIP3   OH228158   5.530   0.587  17.018 -0.2087 -0.3607  0.3967
 2248TIP3    H128159   5.489   0.655  17.072  0.5056 -0.4403  1.0615
 2248TIP3    H228160   5.541   0.513  17.077 -0.9615 -1.0652 -0.3199
 2249TIP3   OH228161   2.020   0.207  14.084  0.3932  0.9865  0.0055
 2249TIP3    H128162   1.940   0.227  14.133 -0.1483  1.1001 -0.8936
 2249TIP3    H228163   2.091   0.243  14.137 -0.1309  0.6862  0.9312
 2250TIP3   OH228164   3.083   0.152  12.001 -0.3035  0.4059 -0.1995
 2250TIP3    H128165   3.149   0.089  11.973  0.3520  1.1575 -0.3670
 2250TIP3    H228166   3.110   0.177  12.090 -0.8845  0.0286  0.0906
 2251TIP3   OH228167   2.434   3.967   2.169 -0.2415 -0.1018 -0.4046
 2251TIP3    H128168   2.382   4.038   2.131  0.0598 -0.5343 -1.6893
 2251TIP3    H228169   2.370   3.906   2.206 -0.5782  0.0718 -0.6974
 2252TIP3   OH228170   1.085   6.257  16.967  0.1199 -0.8879  0.3277
 2252TIP3    H128171   1.098   6.164  16.983 -1.0052 -0.9297  1.0726
 2252TIP3    H228172   1.048   6.291  17.048  1.3790  0.4099  0.3925
 2253TIP3   OH228173   3.541   4.700  13.647 -0.8515 -0.5413 -0.3733
 2253TIP3    H128174   3.459   4.673  13.605 -0.4865 -0.1196 -1.3922
 2253TIP3    H228175   3.513   4.740  13.730 -1.5814 -1.4861 -0.1408
 2254TIP3   OH228176   2.588   5.841  15.249 -0.1427  0.1261  0.2168
 2254TIP3    H128177   2.653   5.776  15.275  0.9345  0.7992 -0.7503
 2254TIP3    H228178   2.528   5.793  15.192  0.4275 -0.1129 -0.1868
 2255TIP3   OH228179   3.835   3.005   0.296  0.3961  0.2646 -0.7908
 2255TIP3    H128180   3.774   3.066   0.255  1.8081  1.8141 -0.7218
 2255TIP3    H228181   3.871   3.054   0.370  2.4498 -0.1960 -1.4214
 2256TIP3   OH228182   6.778   5.620   2.828 -0.2436 -0.4061  0.6965
 2256TIP3    H128183   6.688   5.652   2.828 -0.3539 -0.3846 -2.6807
 2256TIP3    H228184   6.826   5.684   2.777  1.3170 -1.3167  0.9631
 2257TIP3   OH228185   2.842   1.402  15.419 -0.1721  0.1928  0.7202
 2257TIP3    H128186   2.799   1.355  15.347 -1.2296  0.9830  0.8152
 2257TIP3    H228187   2.789   1.383  15.496 -0.8781  1.8409  0.6838
 2258TIP3   OH228188   1.331   3.003  11.490  0.6887  0.2902 -0.2575
 2258TIP3    H128189   1.308   2.917  11.524 -0.4832  1.1584  1.2875
 2258TIP3    H228190   1.399   3.035  11.550  0.7786  0.6254 -0.5371
 2259TIP3   OH228191   0.340   5.184  13.843  0.2169 -0.3943  0.3420
 2259TIP3    H128192   0.357   5.142  13.928  0.7245 -0.4119  0.2323
 2259TIP3    H228193   0.307   5.113  13.788  1.6692 -0.8107 -0.0297
 2260TIP3   OH228194   6.296   1.901  15.578  0.3113 -0.2991 -0.0507
 2260TIP3    H128195   6.225   1.960  15.552 -0.6311 -0.6692  1.5234
 2260TIP3    H228196   6.344   1.949  15.645  0.6844 -0.5889 -0.1065
 2261TIP3   OH228197   5.236   5.808  15.457 -0.0091  0.2566 -0.2029
 2261TIP3    H128198   5.141   5.816  15.451  0.0314  1.0317  0.1768
 2261TIP3    H228199   5.258   5.837  15.545  0.2071 -3.6343  1.2076
 2262TIP3   OH228200   4.295   4.148   3.073  0.0868 -0.0197 -0.1859
 2262TIP3    H128201   4.220   4.135   3.131 -1.1411 -1.9956 -2.0682
 2262TIP3    H228202   4.256   4.163   2.987  1.8634  1.8376 -0.7370
 2263TIP3   OH228203   4.273   1.115  15.365  0.0918  0.2477 -0.0712
 2263TIP3    H128204   4.180   1.091  15.370  0.3967 -1.5332 -1.8316
 2263TIP3    H228205   4.273   1.210  15.374 -1.9142  0.3006 -0.0959
 2264TIP3   OH228206   4.849   6.134  12.578 -0.2847  0.0274 -0.2341
 2264TIP3    H128207   4.911   6.187  12.629  0.2277  1.0411 -1.8254
 2264TIP3    H228208   4.772   6.191  12.569  0.1462  0.4198 -1.6868
 2265TIP3   OH228209   5.008   4.335  13.272  0.4021  0.7190 -0.1595
 2265TIP3    H128210   5.001   4.251  13.317  2.0052 -0.6562 -2.2435
 2265TIP3    H228211   5.055   4.391  13.334  0.2306 -0.2499  0.8819
 2266TIP3   OH228212   5.796   5.875  11.725  0.2691 -0.6693 -0.4216
 2266TIP3    H128213   5.717   5.829  11.752  1.1715 -0.5105  2.9671
 2266TIP3    H228214   5.846   5.886  11.806  2.1685  2.3144 -1.8270
 2267TIP3   OH228215   5.162   4.892   5.525 -0.7674  0.2757  0.1718
 2267TIP3    H128216   5.111   4.865   5.602  0.4490 -1.3832  0.4412
 2267TIP3    H228217   5.211   4.969   5.555 -0.5764 -0.1433  0.9608
 2268TIP3   OH228218   6.143   1.396   2.897 -0.2628  0.5188 -0.9286
 2268TIP3    H128219   6.202   1.334   2.939  1.0752  2.5426  0.3378
 2268TIP3    H228220   6.067   1.400   2.955 -0.4597 -0.0642 -1.1366
 2269TIP3   OH228221   6.488   5.106  15.171 -0.0255  0.1365  0.4140
 2269TIP3    H128222   6.442   5.066  15.244 -0.3852  0.4333  0.3512
 2269TIP3    H228223   6.432   5.089  15.095 -0.2260  0.8180  0.3987
 2270TIP3   OH228224   3.068   0.497  15.515 -0.4694  0.0007 -0.2169
 2270TIP3    H128225   3.003   0.565  15.497 -0.3844  0.1413  0.0142
 2270TIP3    H228226   3.088   0.507  15.608  0.4357  0.4405 -0.4510
 2271TIP3   OH228227   4.229   6.742   2.656  0.1165 -0.4575 -0.5407
 2271TIP3    H128228   4.176   6.797   2.713  0.5424  1.2789 -1.7536
 2271TIP3    H228229   4.190   6.751   2.569  1.0394 -0.9514 -1.0346
 2272TIP3   OH228230   0.792   1.193  14.393  0.1582  0.0049  0.4706
 2272TIP3    H128231   0.857   1.196  14.463  1.3645 -0.6394 -0.5877
 2272TIP3    H228232   0.828   1.132  14.328 -2.4159 -1.9700  0.7240
 2273TIP3   OH228233   3.840   1.097  12.474  0.4083 -0.4624 -0.7731
 2273TIP3    H128234   3.913   1.038  12.457  0.6288 -0.1059 -1.0924
 2273TIP3    H228235   3.854   1.128  12.563  0.5029 -0.5950 -0.7419
 2274TIP3   OH228236   1.060   5.577   3.443  0.2811  0.3085 -0.3981
 2274TIP3    H128237   0.967   5.570   3.418  0.9113 -3.5760 -2.3426
 2274TIP3    H228238   1.070   5.518   3.518  1.1891  0.7908 -0.1237
 2275TIP3   OH228239   1.196   0.834  13.734 -1.0310  0.7045 -0.5012
 2275TIP3    H128240   1.203   0.740  13.752  0.4871  0.6498 -1.1869
 2275TIP3    H228241   1.146   0.840  13.653  0.7428  0.2947 -1.7018
 2276TIP3   OH228242   1.219   6.623   1.542  0.3848  0.0509 -0.0177
 2276TIP3    H128243   1.247   6.538   1.509 -0.7605  0.6284 -2.7507
 2276TIP3    H228244   1.123   6.617   1.546  0.3082  1.0897  0.1062
 2277TIP3   OH228245   0.437   0.019   5.811 -0.1213  0.3228 -1.2074
 2277TIP3    H128246   0.512   0.047   5.759 -0.3082  0.5277 -1.3712
 2277TIP3    H228247   0.456  -0.071   5.835  1.4341  1.1306  0.9964
 2278TIP3   OH228248   0.980   3.330   0.768  0.3907 -0.7404  0.4236
 2278TIP3    H128249   0.978   3.379   0.850 -0.3620  3.6575 -1.8802
 2278TIP3    H228250   0.889   3.326   0.740  0.7467 -0.9637 -0.7824
 2279TIP3   OH228251   4.504   2.888   1.514 -0.1102  0.0588 -0.3946
 2279TIP3    H128252   4.592   2.888   1.477  0.1560  0.8654  0.2161
 2279TIP3    H228253   4.513   2.934   1.597 -0.9901 -0.4125 -0.0245
 2280TIP3   OH228254   5.103   5.246  17.244 -0.3186  0.2325  0.1946
 2280TIP3    H128255   5.019   5.211  17.275 -0.4176  0.3263  0.0327
 2280TIP3    H228256   5.123   5.316  17.305  0.3301 -0.6887  1.0770
 2281TIP3   OH228257   6.542   5.207  17.244 -0.3846 -0.1122 -0.6752
 2281TIP3    H128258   6.488   5.286  17.252 -0.2529 -0.0021 -0.8740
 2281TIP3    H228259   6.626   5.231  17.283 -0.5277 -0.3344 -0.2187
 2282TIP3   OH228260   4.410   5.231  13.291  0.5408  0.5115  0.7681
 2282TIP3    H128261   4.434   5.181  13.213  2.2125 -0.8949  2.0983
 2282TIP3    H228262   4.478   5.298  13.298 -0.1252  1.2200  0.5296
 2283TIP3   OH228263   5.379   4.029  14.884  0.4850  0.6135  0.5255
 2283TIP3    H128264   5.284   4.017  14.891  0.4924  0.4937  0.4079
 2283TIP3    H228265   5.413   3.999  14.968  0.3260  1.5639  0.9422
 2284TIP3   OH228266   1.555   1.980   2.762 -0.8642  0.3005  0.3443
 2284TIP3    H128267   1.517   1.893   2.755  0.5630 -0.2964 -0.2930
 2284TIP3    H228268   1.608   1.990   2.683  0.3642  1.0485  1.2273
 2285TIP3   OH228269   4.185   3.338   4.361  0.7285  0.2236  0.6512
 2285TIP3    H128270   4.204   3.424   4.324  0.1370 -0.8254 -2.3388
 2285TIP3    H228271   4.118   3.355   4.427  0.1664  2.0190 -0.3150
 2286TIP3   OH228272   3.709   5.563  12.690  0.3209  0.2232 -0.6525
 2286TIP3    H128273   3.740   5.516  12.767  1.2087  0.0574 -1.0925
 2286TIP3    H228274   3.623   5.525  12.671 -0.3524  0.9320  0.8020
 2287TIP3   OH228275   1.704   2.638  17.056  0.1786 -0.3475  0.2646
 2287TIP3    H128276   1.654   2.697  17.112  1.1082  1.4171 -0.7067
 2287TIP3    H228277   1.749   2.580  17.117  0.6862  1.1306  1.3450
 2288TIP3   OH228278   5.512   4.799  17.301 -0.0548  0.2971 -0.0437
 2288TIP3    H128279   5.531   4.892  17.314 -1.9109  0.7284 -0.0555
 2288TIP3    H228280   5.595   4.754  17.316  0.6282  1.8641  1.0414
 2289TIP3   OH228281   1.504   1.822  16.277 -0.9650 -0.3555 -0.1860
 2289TIP3    H128282   1.468   1.806  16.365 -4.1109 -0.9033 -1.4461
 2289TIP3    H228283   1.434   1.794  16.217 -0.2552  2.9653 -2.8429
 2290TIP3   OH228284   1.086   2.912   6.191 -0.0017  0.2282  0.1963
 2290TIP3    H128285   1.054   3.000   6.213  2.3967  0.9607  1.0700
 2290TIP3    H228286   1.072   2.861   6.271  0.5831  0.4235  0.4256
 2291TIP3   OH228287   3.866   4.619   4.065  0.2100 -0.0404 -0.2619
 2291TIP3    H128288   3.852   4.607   3.971 -0.9747  0.0029 -0.0977
 2291TIP3    H228289   3.870   4.530   4.100 -0.3407 -0.0463 -0.2132
 2292TIP3   OH228290   3.489   2.133  16.825  0.0589  0.0574  0.4038
 2292TIP3    H128291   3.541   2.116  16.747  1.4697 -0.4375  1.3958
 2292TIP3    H228292   3.408   2.083  16.812  1.5688 -2.6464  0.5680
 2293TIP3   OH228293   0.422   0.182  12.387 -0.4537 -0.2513 -0.5621
 2293TIP3    H128294   0.381   0.112  12.437  2.4264  0.0394  2.5508
 2293TIP3    H228295   0.448   0.247  12.452  4.5018 -0.2692 -2.1486
 2294TIP3   OH228296   5.653   0.512  16.179 -0.3493  0.2656 -0.1992
 2294TIP3    H128297   5.585   0.446  16.188 -1.3559  0.7368 -3.3546
 2294TIP3    H228298   5.611   0.595  16.203 -0.4758  0.3672 -0.7626
 2295TIP3   OH228299   2.708   4.181  13.443 -0.6432  0.3439  0.5105
 2295TIP3    H128300   2.684   4.154  13.531 -0.2349  0.8503  0.7837
 2295TIP3    H228301   2.679   4.109  13.387  0.3781 -0.6606  1.2131
 2296TIP3   OH228302   6.467   3.952   5.483  0.2527 -0.8213 -0.4681
 2296TIP3    H128303   6.490   3.859   5.486 -0.5803 -1.0173  0.3353
 2296TIP3    H228304   6.385   3.955   5.434  1.1603 -0.2915 -2.0275
 2297TIP3   OH228305   0.280   5.101  16.264 -0.0037 -0.3101  0.4963
 2297TIP3    H128306   0.226   5.135  16.192  0.6788  1.1798  0.6609
 2297TIP3    H228307   0.362   5.149  16.257  1.8057 -3.2524 -0.3988
 2298TIP3   OH228308   1.777   4.066  14.982 -0.6515  0.3436  0.3646
 2298TIP3    H128309   1.724   4.042  14.907  0.7960  0.2036 -0.6513
 2298TIP3    H228310   1.759   3.998  15.047 -2.6759  1.0089  0.5867
 2299TIP3   OH228311   0.528   1.912  11.688 -0.0815  0.6835 -0.0454
 2299TIP3    H128312   0.477   1.880  11.762 -0.2089 -0.6696 -0.6817
 2299TIP3    H228313   0.466   1.967  11.639 -0.4796  0.2650 -0.0141
 2300TIP3   OH228314   5.727   6.656   6.017  0.4678  0.4599 -0.2492
 2300TIP3    H128315   5.700   6.586   5.958 -2.0928  0.5720  0.6931
 2300TIP3    H228316   5.695   6.737   5.976 -0.4483  0.6358  0.7853
 2301TIP3   OH228317   1.515   0.870  16.342 -0.5166  0.3618 -0.3716
 2301TIP3    H128318   1.535   0.785  16.382 -0.3718  0.9511  0.8452
 2301TIP3    H228319   1.571   0.932  16.387 -1.8371  1.3682 -0.0534
 2302TIP3   OH228320   5.792   2.307   4.232 -0.0137 -0.2395  0.0418
 2302TIP3    H128321   5.759   2.228   4.190  1.2843 -1.3716  1.0804
 2302TIP3    H228322   5.887   2.299   4.226  0.1395  1.2275  0.2245
 2303TIP3   OH228323   2.784   3.580   2.776  0.1833  0.3382 -0.1451
 2303TIP3    H128324   2.843   3.550   2.707 -0.1064  1.2359 -0.8017
 2303TIP3    H228325   2.700   3.538   2.755 -0.4703  2.2711 -1.6088
 2304TIP3   OH228326   4.921   6.431  17.189  0.6566  0.6155  0.2277
 2304TIP3    H128327   4.908   6.396  17.277  2.4383  1.1972  0.7585
 2304TIP3    H228328   4.887   6.521  17.194  1.3795  0.8812  0.5427
 2305TIP3   OH228329   2.861   2.451   6.293 -0.0075 -0.0295  0.1134
 2305TIP3    H128330   2.818   2.492   6.368 -0.6231  0.3561 -0.4415
 2305TIP3    H228331   2.790   2.430   6.233  0.1796 -2.6222  0.6678
 2306TIP3   OH228332   2.838   4.543   3.216 -0.0577  0.1191  0.0942
 2306TIP3    H128333   2.921   4.502   3.238 -0.1376 -0.8788 -1.3417
 2306TIP3    H228334   2.773   4.473   3.224 -0.4057  0.2878 -1.0100
 2307TIP3   OH228335   6.582   1.043   3.242 -0.0193  0.1297 -0.1452
 2307TIP3    H128336   6.513   1.061   3.306  0.0452 -1.7701  0.5471
 2307TIP3    H228337   6.545   0.975   3.185  1.3083 -1.0798  0.3709
 2308TIP3   OH228338   0.649   2.933   4.717 -0.3382 -0.2430  0.5433
 2308TIP3    H128339   0.637   3.022   4.749 -0.5319  0.6492 -1.7932
 2308TIP3    H228340   0.744   2.923   4.707 -0.3746  1.2788 -2.9247
 2309TIP3   OH228341   2.159   2.423  17.251  0.0172  0.2731  0.3240
 2309TIP3    H128342   2.156   2.516  17.272  1.3248  0.4656 -0.2064
 2309TIP3    H228343   2.226   2.387  17.310  0.7955  0.0319 -0.6758
 2310TIP3   OH228344   6.498   0.319   3.463  0.7489  0.3537  0.2923
 2310TIP3    H128345   6.477   0.240   3.414  0.2857 -0.0393  1.1055
 2310TIP3    H228346   6.517   0.384   3.396 -1.7871  0.3889 -0.4913
 2311TIP3   OH228347   3.058   6.526   6.261  0.3393  0.0175 -0.1657
 2311TIP3    H128348   3.024   6.485   6.181  0.7666 -1.2185  0.2690
 2311TIP3    H228349   2.980   6.548   6.312  0.0101  1.6265 -1.2735
 2312TIP3   OH228350   6.350   6.566  11.117  0.1929  0.5734 -0.0940
 2312TIP3    H128351   6.369   6.506  11.045 -0.4851 -2.4769  2.0617
 2312TIP3    H228352   6.277   6.619  11.086  0.3620 -0.1647 -1.8812
 2313TIP3   OH228353   0.328   2.356  16.569  0.1203 -0.6811 -0.1450
 2313TIP3    H128354   0.310   2.285  16.507 -1.0841 -1.0914  0.6374
 2313TIP3    H228355   0.392   2.319  16.630  3.5850  0.6081 -2.6238
 2314TIP3   OH228356   2.548   5.535  15.395  0.0974 -0.5262  0.5752
 2314TIP3    H128357   2.633   5.577  15.407  0.4131 -0.5700 -1.2311
 2314TIP3    H228358   2.567   5.452  15.353 -0.7405 -1.2511  1.5751
 2315TIP3   OH228359   4.911   4.210   0.527 -0.4379 -0.8837  0.6162
 2315TIP3    H128360   4.890   4.281   0.587  1.1215  1.0030 -0.9323
 2315TIP3    H228361   4.862   4.231   0.447 -0.6132 -2.0354  0.4026
 2316TIP3   OH228362   3.232   3.682  12.513  0.6360 -0.2533 -0.2129
 2316TIP3    H128363   3.204   3.761  12.559 -0.6418 -0.4240 -0.6562
 2316TIP3    H228364   3.222   3.703  12.420  0.5373 -0.8335 -0.3418
 2317TIP3   OH228365   1.125   4.074  16.609  0.2065 -0.1288 -0.2078
 2317TIP3    H128366   1.091   4.161  16.627  0.1479 -0.4872  1.6604
 2317TIP3    H228367   1.063   4.015  16.652  0.0371 -1.1373 -1.7602
 2318TIP3   OH228368   6.542   6.193  11.831  0.4287 -0.2675 -0.3786
 2318TIP3    H128369   6.634   6.218  11.829  0.1173  1.1152  1.0035
 2318TIP3    H228370   6.496   6.263  11.785 -0.0216 -0.4918 -0.2834
 2319TIP3   OH228371   0.237   0.468  13.081 -0.3575  0.2879  0.0649
 2319TIP3    H128372   0.180   0.398  13.113 -1.0225  1.0606  0.5885
 2319TIP3    H228373   0.285   0.497  13.158  0.0497  0.2956 -0.1899
 2320TIP3   OH228374   0.718   3.134  12.553  0.2444  0.5066  0.1895
 2320TIP3    H128375   0.705   3.157  12.461 -0.6401 -0.4860  0.0436
 2320TIP3    H228376   0.630   3.110  12.584  0.8217 -0.9882  0.7594
 2321TIP3   OH228377   4.215   1.722  13.317 -0.1997  0.0286  0.0228
 2321TIP3    H128378   4.190   1.643  13.365 -0.2010  1.5423  2.7031
 2321TIP3    H228379   4.278   1.766  13.375 -0.6251  2.2608 -1.1210
 2322TIP3   OH228380   3.267   4.777  14.383 -0.0399  0.0138 -0.2715
 2322TIP3    H128381   3.268   4.811  14.472 -0.3831  0.8763 -0.5862
 2322TIP3    H228382   3.359   4.767  14.360  0.0638  0.5373 -0.0929
 2323TIP3   OH228383   0.914   4.277   4.594  0.1675  0.5272 -0.1044
 2323TIP3    H128384   0.861   4.351   4.563 -0.3176  0.5616  0.7823
 2323TIP3    H228385   0.900   4.276   4.688  0.0048 -0.8432 -0.1343
 2324TIP3   OH228386   3.921   4.042  12.696 -0.2619 -0.3972 -0.0190
 2324TIP3    H128387   3.857   3.971  12.694 -0.4405 -0.2282 -0.7131
 2324TIP3    H228388   3.988   4.012  12.758 -1.2102 -0.3887  1.0416
 2325TIP3   OH228389   6.315   3.592  12.764 -0.2241 -0.0408  0.0001
 2325TIP3    H128390   6.283   3.641  12.839 -0.1437 -0.2274  0.1584
 2325TIP3    H228391   6.240   3.586  12.705 -0.1687  0.4790 -0.1327
 2326TIP3   OH228392   3.950   0.238   1.127  0.1069 -0.5175 -0.5050
 2326TIP3    H128393   3.910   0.154   1.151 -0.9841 -0.1292 -0.8897
 2326TIP3    H228394   4.025   0.214   1.073  0.6220 -1.2806  0.5159
 2327TIP3   OH228395   3.859   6.526  16.744 -0.1701  0.4248  0.3464
 2327TIP3    H128396   3.817   6.597  16.793  0.1747  0.0158  1.2617
 2327TIP3    H228397   3.949   6.525  16.777 -1.1192 -3.0293  3.4145
 2328TIP3   OH228398   4.944   5.938  12.889  0.3034 -0.7480 -0.2007
 2328TIP3    H128399   4.965   6.012  12.833 -1.6672 -0.1311 -0.1898
 2328TIP3    H228400   5.001   5.948  12.965 -0.9936  1.7030  0.5466
 2329TIP3   OH228401   5.257   1.518  13.522 -0.1610 -0.5755  0.0280
 2329TIP3    H128402   5.300   1.439  13.556  0.5452 -1.1505 -2.0467
 2329TIP3    H228403   5.274   1.516  13.428 -0.2781  1.9713 -0.1224
 2330TIP3   OH228404   4.727   5.616  11.687 -0.4323 -0.4015 -0.1069
 2330TIP3    H128405   4.780   5.591  11.763  1.3885  1.3456 -0.7052
 2330TIP3    H228406   4.781   5.592  11.611  0.1020  2.4921 -0.7266
 2331TIP3   OH228407   6.177   6.391   3.125  0.4507 -0.2577  0.7656
 2331TIP3    H128408   6.204   6.420   3.212  2.4855  0.2909  0.0229
 2331TIP3    H228409   6.199   6.465   3.067 -1.0396 -0.5336 -0.1934
 2332TIP3   OH228410   0.867   4.212   3.929 -0.3598  0.2230  0.0571
 2332TIP3    H128411   0.853   4.262   4.009 -1.1776 -1.1982  0.8463
 2332TIP3    H228412   0.867   4.120   3.958  2.2345 -0.2670 -1.1302
 2333TIP3   OH228413   5.213   0.210   2.460  0.3552  0.0239  0.3999
 2333TIP3    H128414   5.291   0.159   2.485  0.2323 -0.4734 -0.1835
 2333TIP3    H228415   5.172   0.234   2.543  0.5438 -0.6445  0.6966
 2334TIP3   OH228416   5.586   3.915   2.921 -0.1512 -0.2090  0.2061
 2334TIP3    H128417   5.618   3.864   2.995  2.7992 -1.1104 -1.5459
 2334TIP3    H228418   5.554   3.997   2.960  1.0697 -0.7478  2.4736
 2335TIP3   OH228419   5.097   4.655  17.123 -0.2082 -0.2548 -0.3062
 2335TIP3    H128420   5.152   4.696  17.189  2.1402 -0.6851 -1.8820
 2335TIP3    H228421   5.032   4.722  17.102 -0.1349  0.4049  1.3731
 2336TIP3   OH228422   5.083   6.029  15.845  0.1792 -0.1429  0.3257
 2336TIP3    H128423   5.088   6.124  15.848  1.1017 -0.1874  0.9931
 2336TIP3    H228424   5.162   6.000  15.891  0.2593 -1.2293 -0.4494
 2337TIP3   OH228425   1.601   3.202   1.797 -0.3357 -0.4500  0.2479
 2337TIP3    H128426   1.597   3.114   1.834  0.6432  0.1147  1.8065
 2337TIP3    H228427   1.613   3.189   1.703  0.2220 -1.9745  0.5141
 2338TIP3   OH228428   1.466   4.466  16.767  0.0429 -0.0133 -0.0899
 2338TIP3    H128429   1.506   4.379  16.762  0.4778 -0.0722  2.7988
 2338TIP3    H228430   1.539   4.525  16.785 -0.2880  0.9920 -1.7490
 2339TIP3   OH228431   1.387   1.538   4.153  0.0134 -0.0319 -0.1537
 2339TIP3    H128432   1.385   1.446   4.126  1.2727  0.7299 -3.3015
 2339TIP3    H228433   1.295   1.562   4.160 -0.4671 -0.6520 -3.0319
 2340TIP3   OH228434   1.924   6.549  14.719 -0.1238  0.1755 -0.3881
 2340TIP3    H128435   1.932   6.641  14.692  1.4854  0.5525  1.2335
 2340TIP3    H228436   1.954   6.500  14.643 -0.9857  0.9553 -1.2704
 2341TIP3   OH228437   1.373   2.620   0.229 -0.2041 -0.1998  0.4128
 2341TIP3    H128438   1.321   2.653   0.302  1.1888 -2.0723  2.4140
 2341TIP3    H228439   1.319   2.552   0.189 -0.5844  0.1502  0.3240
 2342TIP3   OH228440   5.302   3.869  16.274 -0.2477  0.1769 -0.3582
 2342TIP3    H128441   5.305   3.919  16.355  1.2243 -0.2797 -0.1000
 2342TIP3    H228442   5.363   3.914  16.215 -1.0449  0.3110 -1.1098
 2343TIP3   OH228443   1.252   1.077  11.888 -0.2901  0.8213 -0.1515
 2343TIP3    H128444   1.311   1.142  11.852  0.2480  0.7632  0.6188
 2343TIP3    H228445   1.243   1.099  11.980  0.3755 -0.5306  0.2664
 2344TIP3   OH228446   1.463   5.834  13.567 -0.0348 -0.1451  1.0736
 2344TIP3    H128447   1.381   5.861  13.526  0.3348  0.4959  0.7282
 2344TIP3    H228448   1.474   5.895  13.641  1.3764  1.4865 -0.3874
 2345TIP3   OH228449   5.813   5.078  11.872  0.2801  0.2533 -0.1363
 2345TIP3    H128450   5.826   4.984  11.858 -0.2453  0.2432 -0.5852
 2345TIP3    H228451   5.811   5.115  11.784  0.3820  0.6711  0.0360
 2346TIP3   OH228452   5.625   0.980  16.032  0.1420  0.4175  0.5642
 2346TIP3    H128453   5.621   0.890  15.999  0.0777  0.4167  0.5736
 2346TIP3    H228454   5.589   0.974  16.121  3.4662 -0.2121  2.0078
 2347TIP3   OH228455   2.563   4.841  14.402 -0.3766 -0.3426  0.1160
 2347TIP3    H128456   2.553   4.936  14.407 -0.3052 -0.3925  1.6831
 2347TIP3    H228457   2.494   4.813  14.342  0.8546  0.8541 -1.9996
 2348TIP3   OH228458   0.244   5.707  13.284  0.6625 -0.1529 -0.3425
 2348TIP3    H128459   0.205   5.792  13.263  1.7093  0.7069  0.9897
 2348TIP3    H228460   0.327   5.707  13.237  0.8570 -0.2468 -0.0024
 2349TIP3   OH228461   3.383   0.903   2.409  0.0817  0.2007 -0.6974
 2349TIP3    H128462   3.335   0.978   2.444 -0.1838  0.8134 -2.2870
 2349TIP3    H228463   3.467   0.906   2.454 -1.0571 -0.4872  1.6330
 2350TIP3   OH228464   5.763   4.494  16.652 -0.0749  0.2156  0.2051
 2350TIP3    H128465   5.781   4.568  16.594  2.2183 -1.1691 -1.0220
 2350TIP3    H228466   5.681   4.457  16.619  0.0870  0.7162 -0.8036
 2351TIP3   OH228467   4.407   4.939   3.447 -0.4419 -0.0507  0.2329
 2351TIP3    H128468   4.465   4.866   3.427  1.8841  1.5135  0.8239
 2351TIP3    H228469   4.333   4.928   3.387  0.6142 -1.9688 -0.8103
 2352TIP3   OH228470   5.628   3.861  13.653  0.2178 -0.1203  0.2162
 2352TIP3    H128471   5.532   3.851  13.654  0.1105 -0.1824 -2.5950
 2352TIP3    H228472   5.661   3.774  13.673 -0.3008 -0.1376  1.0581
 2353TIP3   OH228473   5.378   6.605   3.037  0.0210  0.2758  0.4673
 2353TIP3    H128474   5.300   6.612   3.091 -0.9388 -1.5990 -0.5826
 2353TIP3    H228475   5.356   6.651   2.956 -0.9237 -2.1199 -0.7293
 2354TIP3   OH228476   6.344   0.040  16.834 -0.1303 -0.4557  0.1811
 2354TIP3    H128477   6.272  -0.007  16.876  0.4671  0.4783  2.4064
 2354TIP3    H228478   6.324   0.035  16.740 -1.0625 -3.4630  0.4252
 2355TIP3   OH228479   3.111   2.204   2.047 -0.0159 -0.2415 -0.1163
 2355TIP3    H128480   3.149   2.121   2.075  0.3285  0.7514  2.6976
 2355TIP3    H228481   3.017   2.190   2.053  0.0383 -0.1935  1.3747
 2356TIP3   OH228482   5.648   0.840   1.222  0.0095 -0.4382  0.4529
 2356TIP3    H128483   5.715   0.780   1.255 -0.7708 -1.4871  0.1861
 2356TIP3    H228484   5.675   0.858   1.132  0.7545  0.3892  0.8238
 2357TIP3   OH228485   0.681   0.497  17.180  0.3519 -0.1853 -0.4271
 2357TIP3    H128486   0.651   0.512  17.090 -0.0144  0.0776 -0.2621
 2357TIP3    H228487   0.754   0.558  17.191  0.8265 -0.6791 -0.7584
 2358TIP3   OH228488   0.041   4.323  11.776 -0.8011  0.2232 -0.4698
 2358TIP3    H128489   0.018   4.259  11.843  1.6965  0.3048  0.5766
 2358TIP3    H228490  -0.033   4.322  11.716 -2.2937 -1.2435  1.2586
 2359TIP3   OH228491   5.992   0.983  16.074  0.5751  0.8058 -0.0589
 2359TIP3    H128492   6.077   0.941  16.087  0.6812  1.2568  0.7458
 2359TIP3    H228493   6.012   1.077  16.073  0.3218  0.8673 -1.7028
 2360TIP3   OH228494   5.598   2.951  12.605  0.6927  0.0142  0.7559
 2360TIP3    H128495   5.685   2.957  12.565  0.2686 -1.9675 -0.6416
 2360TIP3    H228496   5.606   2.998  12.688  2.5040  1.6138 -0.2407
 2361TIP3   OH228497   3.261   5.495  12.924 -0.0416 -0.4624  0.1413
 2361TIP3    H128498   3.319   5.502  13.000 -1.5165  0.8060  1.2194
 2361TIP3    H228499   3.210   5.575  12.926 -0.8456 -0.8920 -1.6074
 2362TIP3   OH228500   2.536   0.535  12.016 -0.5621 -0.3657  0.1280
 2362TIP3    H128501   2.530   0.522  12.111  1.1207  0.6499  0.4172
 2362TIP3    H228502   2.567   0.625  12.006  1.7443 -1.2181 -1.2516
 2363TIP3   OH228503   5.128   4.441   5.161 -0.2861 -0.1335 -0.0167
 2363TIP3    H128504   5.222   4.424   5.155 -0.0985  0.9401 -0.4778
 2363TIP3    H228505   5.111   4.448   5.255  0.0005 -0.7733  0.0908
 2364TIP3   OH228506   6.639   2.173   2.526 -0.0077  0.5335 -0.2332
 2364TIP3    H128507   6.621   2.225   2.605 -1.6459  0.4779 -0.5191
 2364TIP3    H228508   6.675   2.091   2.560 -1.3099  0.2437  0.5482
 2365TIP3   OH228509   3.596   4.418   4.344 -0.0069 -0.1853  0.3551
 2365TIP3    H128510   3.507   4.388   4.363 -0.0979  0.5345  1.1651
 2365TIP3    H228511   3.583   4.505   4.306  0.3299 -0.3467 -0.1347
 2366TIP3   OH228512   4.201   2.568   4.380  0.3007 -0.5983 -0.6744
 2366TIP3    H128513   4.128   2.622   4.411 -1.0411 -1.9149 -1.4278
 2366TIP3    H228514   4.184   2.556   4.287  0.8505 -1.8880 -0.6214
 2367TIP3   OH228515   5.612   2.312  13.791  0.7504 -0.6852  0.6447
 2367TIP3    H128516   5.614   2.402  13.756  2.7563 -0.9289  0.0241
 2367TIP3    H228517   5.564   2.262  13.725  0.5477 -0.2672  0.4719
 2368TIP3   OH228518   0.592   0.150   1.197  0.3772 -0.1522 -0.3158
 2368TIP3    H128519   0.539   0.219   1.158 -0.3039  0.2342  1.2066
 2368TIP3    H228520   0.531   0.078   1.213  1.0881 -1.1538 -1.9142
 2369TIP3   OH228521   6.288   6.468   5.612  0.0553 -0.1054 -0.6724
 2369TIP3    H128522   6.329   6.405   5.553  0.9577  1.4137 -1.7424
 2369TIP3    H228523   6.305   6.434   5.700  2.5343 -0.1955 -1.1296
 2370TIP3   OH228524   6.116   2.884   4.465  0.0924  0.0745 -0.6138
 2370TIP3    H128525   6.071   2.852   4.388 -0.6753 -0.5160  0.0689
 2370TIP3    H228526   6.084   2.974   4.476  0.8036  0.4431 -1.4209
 2371TIP3   OH228527   5.124   6.175  16.870 -0.1313 -0.1394  0.4859
 2371TIP3    H128528   5.036   6.185  16.833 -0.2728  2.3824  1.3128
 2371TIP3    H228529   5.183   6.183  16.796 -0.5213 -2.9407 -0.2553
 2372TIP3   OH228530   0.784   1.983   1.938 -0.4492 -0.3412  0.3788
 2372TIP3    H128531   0.712   1.926   1.911 -0.9972  0.4402  0.1582
 2372TIP3    H228532   0.750   2.032   2.012 -1.0426  1.7717 -1.1872
 2373TIP3   OH228533   3.338   3.914  13.616  0.4807 -0.2742 -0.0187
 2373TIP3    H128534   3.297   3.900  13.701 -0.8620  0.2577 -0.5581
 2373TIP3    H228535   3.319   4.005  13.595  0.5185 -0.4917 -1.0260
 2374TIP3   OH228536   5.875   5.199   6.559 -0.0583  0.0300 -0.1720
 2374TIP3    H128537   5.782   5.220   6.553 -0.0065 -0.1298 -2.5064
 2374TIP3    H228538   5.914   5.240   6.481  1.3924 -1.9646 -0.5838
 2375TIP3   OH228539   2.716   4.014   3.339  0.2785  0.4146  0.2846
 2375TIP3    H128540   2.686   3.925   3.320 -1.6375  1.0724  0.0182
 2375TIP3    H228541   2.691   4.028   3.430  0.1778  0.8356  0.1922
 2376TIP3   OH228542   6.081   2.937  15.038  0.0588 -0.2487 -0.0177
 2376TIP3    H128543   5.996   2.912  14.999 -0.3613  2.0299 -0.7066
 2376TIP3    H228544   6.144   2.924  14.967  0.2211 -1.4382  0.3295
 2377TIP3   OH228545   0.604   3.537   6.155  0.7429 -0.4592  0.1708
 2377TIP3    H128546   0.531   3.578   6.201  1.4558 -0.2772  1.1860
 2377TIP3    H228547   0.650   3.610   6.114 -0.4707 -0.7161 -1.7620
 2378TIP3   OH228548   3.963   1.984   1.582  0.0365 -0.3306 -0.2169
 2378TIP3    H128549   4.055   2.006   1.570  0.0395  0.4909  1.0553
 2378TIP3    H228550   3.956   1.892   1.559  1.5494 -0.8765  1.3375
 2379TIP3   OH228551   1.358   4.682   0.044  0.0907  0.3995  0.0442
 2379TIP3    H128552   1.426   4.677  -0.022  0.9679  3.5086  0.5734
 2379TIP3    H228553   1.368   4.601   0.095  3.1658  0.5717 -0.1029
 2380TIP3   OH228554   2.468   5.469   5.346  0.2339 -0.0096 -0.9007
 2380TIP3    H128555   2.508   5.556   5.356 -0.2346  0.0590  0.7066
 2380TIP3    H228556   2.378   5.487   5.321  0.0537  0.0007 -0.2742
 2381TIP3   OH228557   2.142   3.915   2.838 -0.0967 -0.3749 -0.1764
 2381TIP3    H128558   2.229   3.940   2.807  0.3486  0.3117  1.5028
 2381TIP3    H228559   2.136   3.821   2.818  0.4103 -0.1258 -1.6462
 2382TIP3   OH228560   2.832   3.390  15.567  0.6318 -0.4834  0.2863
 2382TIP3    H128561   2.822   3.482  15.542 -1.3991 -0.2475  1.6282
 2382TIP3    H228562   2.907   3.359  15.518 -0.6013  0.9839 -2.7804
 2383TIP3   OH228563   2.536   1.718  13.549  0.1742 -0.0559  0.3445
 2383TIP3    H128564   2.447   1.731  13.582  1.3584  4.9813  2.5789
 2383TIP3    H228565   2.543   1.777  13.474  1.7282 -0.0608  0.4497
 2384TIP3   OH228566   4.814   5.086   0.777  0.4859  0.0112  0.3297
 2384TIP3    H128567   4.813   5.019   0.708  2.5872 -1.5894  1.7084
 2384TIP3    H228568   4.814   5.036   0.859 -1.7199  1.8420  1.5703
 2385TIP3   OH228569   3.242   1.285   4.431 -0.0213  0.2447 -0.3471
 2385TIP3    H128570   3.315   1.332   4.391  1.0024 -0.3266  0.7693
 2385TIP3    H228571   3.277   1.255   4.516 -2.2999  2.0537  1.3714
 2386TIP3   OH228572   0.483   3.362   3.874 -0.1914 -0.0626  0.2126
 2386TIP3    H128573   0.476   3.306   3.951  0.3391 -1.1146 -0.4793
 2386TIP3    H228574   0.549   3.428   3.898  0.2325 -0.5966  0.5345
 2387TIP3   OH228575   0.016   2.326  11.137  0.2735 -1.1656 -0.1347
 2387TIP3    H128576   0.037   2.349  11.228  0.4360 -0.2166 -0.4034
 2387TIP3    H228577   0.063   2.244  11.121 -0.7497 -2.0171  1.0199
 2388TIP3   OH228578   4.427   4.692  16.917 -0.0063 -0.1289 -0.1747
 2388TIP3    H128579   4.520   4.694  16.942  0.2271  1.7801 -1.0198
 2388TIP3    H228580   4.382   4.733  16.992 -0.3959 -2.3357  0.8758
 2389TIP3   OH228581   0.028   2.207  13.735 -0.0472  0.0780 -0.1542
 2389TIP3    H128582  -0.008   2.119  13.751 -0.1540  0.0147 -0.7099
 2389TIP3    H228583  -0.035   2.248  13.676 -0.7898  1.0984  1.2801
 2390TIP3   OH228584   5.276   2.755   3.742 -0.0981 -0.1553  0.1242
 2390TIP3    H128585   5.367   2.744   3.768  0.2885 -1.4168 -1.5681
 2390TIP3    H228586   5.266   2.699   3.665 -2.6077 -0.9403  0.9128
 2391TIP3   OH228587   1.305   1.683   0.880  0.0346 -0.0874  0.4795
 2391TIP3    H128588   1.225   1.691   0.931  0.4773  0.9915  1.0241
 2391TIP3    H228589   1.339   1.772   0.873  0.5977 -0.3751 -0.7126
 2392TIP3   OH228590   6.161   4.023   0.815 -0.1511  0.2259 -0.5712
 2392TIP3    H128591   6.232   4.034   0.752 -1.3331 -1.6717 -2.3795
 2392TIP3    H228592   6.200   4.045   0.900  2.0516  0.9763 -1.6994
 2393TIP3   OH228593   2.234   0.129   0.605 -0.4055  0.0232 -0.1213
 2393TIP3    H128594   2.189   0.211   0.584  0.0265 -0.1235 -1.7561
 2393TIP3    H228595   2.207   0.069   0.535  0.3920 -0.8061  0.2699
 2394TIP3   OH228596   1.374   0.057  12.209 -0.3845  0.2150  0.5951
 2394TIP3    H128597   1.455   0.066  12.158 -0.0986  1.7386  1.2603
 2394TIP3    H228598   1.307   0.039  12.143  0.2793  0.2422 -0.1131
 2395TIP3   OH228599   3.692   3.446  14.817  0.1141 -0.2994  0.3362
 2395TIP3    H128600   3.622   3.481  14.762  0.1395 -0.0736  0.4462
 2395TIP3    H228601   3.750   3.520  14.832  0.7503 -0.6453 -0.3360
 2396TIP3   OH228602   2.107   0.534   3.633 -0.1485  0.0307 -0.4667
 2396TIP3    H128603   2.013   0.529   3.648 -0.0982  0.3400 -0.0380
 2396TIP3    H228604   2.115   0.561   3.542 -0.4695 -0.3604 -0.6156
 2397TIP3   OH228605   1.219   0.565  13.687 -0.3869  0.2654  0.2228
 2397TIP3    H128606   1.153   0.497  13.675 -1.0366  1.1068 -1.1415
 2397TIP3    H228607   1.272   0.534  13.761 -2.2783 -0.4482  1.3415
 2398TIP3   OH228608   1.737   0.072   3.806  0.7641  0.8484 -0.1434
 2398TIP3    H128609   1.671   0.111   3.864  1.4948  1.7981  0.0711
 2398TIP3    H228610   1.818   0.117   3.829  0.9513  1.7715 -2.3966
 2399TIP3   OH228611   1.833   2.314  15.321  1.0569 -0.1636 -0.3057
 2399TIP3    H128612   1.818   2.306  15.415  0.6259 -0.2420 -0.3780
 2399TIP3    H228613   1.837   2.224  15.289  0.4361 -0.1370 -0.4747
 2400TIP3   OH228614   5.373   5.254  15.120  0.6298 -0.3331 -0.6209
 2400TIP3    H128615   5.386   5.271  15.213  1.6475  0.4113 -0.8825
 2400TIP3    H228616   5.419   5.325  15.076 -0.3585 -0.3327 -1.6995
 2401TIP3   OH228617   1.831   2.443  11.488 -0.0229 -0.1337 -0.1572
 2401TIP3    H128618   1.753   2.459  11.436  0.3159  1.5135 -0.2324
 2401TIP3    H228619   1.879   2.376  11.440 -1.1088 -0.7529 -0.4005
 2402TIP3   OH228620   3.760   0.178   4.708 -0.0699 -0.1942  0.3463
 2402TIP3    H128621   3.693   0.181   4.640  0.2820 -0.9137 -0.0466
 2402TIP3    H228622   3.753   0.090   4.745  1.1050 -0.5318 -0.1819
 2403TIP3   OH228623   3.705   6.519  12.505  0.5348  1.0820  0.2763
 2403TIP3    H128624   3.628   6.465  12.485  0.7959  0.3166  1.2725
 2403TIP3    H228625   3.693   6.545  12.597  1.1509  1.5044  0.2453
 2404TIP3   OH228626   5.790   2.608   4.633 -0.2037 -0.1953  0.2244
 2404TIP3    H128627   5.817   2.699   4.650 -0.6770 -0.1132  0.5577
 2404TIP3    H228628   5.821   2.590   4.544  0.7338 -0.0290  0.5123
 2405TIP3   OH228629   2.232   0.678  15.976 -0.2056 -0.0291 -0.9509
 2405TIP3    H128630   2.230   0.624  16.055  1.4458 -1.7904 -2.0384
 2405TIP3    H228631   2.141   0.687  15.950 -0.7494  0.2772  0.9204
 2406TIP3   OH228632   5.040   4.224   5.355  0.1292  0.2377 -0.2014
 2406TIP3    H128633   5.035   4.159   5.425  1.3322  1.1238  0.7413
 2406TIP3    H228634   5.015   4.306   5.396  1.2128  0.8385 -0.6943
 2407TIP3   OH228635   6.375   3.298   2.784 -0.1398 -0.1336  0.0323
 2407TIP3    H128636   6.355   3.224   2.841 -1.7987 -0.2522 -0.6544
 2407TIP3    H228637   6.307   3.296   2.716  0.0392  1.7365 -0.2680
 2408TIP3   OH228638   5.646   3.216  12.238 -0.5563 -0.1862 -0.2193
 2408TIP3    H128639   5.701   3.195  12.313  0.6224  2.0265 -0.3786
 2408TIP3    H228640   5.562   3.174  12.257 -0.4344  0.6201  2.5475
 2409TIP3   OH228641   5.665   4.263  16.116 -0.1723  0.3349 -0.0609
 2409TIP3    H128642   5.653   4.222  16.031 -0.3762  1.4701 -0.6043
 2409TIP3    H228643   5.618   4.347  16.109  1.6363  1.4503  0.3886
 2410TIP3   OH228644   6.239   2.566   5.703 -0.1077  0.5205  0.0823
 2410TIP3    H128645   6.218   2.629   5.634  3.6714 -0.2379 -2.0185
 2410TIP3    H228646   6.220   2.480   5.664 -0.4175  0.1467  1.0161
 2411TIP3   OH228647   1.614   6.506  12.517 -0.2798 -0.5100  0.3031
 2411TIP3    H128648   1.596   6.579  12.458 -0.7587 -1.0357 -0.2095
 2411TIP3    H228649   1.632   6.432  12.459 -0.1435 -0.8870  0.8196
 2412TIP3   OH228650   6.674   1.392  14.995  0.0777 -0.1126  0.0908
 2412TIP3    H128651   6.624   1.337  15.055  0.0476  1.1363  1.2589
 2412TIP3    H228652   6.727   1.448  15.052  2.0837 -0.6931 -1.0755
 2413TIP3   OH228653   6.196   0.840  16.486 -0.9202  0.5748  0.1411
 2413TIP3    H128654   6.253   0.763  16.488 -0.1031  1.1072 -0.9020
 2413TIP3    H228655   6.107   0.806  16.494 -0.6050 -0.5362 -0.8042
 2414TIP3   OH228656   0.200   2.957   0.084  0.0016 -0.4378  0.2580
 2414TIP3    H128657   0.261   2.970   0.157 -0.7785 -0.9558  1.0368
 2414TIP3    H228658   0.225   3.023   0.019  0.9144 -0.1654  0.8620
 2415TIP3   OH228659   0.992   0.359   5.690  0.3894 -0.4649 -0.0418
 2415TIP3    H128660   1.044   0.306   5.629 -0.5423 -1.9765  0.4511
 2415TIP3    H228661   0.907   0.367   5.648  0.2466 -0.0968  0.3115
 2416TIP3   OH228662   2.131   1.400  13.660  0.8363  0.3489 -0.0074
 2416TIP3    H128663   2.183   1.442  13.592  1.5338 -1.2361 -0.4856
 2416TIP3    H228664   2.188   1.334  13.698 -0.1453 -0.0219  0.9013
 2417TIP3   OH228665   4.393   6.373   4.219 -0.1327  0.2008 -0.1669
 2417TIP3    H128666   4.458   6.303   4.223 -0.7447 -0.5481 -2.0097
 2417TIP3    H228667   4.444   6.454   4.216  0.6407 -0.2585  0.2611
 2418TIP3   OH228668   2.172   6.459  12.397  0.1695 -0.4255  0.2062
 2418TIP3    H128669   2.129   6.415  12.324 -0.1728  0.2866 -0.0295
 2418TIP3    H228670   2.164   6.552  12.377 -0.1982 -0.2042  1.3011
 2419TIP3   OH228671   3.306   1.308  14.670  0.1651 -0.1371  0.1071
 2419TIP3    H128672   3.218   1.304  14.708  0.3617 -0.9041  0.4910
 2419TIP3    H228673   3.336   1.397  14.689 -0.6892  0.2706 -0.4017
 2420TIP3   OH228674   2.826   4.047   0.001 -0.5343 -0.2166 -0.3569
 2420TIP3    H128675   2.822   3.958  -0.033 -4.5124 -0.6005  0.5708
 2420TIP3    H228676   2.813   4.103  -0.076 -0.5404 -0.5692 -0.6136
 2421TIP3   OH228677   2.349   0.076   3.132  0.7015 -0.3249 -0.6350
 2421TIP3    H128678   2.358   0.149   3.071  2.5824 -1.4458 -1.8346
 2421TIP3    H228679   2.309   0.113   3.210  0.5139  1.7100 -1.6500
 2422TIP3   OH228680   1.087   4.335  16.641  0.5860  0.1460  0.5309
 2422TIP3    H128681   1.140   4.329  16.720  0.3689 -0.4318  0.6318
 2422TIP3    H228682   1.123   4.411  16.595  2.3569 -0.9702 -0.0336
 2423TIP3   OH228683   4.326   3.096  15.262 -0.0148  0.5585 -0.7948
 2423TIP3    H128684   4.238   3.063  15.242 -0.7296  0.9593  1.3678
 2423TIP3    H228685   4.364   3.029  15.319  0.4086  1.1575 -0.3604
 2424TIP3   OH228686   5.623   2.019   0.772  0.1257 -0.1521 -0.5231
 2424TIP3    H128687   5.569   1.993   0.847  0.5662 -0.5946 -0.3526
 2424TIP3    H228688   5.574   1.991   0.695 -0.6507  0.8983 -0.4425
 2425TIP3   OH228689   2.492   1.947   1.464  0.4977  0.4798  0.2817
 2425TIP3    H128690   2.477   2.026   1.517 -0.4788  0.5136 -0.0246
 2425TIP3    H228691   2.469   1.973   1.375  1.1243  0.1228  0.0086
 2426TIP3   OH228692   0.813   1.629   5.143 -0.8468  0.4174  0.5034
 2426TIP3    H128693   0.720   1.649   5.143 -0.4695  2.3446 -0.3080
 2426TIP3    H228694   0.825   1.572   5.066 -1.0992  1.6514 -0.4796
 2427TIP3   OH228695   0.833   2.099  13.695  0.5730 -0.3797  0.0643
 2427TIP3    H128696   0.925   2.091  13.670  0.1326 -1.7590 -1.2291
 2427TIP3    H228697   0.787   2.119  13.613 -0.5137 -1.7183  0.3182
 2428TIP3   OH228698   3.561   2.000   3.203  0.5444 -0.0943  0.2277
 2428TIP3    H128699   3.522   1.997   3.116  0.7566 -1.9571  0.1626
 2428TIP3    H228700   3.656   1.994   3.187  0.5234 -3.0387  0.5818
 2429TIP3   OH228701   5.053   4.243   1.847  0.0827 -0.2382  0.6738
 2429TIP3    H128702   4.969   4.270   1.884 -0.0319 -1.5633  1.4618
 2429TIP3    H228703   5.118   4.282   1.906  0.0118  0.3549  0.3656
 2430TIP3   OH228704   2.080   3.343   1.130  0.4496 -0.5559  0.2504
 2430TIP3    H128705   1.989   3.372   1.129  0.2515 -0.8838  2.7632
 2430TIP3    H228706   2.079   3.258   1.087 -0.5933 -0.9554  1.0444
 2431TIP3   OH228707   4.658   3.244   1.568  0.3003  0.3137  0.0280
 2431TIP3    H128708   4.624   3.180   1.630 -0.7797  1.6410  0.8795
 2431TIP3    H228709   4.669   3.196   1.487 -1.0796 -0.8173  0.4643
 2432TIP3   OH228710   2.455   0.768   1.389 -0.4504 -0.0362  0.1419
 2432TIP3    H128711   2.403   0.804   1.317 -0.5366 -0.1268  0.1576
 2432TIP3    H228712   2.398   0.773   1.465 -0.5696 -0.4653  0.0853
 2433TIP3   OH228713   6.374   5.633  12.988 -0.2795 -0.7014  0.2678
 2433TIP3    H128714   6.461   5.648  13.025 -0.8235 -0.0719  1.3370
 2433TIP3    H228715   6.387   5.565  12.922  1.1402 -0.1016 -0.1035
 2434TIP3   OH228716   1.970   0.827  11.527  0.0798  0.0710 -0.2997
 2434TIP3    H128717   1.896   0.768  11.538 -0.2746  0.4004 -0.8727
 2434TIP3    H228718   1.944   0.885  11.456  0.0808  1.4550  0.8043
 2435TIP3   OH228719   4.192   4.770  11.829  0.4686  0.5142 -0.0101
 2435TIP3    H128720   4.241   4.837  11.783 -2.7206  1.7956 -1.8441
 2435TIP3    H228721   4.144   4.723  11.761 -1.4646 -0.1032  1.6421
 2436TIP3   OH228722   4.975   1.531   1.486  0.2440  0.1769 -0.4121
 2436TIP3    H128723   4.900   1.543   1.428  0.5338  2.5873 -0.3740
 2436TIP3    H228724   5.050   1.520   1.428  0.1958  0.1759 -0.4731
 2437TIP3   OH228725   3.670   1.244   0.656 -0.0756  0.1128 -0.2927
 2437TIP3    H128726   3.693   1.319   0.600  0.6134  0.1847  0.0679
 2437TIP3    H228727   3.702   1.270   0.743 -3.1784  1.0187  0.6995
 2438TIP3   OH228728   0.022   3.780  14.700 -0.2914 -0.1875 -0.0367
 2438TIP3    H128729   0.002   3.690  14.725 -1.8556  0.2804  0.4629
 2438TIP3    H228730   0.027   3.778  14.604  1.0267 -1.0394  0.0148
 2439TIP3   OH228731   5.772   5.597  16.595 -0.4686  0.0310  0.6057
 2439TIP3    H128732   5.763   5.557  16.681 -0.4420 -0.2758  0.4667
 2439TIP3    H228733   5.688   5.581  16.552 -0.3301 -0.1898  0.4169
 2440TIP3   OH228734   1.094   2.895   0.417 -0.1726 -0.0678 -0.2516
 2440TIP3    H128735   1.058   2.982   0.398 -0.1644 -0.6135 -3.3816
 2440TIP3    H228736   1.182   2.913   0.450 -0.6160  1.1264  0.3441
 2441TIP3   OH228737   1.126   5.314  16.763 -0.2666  0.2125 -0.1863
 2441TIP3    H128738   1.177   5.346  16.689  0.6731 -1.0230 -0.0922
 2441TIP3    H228739   1.185   5.257  16.811 -1.4134 -0.4306  0.5241
 2442TIP3   OH228740   1.233   3.520  14.420 -0.2964  0.4840 -0.6125
 2442TIP3    H128741   1.273   3.536  14.335  1.9567  0.1906  0.2869
 2442TIP3    H228742   1.166   3.588  14.430  0.4905  1.4954 -1.9635
 2443TIP3   OH228743   3.639   2.312  13.660  0.0600  0.6709  0.5025
 2443TIP3    H128744   3.569   2.263  13.703  1.4920 -0.8194  1.2460
 2443TIP3    H228745   3.607   2.327  13.571 -1.3427  0.3837  0.9376
 2444TIP3   OH228746   1.734   4.851   2.992  0.3009 -0.6812  0.2580
 2444TIP3    H128747   1.732   4.947   2.985  0.4486 -0.6965  0.0226
 2444TIP3    H228748   1.735   4.820   2.902 -1.1681 -0.9341  0.2916
 2445TIP3   OH228749   3.982   6.701  14.649 -0.9831  0.1105  0.1007
 2445TIP3    H128750   3.986   6.788  14.611 -0.7312  0.1636  0.2476
 2445TIP3    H228751   3.916   6.655  14.597  0.0569 -0.1314 -1.0524
 2446TIP3   OH228752   1.304   4.267   4.257 -0.2395  0.2028 -0.0910
 2446TIP3    H128753   1.305   4.306   4.170  0.2367  0.0591 -0.1493
 2446TIP3    H228754   1.245   4.191   4.248 -0.5181  0.4283 -0.1809
 2447TIP3   OH228755   6.571   5.599  17.078 -0.3584  0.3245  0.7330
 2447TIP3    H128756   6.490   5.608  17.128 -0.5720 -1.9947  0.9130
 2447TIP3    H228757   6.546   5.615  16.987 -0.8861  0.3355  0.8768
 2448TIP3   OH228758   5.715   1.222   5.663 -0.0290 -0.0776 -0.1795
 2448TIP3    H128759   5.810   1.227   5.670  0.0411 -2.1573  1.5178
 2448TIP3    H228760   5.684   1.228   5.754 -1.6535  1.9428 -0.7990
 2449TIP3   OH228761   4.210   1.359   5.253  0.0807 -0.0167 -0.1612
 2449TIP3    H128762   4.221   1.318   5.338  0.2770  0.5220  0.0758
 2449TIP3    H228763   4.271   1.312   5.196 -0.8291 -1.1124 -0.2775
 2450TIP3   OH228764   6.243   4.233  12.376  0.3061 -0.3097  0.2319
 2450TIP3    H128765   6.338   4.223  12.365  0.1829 -1.4611  0.0748
 2450TIP3    H228766   6.221   4.312  12.327  0.9022 -1.1165 -1.4098
 2451TIP3   OH228767   2.940   0.720   0.940  0.1721  0.2899 -0.0589
 2451TIP3    H128768   2.907   0.634   0.916 -1.7982  1.6360 -2.6565
 2451TIP3    H228769   2.886   0.747   1.014  0.3668 -0.4141  0.3472
 2452TIP3   OH228770   6.476   4.023   4.597 -0.0616 -0.0164 -0.2456
 2452TIP3    H128771   6.529   4.018   4.517 -0.9768  1.8272 -1.0406
 2452TIP3    H228772   6.418   4.097   4.582 -0.0302  0.6266  2.2958
 2453TIP3   OH228773   2.371   4.239   2.649 -0.3650  0.2091  0.5276
 2453TIP3    H128774   2.448   4.240   2.705  0.4019 -0.8135 -0.4563
 2453TIP3    H228775   2.406   4.222   2.561 -1.6899 -0.0372  0.0273
 2454TIP3   OH228776   6.633   5.326  11.773  0.2650  0.9217  0.1453
 2454TIP3    H128777   6.649   5.246  11.723  1.8262  0.1557  1.7670
 2454TIP3    H228778   6.639   5.397  11.709  0.7910 -0.1208 -0.9828
 2455TIP3   OH228779   2.159   0.881  12.277  0.3073 -0.4049  0.3970
 2455TIP3    H128780   2.099   0.838  12.216 -2.0899  0.2675  2.1367
 2455TIP3    H228781   2.173   0.968  12.241 -2.0889  0.4266  1.3450
 2456TIP3   OH228782   1.167   1.835   4.351 -0.2036 -0.1491  0.3993
 2456TIP3    H128783   1.134   1.816   4.438 -0.2882  0.9635  0.6209
 2456TIP3    H228784   1.123   1.772   4.294  0.7088 -1.6522  1.2924
 2457TIP3   OH228785   3.099   2.824  12.823 -0.1595  0.2345 -0.6014
 2457TIP3    H128786   3.029   2.774  12.863  1.6047 -1.6001  0.3534
 2457TIP3    H228787   3.106   2.788  12.734  1.6936 -2.0088  0.3593
 2458TIP3   OH228788   5.292   0.893   2.130  0.1839  0.8061  0.5907
 2458TIP3    H128789   5.245   0.847   2.061  0.5437  1.3531 -0.0225
 2458TIP3    H228790   5.307   0.826   2.197  1.0048 -0.0779 -0.4303
 2459TIP3   OH228791   2.251   0.471   5.557 -0.3872  0.3575  0.1922
 2459TIP3    H128792   2.285   0.529   5.489  1.9072 -0.6733  0.3502
 2459TIP3    H228793   2.188   0.524   5.605  0.5045  2.2230 -0.5834
 2460TIP3   OH228794   2.086   4.443  14.069 -0.3648 -0.6261 -0.1779
 2460TIP3    H128795   2.031   4.492  14.007  1.8593  1.0514 -0.9662
 2460TIP3    H228796   2.148   4.508  14.102 -0.7757 -1.6986  3.0954
 2461TIP3   OH228797   1.315   1.883   3.275  0.0041  0.0428 -0.1723
 2461TIP3    H128798   1.348   1.847   3.193 -0.5334 -2.8500  0.7516
 2461TIP3    H228799   1.233   1.836   3.290  1.5712 -1.9841  3.4819
 2462TIP3   OH228800   0.433   2.827  11.459 -0.1989 -0.0598 -0.0103
 2462TIP3    H128801   0.400   2.742  11.427  0.0722  0.0627 -0.6500
 2462TIP3    H228802   0.455   2.875  11.379 -0.4536  0.6614  0.3465
 2463TIP3   OH228803   4.970   4.182   2.144 -0.2850 -0.2028 -0.4795
 2463TIP3    H128804   4.909   4.157   2.075  1.2240 -2.6986 -1.0688
 2463TIP3    H228805   4.948   4.124   2.217 -0.0951  0.4787  0.1239
 2464TIP3   OH228806   0.312   2.954  15.563 -0.3480  0.5586 -0.2295
 2464TIP3    H128807   0.281   2.863  15.564 -0.4483  0.5916 -0.3298
 2464TIP3    H228808   0.373   2.959  15.637  1.9511 -0.3849 -1.9094
 2465TIP3   OH228809   6.778   5.141  12.616 -0.6362 -0.3189  0.1527
 2465TIP3    H128810   6.810   5.075  12.555 -1.1470  0.0570 -0.5380
 2465TIP3    H228811   6.731   5.204  12.561 -0.5805  0.3575  0.8603
 2466TIP3   OH228812   4.257   2.222   5.350  0.2848  0.6056 -0.1423
 2466TIP3    H128813   4.204   2.167   5.292 -0.3470  1.3626 -0.2960
 2466TIP3    H228814   4.330   2.166   5.375 -0.0999 -0.1538 -0.6638
 2467TIP3   OH228815   1.724   1.011  13.614 -0.1842  0.0404 -0.0354
 2467TIP3    H128816   1.727   0.938  13.676  0.1972  0.2196  0.1632
 2467TIP3    H228817   1.780   0.983  13.541 -2.2144 -1.0184 -1.2603
 2468TIP3   OH228818   4.385   1.444   1.837  0.8919 -0.2684 -0.0420
 2468TIP3    H128819   4.446   1.518   1.845  0.1242  0.5835 -1.4694
 2468TIP3    H228820   4.303   1.477   1.872  0.8835 -0.9232  0.5667
 2469TIP3   OH228821   3.920   3.550  14.369 -0.1039 -0.5202 -0.4154
 2469TIP3    H128822   3.989   3.487  14.348 -0.7818 -1.1523 -0.8274
 2469TIP3    H228823   3.840   3.508  14.337 -0.7198  0.0443  0.3587
 2470TIP3   OH228824   4.022   2.482   5.856  0.2712  0.3357  0.2179
 2470TIP3    H128825   4.103   2.495   5.807 -0.7093 -1.0714 -1.9192
 2470TIP3    H228826   3.976   2.566   5.848  0.2979  0.2484 -0.9860
 2471TIP3   OH228827   5.876   5.182  15.993  0.0709 -0.2977  0.1162
 2471TIP3    H128828   5.812   5.168  16.063 -0.4794  0.0633 -0.3002
 2471TIP3    H228829   5.952   5.219  16.037 -0.3700  0.1820  0.4913
 2472TIP3   OH228830   3.810   3.521   3.061 -0.0875  0.0577  0.0187
 2472TIP3    H128831   3.898   3.522   3.023 -1.1435  1.5257 -2.7640
 2472TIP3    H228832   3.767   3.446   3.021 -0.9563  1.1024 -1.0983
 2473TIP3   OH228833   0.927   5.758  10.750  0.3999  0.3947 -0.5443
 2473TIP3    H128834   0.846   5.770  10.701  1.3393  0.2667 -2.2003
 2473TIP3    H228835   0.971   5.686  10.706  0.6428 -0.7397  1.4203
 2474TIP3   OH228836   2.282   6.761   3.823 -0.2966  0.2352  0.4584
 2474TIP3    H128837   2.249   6.821   3.891 -0.8919  0.8404 -0.3367
 2474TIP3    H228838   2.284   6.815   3.743  1.3082 -0.1904  0.1800
 2475TIP3   OH228839   2.274   6.746  12.588 -0.1283  0.4788 -0.0297
 2475TIP3    H128840   2.206   6.767  12.652 -0.0008  2.1561 -0.3924
 2475TIP3    H228841   2.345   6.708  12.639 -0.8730 -0.2193  0.5099
 2476TIP3   OH228842   4.563   0.273  11.876  0.2047  0.5940  0.1367
 2476TIP3    H128843   4.575   0.178  11.868  1.6159  0.8631 -1.7120
 2476TIP3    H228844   4.515   0.298  11.797 -0.2912  1.4154  0.6815
 2477TIP3   OH228845   6.281   4.232   4.608 -0.2558  0.1656  0.5581
 2477TIP3    H128846   6.198   4.225   4.561  0.8998 -0.7348 -1.4944
 2477TIP3    H228847   6.261   4.204   4.697 -1.6027 -2.8873 -0.5734
 2478TIP3   OH228848   1.936   0.911   0.402 -0.3052 -0.3422 -0.0187
 2478TIP3    H128849   1.920   0.843   0.467 -0.0223  0.3705  0.8008
 2478TIP3    H228850   2.029   0.933   0.412 -0.3199 -0.0471 -0.4869
 2479TIP3   OH228851   1.347   5.131  10.990  0.5138  0.1802  0.0575
 2479TIP3    H128852   1.327   5.063  11.055  0.9207 -1.1180 -1.1472
 2479TIP3    H228853   1.437   5.115  10.965 -0.5864 -1.5255 -3.3033
 2480TIP3   OH228854   3.242   5.231   2.799 -0.0266 -0.1445  0.1003
 2480TIP3    H128855   3.191   5.167   2.848 -0.2665  0.7010  0.9831
 2480TIP3    H228856   3.176   5.284   2.753  0.1580 -0.3393 -0.3980
 2481TIP3   OH228857   1.752   3.665  16.959  0.4318  0.1582 -0.1395
 2481TIP3    H128858   1.660   3.641  16.972  0.3851 -0.1604 -1.0122
 2481TIP3    H228859   1.799   3.624  17.032 -0.2129  1.0162  0.7991
 2482TIP3   OH228860   3.751   0.067  17.259  0.6708  0.4278 -0.0724
 2482TIP3    H128861   3.781   0.039  17.173 -1.3825  0.7806 -0.9492
 2482TIP3    H228862   3.710   0.152  17.245 -1.0809 -0.1927  0.9163
 2483TIP3   OH228863   4.298   2.969  16.372  0.4363  0.3012  0.3670
 2483TIP3    H128864   4.227   2.916  16.408  0.9709  0.0769  1.1319
 2483TIP3    H228865   4.377   2.917  16.389  0.8073  0.6549 -0.2444
 2484TIP3   OH228866   3.979   3.404   0.093  0.4117  0.0241  0.3158
 2484TIP3    H128867   3.926   3.466   0.143 -0.1660 -0.4304  0.2655
 2484TIP3    H228868   4.007   3.453   0.016 -1.7391 -0.3695 -0.7753
 2485TIP3   OH228869   0.189   2.244  14.377 -0.4599  0.4098 -0.0984
 2485TIP3    H128870   0.125   2.284  14.318 -0.8188  0.5568  0.3853
 2485TIP3    H228871   0.220   2.166  14.330  0.6487  1.5277 -1.2919
 2486TIP3   OH228872   5.417   5.986  17.264  0.0368 -0.3221  0.1031
 2486TIP3    H128873   5.375   6.055  17.212  0.3479 -0.4638 -0.3494
 2486TIP3    H228874   5.502   5.974  17.222 -0.0439 -1.0322  0.1304
 2487TIP3   OH228875   4.206   0.453   1.306 -0.1886  0.0460 -0.5829
 2487TIP3    H128876   4.202   0.370   1.354 -1.7887 -0.2103 -1.1048
 2487TIP3    H228877   4.160   0.436   1.224 -0.2462  1.3598 -0.8508
 2488TIP3   OH228878   1.609   0.517   1.806  0.7173  0.0726 -0.3392
 2488TIP3    H128879   1.656   0.438   1.779  1.7799  0.7458 -0.5497
 2488TIP3    H228880   1.637   0.584   1.743 -1.7131  0.1701 -1.4049
 2489TIP3   OH228881   4.348   4.342   0.399  0.4377 -0.2359 -0.3277
 2489TIP3    H128882   4.418   4.331   0.463 -0.5054  0.7066  0.9177
 2489TIP3    H228883   4.272   4.298   0.438 -0.8806  2.5626  0.5303
 2490TIP3   OH228884   2.947   2.105   5.092 -0.1986 -0.2000  0.0179
 2490TIP3    H128885   3.016   2.133   5.033  0.7230 -2.4993 -0.1151
 2490TIP3    H228886   2.984   2.115   5.180 -0.6367  0.8367  0.1036
 2491TIP3   OH228887   2.526   5.573   0.142 -0.6488 -0.1246 -0.3563
 2491TIP3    H128888   2.476   5.614   0.071 -1.3290 -0.5215 -0.1129
 2491TIP3    H228889   2.592   5.638   0.166 -0.6442  0.1567 -1.1067
 2492TIP3   OH228890   3.586   2.806   3.192  0.1200 -0.4719  0.1705
 2492TIP3    H128891   3.504   2.765   3.163  0.5922 -0.5176 -1.1597
 2492TIP3    H228892   3.646   2.734   3.205 -0.1953 -0.4817  1.7029
 2493TIP3   OH228893   1.147   0.935  11.189  0.6037  0.0336 -0.0526
 2493TIP3    H128894   1.220   0.991  11.165  0.8289 -0.7025 -1.1325
 2493TIP3    H228895   1.072   0.971  11.141  0.3163  0.5657  0.7687
 2494TIP3   OH228896   4.719   5.331  10.638  0.4362 -0.1408 -0.3784
 2494TIP3    H128897   4.736   5.245  10.600 -0.7285 -0.3929 -0.3636
 2494TIP3    H228898   4.628   5.327  10.668  0.3947  1.0556 -0.2755
 2495TIP3   OH228899   4.294   3.572  12.999 -0.5371  0.2980 -0.2601
 2495TIP3    H128900   4.245   3.491  12.984 -1.4076  0.9733 -1.1884
 2495TIP3    H228901   4.369   3.545  13.053  0.0194 -1.4003 -1.7713
 2496TIP3   OH228902   6.698   1.501   3.225  0.2675  0.0503  0.1640
 2496TIP3    H128903   6.737   1.532   3.143  0.0504 -0.6494 -0.2049
 2496TIP3    H228904   6.611   1.472   3.201  0.7654 -1.6771  0.3276
 2497TIP3   OH228905   6.226   3.957  13.840  0.2528 -0.5230  0.5810
 2497TIP3    H128906   6.301   3.968  13.899 -1.0220  1.4649  1.9391
 2497TIP3    H228907   6.154   3.932  13.897 -0.5069 -0.7594 -0.4583
 2498TIP3   OH228908   6.310   4.593  13.379 -0.8911  0.6729  0.2344
 2498TIP3    H128909   6.306   4.507  13.337  0.2731  0.6018  0.2393
 2498TIP3    H228910   6.347   4.576  13.466  1.5710  1.4356 -0.6015
 2499TIP3   OH228911   3.503   3.656  15.593  0.2461 -0.1001  0.5726
 2499TIP3    H128912   3.434   3.710  15.631 -0.1352  1.1741 -1.7453
 2499TIP3    H228913   3.582   3.710  15.598  0.4067 -0.3201  0.4591
 2500TIP3   OH228914   4.150   4.001   6.017 -0.3663  0.0692  0.0095
 2500TIP3    H128915   4.195   4.022   6.098  0.1268 -1.0249  0.0398
 2500TIP3    H228916   4.126   3.909   6.026  1.0762 -0.5520 -1.6718
 2501TIP3   OH228917   4.619   1.232   1.143  0.6575 -0.0922 -0.2439
 2501TIP3    H128918   4.562   1.255   1.216  0.6432 -0.5814 -0.0952
 2501TIP3    H228919   4.708   1.248   1.176  0.6836 -0.9061  0.1060
 2502TIP3   OH228920   3.666   2.019   0.012 -0.3931 -0.6660 -0.2787
 2502TIP3    H128921   3.631   2.098   0.054  3.2801  0.0586  1.9085
 2502TIP3    H228922   3.697   2.049  -0.073 -3.0278 -0.8988 -1.4101
 2503TIP3   OH228923   2.484   3.924  15.085 -0.2626 -0.1336 -0.0995
 2503TIP3    H128924   2.526   3.845  15.053 -1.8190 -0.2966 -1.9456
 2503TIP3    H228925   2.554   3.990  15.084  1.1326 -1.4703  1.7773
 2504TIP3   OH228926   2.349   4.316   0.414 -0.2906  0.0343 -0.3770
 2504TIP3    H128927   2.351   4.393   0.357  3.1104  0.6835  0.3826
 2504TIP3    H228928   2.369   4.350   0.501 -0.8342 -1.4984  0.3873
 2505TIP3   OH228929   3.943   1.423   2.978 -0.0091  0.0719 -0.0704
 2505TIP3    H128930   4.013   1.473   3.020 -0.4685  0.6519  0.0189
 2505TIP3    H228931   3.989   1.360   2.922  0.5809  0.3398  0.1022
 2506TIP3   OH228932   2.198   4.284  12.963 -0.0254 -0.5977  0.3647
 2506TIP3    H128933   2.283   4.319  12.989  0.7749 -1.3751 -1.0862
 2506TIP3    H228934   2.163   4.350  12.903 -0.3295 -0.3996  0.7603
 2507TIP3   OH228935   6.649   1.176   4.419  0.1325  0.1469  0.8862
 2507TIP3    H128936   6.667   1.264   4.385 -0.0311  0.7842  2.3505
 2507TIP3    H228937   6.732   1.149   4.459  0.2775 -0.5199  0.1565
 2508TIP3   OH228938   1.675   4.893  15.937 -0.0049  0.8684  0.5961
 2508TIP3    H128939   1.643   4.880  15.848 -0.8168 -1.2096  1.1331
 2508TIP3    H228940   1.632   4.972  15.967 -1.4661  0.3798 -0.1188
 2509TIP3   OH228941   2.595   4.874  13.623  0.4996  0.4549  0.3326
 2509TIP3    H128942   2.677   4.825  13.627 -0.2423 -0.9517 -0.7205
 2509TIP3    H228943   2.540   4.837  13.691 -0.0927 -0.2693 -0.5141
 2510TIP3   OH228944   4.242   0.570   2.857 -0.1866  0.6376 -0.1409
 2510TIP3    H128945   4.246   0.514   2.779 -0.0184  0.6819 -0.1639
 2510TIP3    H228946   4.324   0.619   2.856 -0.2007  0.6666  0.0428
 2511TIP3   OH228947   6.658   2.930  11.347  0.0611 -0.9269 -0.5753
 2511TIP3    H128948   6.572   2.973  11.348 -0.1344 -1.3104  0.0209
 2511TIP3    H228949   6.707   2.975  11.279 -0.1165  0.2776  0.0661
 2512TIP3   OH228950   4.533   0.554  16.314  0.8591  0.3621 -0.1946
 2512TIP3    H128951   4.524   0.649  16.313  2.7270  0.5633 -0.8231
 2512TIP3    H228952   4.447   0.523  16.343 -0.3917  2.1500 -1.6824
 2513TIP3   OH228953   4.031   3.094   4.465 -0.1841 -0.3010 -0.1083
 2513TIP3    H128954   3.942   3.120   4.489 -1.2252 -3.0756 -0.5927
 2513TIP3    H228955   4.042   3.127   4.375 -0.9102 -0.3388 -0.2181
 2514TIP3   OH228956   5.240   3.267   4.542  0.4778  0.1564 -0.3803
 2514TIP3    H128957   5.309   3.330   4.519 -0.2832 -0.1747 -4.2820
 2514TIP3    H228958   5.272   3.183   4.511 -0.3970 -0.5880  0.6460
 2515TIP3   OH228959   6.684   2.943   2.829 -0.5908  0.4974  0.2610
 2515TIP3    H128960   6.594   2.929   2.859 -0.7706 -0.4250 -0.6434
 2515TIP3    H228961   6.675   2.959   2.735  0.1595  0.8790  0.2482
 2516TIP3   OH228962   5.029   2.562  13.967  0.9424  0.3915 -0.0180
 2516TIP3    H128963   5.110   2.581  13.920  1.5461 -0.1914  0.7624
 2516TIP3    H228964   5.052   2.491  14.027 -0.0423  0.5082  0.5187
 2517TIP3   OH228965   0.319   2.372  11.862 -0.3890  0.2906  0.4913
 2517TIP3    H128966   0.283   2.459  11.844  0.2371  0.6774  1.0713
 2517TIP3    H228967   0.350   2.377  11.952 -0.5021 -0.5918  0.5926
 2518TIP3   OH228968   4.087   3.315  11.676 -0.2181 -0.4480 -0.1963
 2518TIP3    H128969   4.097   3.267  11.759 -1.4878 -0.0906  0.1770
 2518TIP3    H228970   4.060   3.248  11.613 -1.2361 -0.3795  0.1507
 2519TIP3   OH228971   3.994   3.462  16.514 -0.0113 -0.2483 -1.0193
 2519TIP3    H128972   3.966   3.549  16.543 -0.3351 -0.5786 -0.3084
 2519TIP3    H228973   3.933   3.402  16.557  1.9191 -1.0212  0.8249
 2520TIP3   OH228974   0.043   4.707   1.600  0.0267 -0.5218  0.2167
 2520TIP3    H128975   0.065   4.726   1.509  1.6273  0.6788  0.8009
 2520TIP3    H228976   0.049   4.612   1.607 -0.3616 -0.6450 -0.9808
 2521TIP3   OH228977   4.641   5.108  16.634  0.4166  0.1907 -0.7613
 2521TIP3    H128978   4.644   5.041  16.565  0.3038 -1.3224  0.6327
 2521TIP3    H228979   4.573   5.169  16.605 -0.8295 -1.3432 -1.2168
 2522TIP3   OH228980   1.863   1.921  15.646 -0.3266 -0.3360  0.1611
 2522TIP3    H128981   1.786   1.890  15.598 -0.6175  0.4589  0.0983
 2522TIP3    H228982   1.842   1.907  15.738 -1.3474  1.6045  0.2587
 2523TIP3   OH228983   1.930   2.040  14.568 -0.0486  0.6270  1.0556
 2523TIP3    H128984   2.018   2.059  14.537 -0.1789  1.0208  0.9281
 2523TIP3    H228985   1.928   1.944  14.577  0.5868  0.6644  1.6572
 2524TIP3   OH228986   6.452   4.320  14.786 -0.2381  0.2683  0.0485
 2524TIP3    H128987   6.505   4.249  14.749 -1.7309 -0.7216 -0.3027
 2524TIP3    H228988   6.374   4.275  14.820 -0.2300  1.4903  1.8236
 2525TIP3   OH228989   1.496   3.702  16.417 -0.0523 -0.8397  0.2461
 2525TIP3    H128990   1.443   3.671  16.344 -0.4236 -1.4356  0.7498
 2525TIP3    H228991   1.435   3.704  16.491  0.5387 -1.1774  0.7481
 2526TIP3   OH228992   2.173   4.192   0.233 -0.4014 -0.3309 -0.0812
 2526TIP3    H128993   2.261   4.224   0.254 -0.2964  0.1151 -1.1456
 2526TIP3    H228994   2.132   4.176   0.319  0.6778 -0.4676  0.4248
 2527TIP3   OH228995   6.199   0.901  13.007  0.8432  0.5360  0.1993
 2527TIP3    H128996   6.142   0.829  12.980  1.9775 -1.1837  2.1278
 2527TIP3    H228997   6.139   0.976  13.018 -0.4205 -0.1552 -1.4911
 2528TIP3   OH228998   5.166   4.758   5.284 -0.0997 -0.2600  0.3788
 2528TIP3    H128999   5.251   4.713   5.285  0.5668  0.8203 -1.6636
 2528TIP3    H229000   5.174   4.824   5.353  0.8993  0.0991 -0.0560
 2529TIP3   OH229001   5.452   5.474  17.166  0.0978 -0.5030 -0.0867
 2529TIP3    H129002   5.397   5.416  17.113  0.8381 -1.0790 -0.2437
 2529TIP3    H229003   5.512   5.514  17.104  1.1265 -1.3564  0.3277
 2530TIP3   OH229004   3.180   2.340   3.476  0.7674 -0.7266  0.1286
 2530TIP3    H129005   3.210   2.257   3.440  0.7088 -1.1407  1.0077
 2530TIP3    H229006   3.243   2.404   3.444  0.7282 -1.0804 -0.6782
 2531TIP3   OH229007   5.748   2.002  11.802  0.4749 -0.6797 -0.2053
 2531TIP3    H129008   5.773   1.922  11.849 -0.8789 -0.1726  1.5135
 2531TIP3    H229009   5.727   2.065  11.872  1.0198  1.0336 -1.5176
 2532TIP3   OH229010   3.977   4.281  12.579 -0.4309 -0.4123  0.0153
 2532TIP3    H129011   4.066   4.262  12.608 -0.4920 -0.4290  0.1968
 2532TIP3    H229012   3.924   4.210  12.617 -0.8599  0.7534  1.7291
 2533TIP3   OH229013   5.085   1.649  11.272  0.3872  0.3454 -0.2303
 2533TIP3    H129014   5.167   1.685  11.306 -1.0282  0.9328  3.0501
 2533TIP3    H229015   5.074   1.566  11.319 -0.4565 -0.1863 -1.3335
 2534TIP3   OH229016   3.000   1.192   2.616  0.0124  0.5504  0.1179
 2534TIP3    H129017   2.947   1.234   2.548 -1.1829 -0.1661  0.5684
 2534TIP3    H229018   2.954   1.212   2.698 -1.2707 -2.4303  0.2792
 2535TIP3   OH229019   6.215   1.797  16.172 -0.4677  0.2639 -0.2182
 2535TIP3    H129020   6.152   1.728  16.195  0.1483 -0.2015  0.1222
 2535TIP3    H229021   6.281   1.752  16.118  1.4505 -0.1093  2.2444
 2536TIP3   OH229022   1.507   3.635   1.519  0.0111 -0.0705 -0.1511
 2536TIP3    H129023   1.429   3.659   1.469 -0.5196  1.4119  1.2670
 2536TIP3    H229024   1.577   3.688   1.480  0.1427 -0.7828 -0.8970
 2537TIP3   OH229025   4.739   4.199   5.439  0.1203  0.2367 -0.1976
 2537TIP3    H129026   4.817   4.167   5.486 -0.9630  1.8477  3.0001
 2537TIP3    H229027   4.677   4.126   5.443 -0.2586  0.6244  1.7578
 2538TIP3   OH229028   1.824   1.316  17.232 -0.4012 -0.2304  0.4822
 2538TIP3    H129029   1.919   1.330  17.227 -0.5834  0.8497 -0.4018
 2538TIP3    H229030   1.800   1.347  17.319  0.0075 -0.1518  0.5676
 2539TIP3   OH229031   1.695   1.081  11.688  0.7041  0.1190  0.4378
 2539TIP3    H129032   1.687   0.986  11.693  2.0592  0.0143  1.0449
 2539TIP3    H229033   1.645   1.113  11.763  1.3320 -0.2079  1.0097
 2540TIP3   OH229034   5.514   1.157  13.775  0.5393 -0.0665 -0.0976
 2540TIP3    H129035   5.586   1.109  13.734  1.5311  0.1268  1.3455
 2540TIP3    H229036   5.486   1.100  13.847  0.6716  0.8000  0.6512
 2541TIP3   OH229037   0.319   3.315  12.683  0.7193 -0.1352  0.0303
 2541TIP3    H129038   0.261   3.362  12.743  0.6008 -0.7201  0.3840
 2541TIP3    H229039   0.276   3.230  12.670  1.7082 -0.7530  0.6628
 2542TIP3   OH229040   3.118   4.051  11.731  0.5870  0.9225 -0.1066
 2542TIP3    H129041   3.094   3.963  11.701 -1.3644  1.1229  0.7124
 2542TIP3    H229042   3.146   4.097  11.652 -1.3215  0.4833 -1.0913
 2543TIP3   OH229043   2.665   0.836   1.078  0.3032 -0.0423 -0.2429
 2543TIP3    H129044   2.645   0.880   1.161 -0.3295 -0.2734 -0.2679
 2543TIP3    H229045   2.670   0.743   1.101 -1.8550 -0.3353 -0.7925
 2544TIP3   OH229046   5.484   1.820  15.001 -0.1543  0.1093  0.0591
 2544TIP3    H129047   5.572   1.793  15.027 -0.2940  0.0535  0.4840
 2544TIP3    H229048   5.445   1.743  14.961 -0.0785  0.0770  0.0478
 2545TIP3   OH229049   4.720   1.091   0.018  0.1958 -0.0726  0.3652
 2545TIP3    H129050   4.686   1.058  -0.065 -0.8470 -1.7050  1.3917
 2545TIP3    H229051   4.692   1.182   0.021  0.1075 -0.0342 -0.9801
 2546TIP3   OH229052   1.826   2.660   4.475 -0.2140  0.5010  0.5856
 2546TIP3    H129053   1.777   2.689   4.552 -1.8578 -0.9669  0.1705
 2546TIP3    H229054   1.797   2.720   4.406  0.7272  1.3730  0.9200
 2547TIP3   OH229055   6.393   5.392   6.209  0.1693  0.0824  0.1996
 2547TIP3    H129056   6.445   5.314   6.225 -0.7542 -0.6951 -0.4613
 2547TIP3    H229057   6.328   5.365   6.144  0.9320  1.8529 -1.4036
 2548TIP3   OH229058   0.997   2.578   3.434  0.4132  0.1924  0.3935
 2548TIP3    H129059   0.924   2.633   3.464  1.5596  2.0645 -0.0768
 2548TIP3    H229060   0.961   2.490   3.430 -2.1308  1.2097 -0.8602
 2549TIP3   OH229061   4.632   3.703   6.123  0.4050  0.4516 -0.2994
 2549TIP3    H129062   4.596   3.785   6.091 -0.8700  0.2223  0.4629
 2549TIP3    H229063   4.555   3.646   6.134  1.0935 -0.3450  0.5552
 2550TIP3   OH229064   0.872   4.076   1.601  0.3103 -0.1797 -0.3673
 2550TIP3    H129065   0.950   4.082   1.655 -0.2039 -2.0495  0.6684
 2550TIP3    H229066   0.808   4.031   1.656 -1.2191  0.4976 -1.5087
 2551TIP3   OH229067   4.720   2.760   5.283 -0.0845 -0.1588  0.1654
 2551TIP3    H129068   4.675   2.800   5.209  2.8570  1.9592 -0.6499
 2551TIP3    H229069   4.777   2.693   5.243  1.0532  0.5619  0.5318
 2552TIP3   OH229070   5.043   5.214   1.043 -0.1455 -0.4035  0.1151
 2552TIP3    H129071   5.127   5.260   1.054  1.2718 -2.7767 -0.1407
 2552TIP3    H229072   5.042   5.189   0.950 -0.4991 -1.5281  0.4142
 2553TIP3   OH229073   6.466   2.286   4.779  0.3743  0.2527  0.3272
 2553TIP3    H129074   6.454   2.349   4.850 -4.6139 -0.5690  0.5860
 2553TIP3    H229075   6.516   2.215   4.819  1.8182  1.8193  1.4654
 2554TIP3   OH229076   4.188   0.461   1.971  0.1414  0.3784  0.0667
 2554TIP3    H129077   4.176   0.366   1.962 -1.2351  0.7261 -2.4262
 2554TIP3    H229078   4.276   0.478   1.938  0.2730  0.0070  0.2246
 2555TIP3   OH229079   6.759   5.109   0.580  0.2425  0.2292  0.1446
 2555TIP3    H129080   6.775   5.203   0.566  0.3998  0.2663  0.5518
 2555TIP3    H229081   6.733   5.076   0.494 -2.3484  1.1570  0.4622
 2556TIP3   OH229082   5.461   5.280   0.474 -0.0245 -0.5357  0.2282
 2556TIP3    H129083   5.394   5.328   0.425  0.5532  1.0627  0.9211
 2556TIP3    H229084   5.532   5.266   0.411 -0.2923 -0.6725 -0.0425
 2557TIP3   OH229085   3.128   5.842  15.392  0.1046  0.1074 -0.5504
 2557TIP3    H129086   3.193   5.912  15.382  0.3268  0.1392  0.8349
 2557TIP3    H229087   3.175   5.772  15.437 -1.2300  0.8903  2.3333
 2558TIP3   OH229088   3.764   5.332  11.781 -0.3460  0.2080 -0.0853
 2558TIP3    H129089   3.708   5.255  11.793 -0.2239  0.1163 -0.0956
 2558TIP3    H229090   3.799   5.351  11.869  0.3168 -0.2862 -0.2302
 2559TIP3   OH229091   2.466   2.990   4.413  0.3430 -0.3463  0.2349
 2559TIP3    H129092   2.449   2.907   4.458  1.2283 -0.7102 -0.0794
 2559TIP3    H229093   2.540   3.028   4.460 -0.1095  0.3170  0.4289
 2560TIP3   OH229094   3.920   0.212   6.307 -0.0951 -0.4262  0.3280
 2560TIP3    H129095   3.961   0.297   6.295  0.0712 -0.1946  2.2014
 2560TIP3    H229096   3.830   0.224   6.277 -0.9577  1.3363  3.2224
 2561TIP3   OH229097   4.540   6.635  12.433  0.0627 -0.5433 -0.3924
 2561TIP3    H129098   4.447   6.628  12.411  0.2783 -0.7518 -1.3085
 2561TIP3    H229099   4.562   6.726  12.414  0.3426 -0.8230 -1.4820
 2562TIP3   OH229100   6.415   4.944   4.372  1.2568 -0.1725 -0.5395
 2562TIP3    H129101   6.331   4.940   4.419  1.5700  2.4240  0.4120
 2562TIP3    H229102   6.475   4.893   4.427  0.7667 -0.2930 -0.1044
 2563TIP3   OH229103   1.923   4.985  15.290  0.1891 -0.3097 -0.6082
 2563TIP3    H129104   2.016   4.981  15.311 -0.2092 -2.4277  1.2214
 2563TIP3    H229105   1.883   5.029  15.365 -0.4044 -0.4377 -0.8390
 2564TIP3   OH229106   4.324   6.383  17.023 -0.2183 -0.7130  0.4076
 2564TIP3    H129107   4.379   6.354  17.096 -0.1005 -1.7616 -0.0854
 2564TIP3    H229108   4.239   6.343  17.041 -0.0783 -1.3185 -0.2273
 2565TIP3   OH229109   1.211   1.235  11.455 -0.5305  0.2932 -0.5785
 2565TIP3    H129110   1.286   1.245  11.514 -0.0217  1.1333 -1.3276
 2565TIP3    H229111   1.140   1.282  11.498 -0.3940  0.2009 -0.2507
 2566TIP3   OH229112   0.057   3.771   0.763  0.0785  0.0298  0.0672
 2566TIP3    H129113   0.013   3.832   0.823  2.5328  1.2144  0.7694
 2566TIP3    H229114  -0.005   3.760   0.691 -1.5850  1.1637  1.2420
 2567TIP3   OH229115   0.926   4.969  13.725  0.3399  0.0832  0.3199
 2567TIP3    H129116   0.949   4.877  13.709 -1.1906 -0.1895 -0.5557
 2567TIP3    H229117   0.842   4.965  13.771  0.0087  1.0327 -0.1761
 2568TIP3   OH229118   1.519   6.743   6.207  0.2284 -0.8584 -0.0659
 2568TIP3    H129119   1.437   6.791   6.200  0.8999  0.2556 -0.5153
 2568TIP3    H229120   1.586   6.806   6.181  1.2461 -1.6898  0.4716
 2569TIP3   OH229121   6.364   2.912   2.003  0.0647 -0.2139 -0.2442
 2569TIP3    H129122   6.289   2.909   2.062 -0.7834  3.2183 -0.9232
 2569TIP3    H229123   6.335   2.867   1.924 -0.9173  0.1385 -0.1023
 2570TIP3   OH229124   4.611   2.465  16.575 -0.4965  0.2217  0.7397
 2570TIP3    H129125   4.619   2.479  16.669  0.0905  2.8177  0.3774
 2570TIP3    H229126   4.673   2.527  16.536  0.0524 -1.5160 -1.3645
 2571TIP3   OH229127   4.523   2.449   3.879 -0.4303 -0.1772  0.3562
 2571TIP3    H129128   4.571   2.531   3.872  0.4978 -0.7748 -0.4120
 2571TIP3    H229129   4.470   2.459   3.958  0.6041  0.6716  0.9612
 2572TIP3   OH229130   4.489   1.941  15.449  0.1037  0.0754  0.1052
 2572TIP3    H129131   4.443   1.936  15.365  1.1325  2.2059 -0.6461
 2572TIP3    H229132   4.576   1.906  15.431  0.3910  0.7169  0.2377
 2573TIP3   OH229133   2.383   6.319  16.820 -0.6043 -0.2612 -0.1763
 2573TIP3    H129134   2.431   6.326  16.902  0.4752 -0.2426 -0.7907
 2573TIP3    H229135   2.426   6.381  16.761 -1.0175 -0.6613 -0.9204
 2574TIP3   OH229136   3.477   1.725  16.073  0.0090  0.0137  0.3198
 2574TIP3    H129137   3.475   1.690  16.162  0.8063  0.4424  0.5118
 2574TIP3    H229138   3.559   1.693  16.037 -0.1940  0.0499 -0.1783
 2575TIP3   OH229139   1.682   2.123  17.160  0.1286 -0.4018 -0.0815
 2575TIP3    H129140   1.733   2.098  17.237 -0.6798  0.6215  0.8334
 2575TIP3    H229141   1.740   2.181  17.110  1.0937 -2.0214 -0.9149
 2576TIP3   OH229142   6.007   1.679   4.364 -0.4338 -0.7273 -0.5296
 2576TIP3    H129143   5.985   1.762   4.323 -0.0338 -0.3907 -0.0795
 2576TIP3    H229144   5.996   1.694   4.458  1.8660 -0.4508 -0.2475
 2577TIP3   OH229145   5.863   5.639   3.841  0.1100 -0.0964 -0.4917
 2577TIP3    H129146   5.858   5.569   3.776  1.9801 -0.3598 -0.3991
 2577TIP3    H229147   5.831   5.598   3.922 -0.0609 -0.4399 -0.7289
 2578TIP3   OH229148   0.938   4.018   3.443  0.6678 -0.3613  0.6339
 2578TIP3    H129149   0.970   4.050   3.528  1.1042 -0.7701  0.6314
 2578TIP3    H229150   0.882   4.088   3.410 -0.3021 -0.5964  1.7174
 2579TIP3   OH229151   1.580   1.250   1.122 -0.6107 -0.4352 -0.1001
 2579TIP3    H129152   1.504   1.213   1.076 -0.3738  0.9348 -1.6685
 2579TIP3    H229153   1.654   1.195   1.095 -0.6335 -0.2283 -0.5879
 2580TIP3   OH229154   3.068   3.108  16.853 -0.4267 -0.1914  0.7197
 2580TIP3    H129155   3.116   3.026  16.866 -0.0995 -0.3946 -1.3037
 2580TIP3    H229156   2.983   3.081  16.817 -0.5872  0.3161  0.7111
 2581TIP3   OH229157   3.339   2.421   6.301 -0.1546  0.0171  0.1565
 2581TIP3    H129158   3.397   2.498   6.293  3.5684 -2.5795 -0.7592
 2581TIP3    H229159   3.383   2.365   6.365 -1.9669 -1.9540 -0.2428
 2582TIP3   OH229160   0.616   0.062  11.657 -0.7253  0.2312 -0.1254
 2582TIP3    H129161   0.669   0.135  11.623  1.7303 -0.0400  2.6898
 2582TIP3    H229162   0.536   0.103  11.689 -0.0307  1.4920  0.0675
 2583TIP3   OH229163   0.398   3.361  14.498 -0.1405  0.2200 -0.3236
 2583TIP3    H129164   0.368   3.320  14.416 -1.2699  0.5606 -0.0923
 2583TIP3    H229165   0.477   3.313  14.521 -1.4861 -1.9602  0.0064
 2584TIP3   OH229166   3.721   6.731   5.675 -0.1191  0.1015 -0.3179
 2584TIP3    H129167   3.730   6.756   5.767 -0.4309 -0.2920 -0.1737
 2584TIP3    H229168   3.733   6.812   5.626 -1.8409  0.7041  0.1704
 2585TIP3   OH229169   5.296   6.025   1.185 -0.2915  0.5031 -0.1417
 2585TIP3    H129170   5.213   6.068   1.165 -0.3655 -0.1207 -1.2095
 2585TIP3    H229171   5.279   5.932   1.174  0.1080  0.2207  1.2986
 2586TIP3   OH229172   0.854   3.325   3.566 -0.2093  0.1751 -0.4469
 2586TIP3    H129173   0.782   3.303   3.508 -0.0340  2.2272 -1.5516
 2586TIP3    H229174   0.827   3.294   3.652 -1.8394 -0.1967 -1.0688
 2587TIP3   OH229175   5.752   1.554   1.487  0.1464 -0.2069  1.0318
 2587TIP3    H129176   5.825   1.586   1.539 -0.1579 -1.1856  2.0805
 2587TIP3    H229177   5.722   1.476   1.532 -1.2511 -0.0926  0.3543
 2588TIP3   OH229178   4.240   5.464   6.456 -0.2275 -0.1624 -0.2863
 2588TIP3    H129179   4.314   5.412   6.426  1.3222  1.8885 -0.2914
 2588TIP3    H229180   4.181   5.401   6.498  0.4032 -2.1958 -2.2696
 2589TIP3   OH229181   0.758   2.317   0.630  0.2964  0.2588 -0.3145
 2589TIP3    H129182   0.701   2.322   0.553 -0.0650  2.9723  0.0353
 2589TIP3    H229183   0.702   2.338   0.704  0.6540 -2.2695  0.7614
 2590TIP3   OH229184   0.388   1.707  14.422  0.3311  0.1212  0.1347
 2590TIP3    H129185   0.439   1.768  14.369 -1.1027  1.9044  0.7244
 2590TIP3    H229186   0.451   1.638  14.445  1.6851  0.6937 -1.5710
 2591TIP3   OH229187   3.825   6.256  15.853 -0.3639 -0.0468  0.0863
 2591TIP3    H129188   3.735   6.278  15.873 -0.4050  0.3650 -0.5131
 2591TIP3    H229189   3.833   6.162  15.872 -1.0716 -0.2086 -0.4035
 2592TIP3   OH229190   6.048   2.892  16.854  0.7697  0.6364 -0.1286
 2592TIP3    H129191   5.982   2.847  16.907  0.5449  1.4033  0.2515
 2592TIP3    H229192   6.020   2.875  16.763  1.1244 -0.6215 -0.0229
 2593TIP3   OH229193   0.805   1.593  13.480 -0.3453  0.5540  0.0120
 2593TIP3    H129194   0.873   1.586  13.547  0.7168  2.4229 -0.7857
 2593TIP3    H229195   0.812   1.683  13.447 -2.1163  0.2979 -1.2693
 2594TIP3   OH229196   5.924   5.311  13.197 -0.1113 -0.1257 -0.1396
 2594TIP3    H129197   5.995   5.350  13.145  0.7662 -0.6121  0.6627
 2594TIP3    H229198   5.959   5.227  13.225 -2.1002 -1.7259 -2.1342
 2595TIP3   OH229199   3.185   4.007  12.878 -0.1968  0.0779 -0.7147
 2595TIP3    H129200   3.138   4.003  12.795 -0.8438 -1.5670 -0.3024
 2595TIP3    H229201   3.246   3.934  12.875  1.7549  1.6230 -0.8486
 2596TIP3   OH229202   0.205   2.172  16.189  0.1135 -0.3561  0.7851
 2596TIP3    H129203   0.288   2.220  16.200  0.0362  0.5529 -1.9670
 2596TIP3    H229204   0.160   2.218  16.119 -3.1039 -0.4181  2.6287
 2597TIP3   OH229205   4.620   0.130   1.105 -0.2120 -0.7630  0.0363
 2597TIP3    H129206   4.709   0.121   1.071  0.3873 -0.8041  1.5477
 2597TIP3    H229207   4.627   0.104   1.197 -1.6835 -0.2530  0.3155
 2598TIP3   OH229208   0.898   2.234   4.937  0.0098  0.7932 -0.0677
 2598TIP3    H129209   0.832   2.303   4.943  0.7267  1.5843 -0.8327
 2598TIP3    H229210   0.959   2.266   4.870  0.7310 -0.2779  0.0554
 2599TIP3   OH229211   4.360   5.068   1.897 -0.6473 -0.3412  0.1407
 2599TIP3    H129212   4.306   5.147   1.903  0.1603  0.1998  0.4130
 2599TIP3    H229213   4.299   4.996   1.914 -1.3987  0.2161 -0.1622
 2600TIP3   OH229214   0.510   3.669   4.055  0.0808  0.6395 -0.5996
 2600TIP3    H129215   0.540   3.720   4.130 -1.7053 -0.4974  0.9915
 2600TIP3    H229216   0.554   3.584   4.064 -0.4777  0.3470 -0.5669
 2601TIP3   OH229217   5.867   2.232  11.360 -0.3248 -0.1030 -0.3521
 2601TIP3    H129218   5.861   2.198  11.271  1.4069 -0.9561 -0.1873
 2601TIP3    H229219   5.942   2.291  11.358 -0.5618  0.2436  0.4428
 2602TIP3   OH229220   0.786   0.754  12.621  0.1348 -0.6462  0.3753
 2602TIP3    H129221   0.700   0.735  12.585  0.0942  0.3327 -0.0708
 2602TIP3    H229222   0.797   0.690  12.691 -0.8731 -0.9004  0.3169
 2603TIP3   OH229223   2.522   3.761  11.898 -0.0964 -0.2537  0.6046
 2603TIP3    H129224   2.461   3.835  11.905  4.0804  3.7558 -0.4989
 2603TIP3    H229225   2.509   3.728  11.809 -1.8126 -0.8394  1.0153
 2604TIP3   OH229226   3.054   4.611  16.996  0.3148 -0.4877 -0.6277
 2604TIP3    H129227   3.083   4.561  16.920  1.5854 -1.8009  0.6387
 2604TIP3    H229228   3.054   4.547  17.068  0.7095  1.0340  0.7977
 2605TIP3   OH229229   0.282   0.629  11.083 -0.8517 -0.1652  0.2463
 2605TIP3    H129230   0.209   0.619  11.022  0.6062 -1.9830 -1.3361
 2605TIP3    H229231   0.358   0.594  11.036  1.1456  1.9073  1.6860
 2606TIP3   OH229232   1.544   6.551   4.387 -0.9565  0.3072 -0.4917
 2606TIP3    H129233   1.539   6.467   4.432 -2.3156  1.3037  1.3288
 2606TIP3    H229234   1.614   6.540   4.323 -0.9987 -2.1433 -0.2015
 2607TIP3   OH229235   6.506   1.857   5.687 -0.4205 -0.5564 -0.2789
 2607TIP3    H129236   6.589   1.873   5.732  0.8824 -0.9229 -2.4126
 2607TIP3    H229237   6.439   1.882   5.751  1.2745  4.3047 -0.0196
 2608TIP3   OH229238   1.809   6.644   5.694 -0.1855 -0.5226 -0.3187
 2608TIP3    H129239   1.862   6.586   5.748 -2.4403 -1.3010  1.2332
 2608TIP3    H229240   1.766   6.585   5.631 -1.1464 -0.3236  0.1273
 2609TIP3   OH229241   2.966   4.070   1.061  0.4764 -0.0453 -0.1447
 2609TIP3    H129242   2.937   4.125   0.988  0.1415 -1.0912 -0.8297
 2609TIP3    H229243   2.904   4.090   1.131 -0.1560 -0.1392 -0.6568
 2610TIP3   OH229244   5.642   3.377   5.432  0.0852 -0.2172  0.1845
 2610TIP3    H129245   5.637   3.296   5.483 -2.2012 -0.2367  0.0516
 2610TIP3    H229246   5.645   3.446   5.498 -0.0721 -0.3476  0.3298
 2611TIP3   OH229247   0.835   1.042   5.673 -0.0806 -0.0509 -0.2408
 2611TIP3    H129248   0.772   1.000   5.614  1.6903  0.5412 -2.6704
 2611TIP3    H229249   0.851   1.128   5.636  2.1192 -0.1573  0.2963
 2612TIP3   OH229250   6.009   2.590   1.998  0.2427 -0.7062  0.8164
 2612TIP3    H129251   6.087   2.637   2.028  0.9564 -1.7856  0.7184
 2612TIP3    H229252   5.939   2.655   2.001  1.3820  0.6189 -0.2494
 2613TIP3   OH229253   1.354   4.296  13.943 -0.5210  0.5535 -0.0002
 2613TIP3    H129254   1.285   4.230  13.948  0.9454 -1.0390  0.3656
 2613TIP3    H229255   1.352   4.339  14.028  0.3039 -1.0087  0.8668
 2614TIP3   OH229256   2.052   2.537  10.754 -0.2381 -0.0484  0.4109
 2614TIP3    H129257   2.145   2.515  10.749 -0.1219  0.3449  0.7245
 2614TIP3    H229258   2.007   2.462  10.717  0.0755 -1.4055  2.6077
 2615TIP3   OH229259   2.784   2.995   1.110 -0.0791 -0.3691  0.1648
 2615TIP3    H129260   2.751   3.075   1.151 -1.2367 -0.6792 -0.1320
 2615TIP3    H229261   2.706   2.950   1.078  0.5406 -1.6764  0.4190
 2616TIP3   OH229262   1.280   0.780   1.239 -0.2627 -0.3263  0.1637
 2616TIP3    H129263   1.298   0.865   1.199 -1.2627 -0.1359  0.0873
 2616TIP3    H229264   1.327   0.783   1.322  2.2767 -0.9163 -1.1226
 2617TIP3   OH229265   1.828   3.949  16.505 -0.3678 -0.6106  0.1167
 2617TIP3    H129266   1.890   3.895  16.457 -1.0696 -1.0994 -0.2544
 2617TIP3    H229267   1.753   3.957  16.446 -1.6478 -2.0163  1.4812
 2618TIP3   OH229268   6.318   2.712   1.788 -0.1212 -0.3061 -0.0439
 2618TIP3    H129269   6.257   2.642   1.766  0.5898 -0.7901 -0.5462
 2618TIP3    H229270   6.349   2.744   1.703 -0.1123  0.3290  0.1892
 2619TIP3   OH229271   5.676   5.068   0.621  0.3763 -0.3646  0.1364
 2619TIP3    H129272   5.729   5.039   0.695  1.5089 -0.6384 -0.7537
 2619TIP3    H229273   5.701   5.010   0.549 -1.7945 -1.0986 -0.1216
 2620TIP3   OH229274   0.448   0.907  14.861  0.3390  0.1130 -0.0103
 2620TIP3    H129275   0.511   0.868  14.921  1.0402 -0.1446 -0.8808
 2620TIP3    H229276   0.432   0.994  14.896 -0.2000 -0.4562  1.2075
 2621TIP3   OH229277   2.514   5.531   2.239 -0.1016 -0.2924 -0.1925
 2621TIP3    H129278   2.420   5.530   2.260 -0.0251  1.1358  0.3166
 2621TIP3    H229279   2.517   5.558   2.148 -0.1488  1.2280  0.2325
 2622TIP3   OH229280   0.160   1.213  16.225  0.2049  0.6851  0.1633
 2622TIP3    H129281   0.109   1.293  16.244 -0.3700  1.0105 -2.3703
 2622TIP3    H229282   0.248   1.233  16.257 -0.2786  1.7474  0.9131
 2623TIP3   OH229283   0.900   3.322   5.610  0.3231 -0.1572 -0.0457
 2623TIP3    H129284   0.824   3.368   5.645 -0.6833 -1.4060 -0.4786
 2623TIP3    H229285   0.975   3.377   5.632 -0.7458  1.3179  0.0338
 2624TIP3   OH229286   5.529   3.226  16.719  0.1402 -0.1890 -0.3463
 2624TIP3    H129287   5.585   3.287  16.671  1.1971 -1.2235 -0.4512
 2624TIP3    H229288   5.440   3.254  16.696  0.6062  0.5007 -1.4208
 2625TIP3   OH229289   3.454   2.954  16.620  0.6259 -0.5126 -0.2207
 2625TIP3    H129290   3.443   2.864  16.653  1.1330 -0.4942 -0.0001
 2625TIP3    H229291   3.548   2.963  16.606  0.7214  0.3890  0.9041
 2626TIP3   OH229292   3.119   2.293  16.120 -0.2196  0.1473  0.5119
 2626TIP3    H129293   3.060   2.244  16.062 -1.1885  0.2338  1.3846
 2626TIP3    H229294   3.150   2.366  16.067 -2.2249  1.0596  0.4922
 2627TIP3   OH229295   6.685   1.448   2.037 -0.5473 -0.6883 -0.1669
 2627TIP3    H129296   6.660   1.528   2.083  0.8437 -0.6196  0.5390
 2627TIP3    H229297   6.780   1.443   2.048 -0.6232 -2.5431 -0.0007
 2628TIP3   OH229298   4.546   0.841  16.331 -0.5219 -0.3867  0.3331
 2628TIP3    H129299   4.597   0.885  16.399 -0.2954 -0.3936  0.1677
 2628TIP3    H229300   4.555   0.897  16.254  0.8884 -1.4036 -0.2832
 2629TIP3   OH229301   5.958   4.005   1.058  0.1677 -0.3361  0.5705
 2629TIP3    H129302   5.864   4.018   1.051  0.2195 -0.4086 -0.3858
 2629TIP3    H229303   5.969   3.958   1.141 -0.7314 -1.1566  0.2487
 2630TIP3   OH229304   6.609   6.125   4.213 -0.0267  0.3298  0.4228
 2630TIP3    H129305   6.615   6.050   4.153  1.2077  1.2528 -0.6448
 2630TIP3    H229306   6.515   6.142   4.220 -0.1806  1.6107 -3.0978
 2631TIP3   OH229307   0.294   4.260   3.722 -0.1507  0.2680 -0.1100
 2631TIP3    H129308   0.348   4.333   3.694 -0.1356  0.1864 -0.2939
 2631TIP3    H229309   0.222   4.257   3.660 -0.1345  0.1074 -0.1235
 2632TIP3   OH229310   4.424   3.313  13.761  0.0054  0.5746 -0.3480
 2632TIP3    H129311   4.337   3.325  13.725  0.7596  1.9023 -1.8427
 2632TIP3    H229312   4.427   3.370  13.838  0.3405  2.5753 -1.7684
 2633TIP3   OH229313   0.125   3.704  16.236 -0.7206  0.7928  0.3182
 2633TIP3    H129314   0.069   3.761  16.289 -0.1664  1.9581 -0.3263
 2633TIP3    H229315   0.107   3.729  16.146  0.1040  0.4848  0.0624
 2634TIP3   OH229316   4.912   3.770  11.977 -0.3675 -0.4194 -0.5666
 2634TIP3    H129317   4.930   3.767  11.884  0.4351 -3.5016 -0.4278
 2634TIP3    H229318   4.991   3.807  12.017 -0.1460 -0.4422 -0.9877
 2635TIP3   OH229319   5.452   4.876  11.668 -0.4607  0.3772  0.8325
 2635TIP3    H129320   5.539   4.845  11.644 -0.6609  1.4100 -1.5599
 2635TIP3    H229321   5.459   4.971  11.665 -1.5534  0.4796  1.0540
 2636TIP3   OH229322   5.208   1.070   2.712 -0.1600 -0.2141 -0.6192
 2636TIP3    H129323   5.115   1.092   2.721 -0.6304 -2.8236  5.9652
 2636TIP3    H229324   5.209   1.002   2.645 -2.7909  0.4527 -1.4700
 2637TIP3   OH229325   2.310   1.206   5.512  0.4757  0.0987  0.8898
 2637TIP3    H129326   2.317   1.116   5.479  0.7190  0.2292  0.5820
 2637TIP3    H229327   2.223   1.210   5.552 -0.8332  0.5909 -1.7892
 2638TIP3   OH229328   2.268   6.467  13.024  0.0116 -0.1159  0.1146
 2638TIP3    H129329   2.308   6.549  13.055 -1.7401 -0.1653  2.9092
 2638TIP3    H229330   2.334   6.400  13.041 -0.2446  0.1193  2.4104
 2639TIP3   OH229331   0.397   4.535  16.077 -0.4166 -0.7957  0.0977
 2639TIP3    H129332   0.433   4.491  16.000  1.1586  0.7309 -0.0944
 2639TIP3    H229333   0.467   4.592  16.108 -1.6096 -0.0712  1.6441
 2640TIP3   OH229334   1.867   1.498  14.732  0.1893  0.5218 -0.4015
 2640TIP3    H129335   1.885   1.453  14.650 -2.3398 -0.9860 -0.2291
 2640TIP3    H229336   1.842   1.429  14.793  1.5507  1.6412  1.5642
 2641TIP3   OH229337   1.295   1.259   4.600 -0.0594 -0.3547 -0.1460
 2641TIP3    H129338   1.330   1.334   4.552  2.5066 -1.3512  0.0446
 2641TIP3    H229339   1.269   1.296   4.685 -0.1447  0.5544 -0.5496
 2642TIP3   OH229340   1.850   4.270   5.579  0.4773  0.5022 -0.4655
 2642TIP3    H129341   1.851   4.356   5.621 -1.2721  0.8943 -1.1578
 2642TIP3    H229342   1.853   4.208   5.652 -1.1573  1.1681  0.2210
 2643TIP3   OH229343   4.429   3.747  12.205  0.6193 -0.0220  0.4629
 2643TIP3    H129344   4.464   3.681  12.145  1.0287  0.2297  0.4163
 2643TIP3    H229345   4.491   3.820  12.198 -1.5947  1.8144 -2.1178
 2644TIP3   OH229346   2.236   6.610  15.117 -0.5861  0.2842 -0.0053
 2644TIP3    H129347   2.186   6.552  15.060 -2.1401  1.4879  0.0516
 2644TIP3    H229348   2.238   6.565  15.202 -1.9700  0.3630  0.1032
 2645TIP3   OH229349   5.172   5.262   4.157 -0.0024  0.2383 -0.3522
 2645TIP3    H129350   5.229   5.339   4.163  0.4583 -0.1504  0.7922
 2645TIP3    H229351   5.127   5.259   4.242 -1.4113  0.2759 -1.0721
 2646TIP3   OH229352   3.505   5.815   1.284 -0.3115 -0.4851  0.1019
 2646TIP3    H129353   3.477   5.850   1.369 -1.7963 -0.2030 -0.4757
 2646TIP3    H229354   3.591   5.854   1.269 -0.6495  0.5872  0.8309
 2647TIP3   OH229355   0.725   4.252  16.482 -1.1541 -0.3646  0.5463
 2647TIP3    H129356   0.698   4.336  16.519 -1.7059  1.2106 -3.0606
 2647TIP3    H229357   0.806   4.271  16.435 -1.9405 -1.4634 -1.3806
 2648TIP3   OH229358   4.076   1.127   5.402 -0.4608 -0.7202 -0.3033
 2648TIP3    H129359   4.073   1.034   5.378 -0.7750 -0.5500 -0.9454
 2648TIP3    H229360   4.159   1.157   5.365  0.1618 -0.9872  0.8406
 2649TIP3   OH229361   3.844   0.378  15.231 -0.0863 -0.7986 -0.9333
 2649TIP3    H129362   3.803   0.401  15.147  0.5493 -1.2894 -1.3822
 2649TIP3    H229363   3.934   0.355  15.209  0.2269 -0.4504 -0.0446
 2650TIP3   OH229364   4.935   1.158  13.980  0.4590  0.4506 -0.3556
 2650TIP3    H129365   4.857   1.119  13.940 -0.1075  0.7464  0.4491
 2650TIP3    H229366   4.909   1.247  14.002  0.3418 -0.0812  1.8429
 2651TIP3   OH229367   2.520   6.055   3.708 -0.2268 -0.1067  0.5424
 2651TIP3    H129368   2.559   5.994   3.645 -1.4024 -0.8825  0.5271
 2651TIP3    H229369   2.428   6.060   3.682 -0.6797 -0.2272  2.0242
 2652TIP3   OH229370   3.046   5.469  16.283  0.1709  0.2295  0.2202
 2652TIP3    H129371   3.093   5.549  16.258  0.3780 -0.2562 -1.0326
 2652TIP3    H229372   3.097   5.398  16.244 -0.2829 -0.4835  0.8990
 2653TIP3   OH229373   5.892   3.151   5.833 -0.3538  0.3839  0.2868
 2653TIP3    H129374   5.955   3.221   5.853  0.8669  0.1606 -2.3617
 2653TIP3    H229375   5.884   3.102   5.914  1.6592  1.3917  1.1556
 2654TIP3   OH229376   4.796   2.305  16.719 -0.0360  0.4028  0.5539
 2654TIP3    H129377   4.846   2.365  16.663  0.6892  0.2736  1.0487
 2654TIP3    H229378   4.780   2.355  16.799  0.1678  0.0924  0.7880
 2655TIP3   OH229379   2.633   4.090   6.005  0.3211 -0.3747 -0.3370
 2655TIP3    H129380   2.683   4.025   6.056 -1.7205 -1.1881  0.7444
 2655TIP3    H229381   2.621   4.163   6.066 -0.3348 -0.4552 -0.3699
 2656TIP3   OH229382   6.419   6.615   0.790 -0.0376 -0.6801  0.4102
 2656TIP3    H129383   6.491   6.568   0.749  0.0672 -1.7018  1.7145
 2656TIP3    H229384   6.345   6.602   0.731  0.3234 -1.3687  0.0998
 2657TIP3   OH229385   1.492   0.897   4.107  0.1652  0.0626 -0.5054
 2657TIP3    H129386   1.535   0.974   4.145  0.9664 -1.1475  1.1464
 2657TIP3    H229387   1.558   0.828   4.110 -1.2788 -1.3599  0.4227
 2658TIP3   OH229388   1.877   2.556   3.785 -0.2139 -0.0773 -0.2564
 2658TIP3    H129389   1.861   2.496   3.858 -0.5048  0.8516  0.4699
 2658TIP3    H229390   1.793   2.601   3.773 -0.3918 -0.7285 -1.6646
 2659TIP3   OH229391   4.746   1.594  14.729 -0.1456 -0.2302 -0.4150
 2659TIP3    H129392   4.684   1.521  14.721 -0.5709  0.1732 -0.8188
 2659TIP3    H229393   4.729   1.631  14.815 -2.3462  1.5534 -1.5120
 2660TIP3   OH229394   2.525   2.794   1.080  0.2452 -0.8215  0.2130
 2660TIP3    H129395   2.488   2.882   1.077 -2.5687 -1.9278 -0.7325
 2660TIP3    H229396   2.478   2.751   1.152 -0.2465 -2.2611 -0.9223
 2661TIP3   OH229397   6.562   1.815  13.022 -0.5495  0.0850 -0.0495
 2661TIP3    H129398   6.497   1.788  13.088 -0.6135  0.7729  0.1795
 2661TIP3    H229399   6.598   1.897  13.057 -0.0118  0.0365 -0.4882
 2662TIP3   OH229400   0.294   0.808   4.981  0.4136  0.2208  0.4183
 2662TIP3    H129401   0.244   0.727   4.981 -0.4172  0.7165  1.6668
 2662TIP3    H229402   0.234   0.874   5.015  2.0259  0.7538  2.4220
 2663TIP3   OH229403   0.396   2.081   4.817  0.0576  0.2457  0.0269
 2663TIP3    H129404   0.470   2.130   4.780  0.5034  0.5213  1.2222
 2663TIP3    H229405   0.431   1.993   4.832 -0.7738 -0.5284 -2.2172
 2664TIP3   OH229406   2.397   2.189  15.419  0.0224  0.2145  0.5382
 2664TIP3    H129407   2.479   2.227  15.386 -0.7918  2.0742  0.5140
 2664TIP3    H229408   2.342   2.181  15.341 -0.2993  0.2879  0.7590
 2665TIP3   OH229409   2.397   2.262   6.745  0.0291  0.0606  0.3659
 2665TIP3    H129410   2.477   2.233   6.789 -0.1641  0.7073  1.1670
 2665TIP3    H229411   2.382   2.351   6.777  0.7114  1.1671 -2.1859
 2666TIP3   OH229412   4.074   4.693  14.229 -0.1936 -0.0436  0.5469
 2666TIP3    H129413   4.168   4.690  14.211 -0.3590  0.7354 -0.5864
 2666TIP3    H229414   4.066   4.752  14.304  0.0876  1.5087 -0.6049
 2667TIP3   OH229415   1.677   6.389   3.115 -0.2309 -0.2841 -0.0038
 2667TIP3    H129416   1.742   6.453   3.144 -1.5515  0.8902  0.4747
 2667TIP3    H229417   1.601   6.405   3.170 -2.1527  0.6913 -2.7328
 2668TIP3   OH229418   4.673   5.550  12.004  0.9464 -0.5878  0.5391
 2668TIP3    H129419   4.657   5.463  11.967  2.5469 -1.2919  1.3890
 2668TIP3    H229420   4.591   5.574  12.046  0.3178 -1.4592 -0.1462
 2669TIP3   OH229421   0.733   2.477   5.211  0.1332 -0.3237  0.1575
 2669TIP3    H129422   0.711   2.412   5.145 -0.4440  0.3247 -0.3012
 2669TIP3    H229423   0.655   2.481   5.267 -0.2538  0.7037 -0.4275
 2670TIP3   OH229424   1.027   4.523   3.005  0.0164 -0.3120 -0.0367
 2670TIP3    H129425   1.032   4.519   2.910 -0.9726 -0.3301 -0.0977
 2670TIP3    H229426   1.016   4.617   3.024 -1.0283 -0.4164 -0.0316
 2671TIP3   OH229427   1.491   2.170  14.153  0.2222 -0.5499 -0.0562
 2671TIP3    H129428   1.568   2.118  14.175  0.4397 -0.3198 -0.2554
 2671TIP3    H229429   1.505   2.254  14.196  0.0045 -0.5620  0.0402
 2672TIP3   OH229430   3.747   4.466  11.849 -0.6150  0.2632 -0.2358
 2672TIP3    H129431   3.744   4.489  11.756  2.1807  2.5690  0.0757
 2672TIP3    H229432   3.763   4.372  11.850 -2.2379 -0.0907 -2.0052
 2673TIP3   OH229433   4.244   3.410  16.732  0.5216  0.6713 -0.1195
 2673TIP3    H129434   4.262   3.484  16.674  2.1825 -0.2535 -0.8288
 2673TIP3    H229435   4.329   3.387  16.769  0.3327 -1.8734 -1.1188
 2674TIP3   OH229436   2.064   4.380  14.978 -0.7731  0.0250  0.0988
 2674TIP3    H129437   2.014   4.315  15.027 -0.5090 -0.4226 -0.2135
 2674TIP3    H229438   2.033   4.371  14.888 -1.4580  1.0386  0.2196
 2675TIP3   OH229439   6.399   6.718   5.876 -0.0215 -0.6328  0.0018
 2675TIP3    H129440   6.464   6.648   5.875  1.9197  1.0667  0.9152
 2675TIP3    H229441   6.432   6.781   5.939 -1.2141  1.5451 -1.4106
 2676TIP3   OH229442   6.320   4.530  11.581 -0.1563 -0.2052 -0.1387
 2676TIP3    H129443   6.241   4.511  11.530 -0.2293  0.7088 -0.3804
 2676TIP3    H229444   6.392   4.509  11.523 -0.2376  1.2122 -0.7954
 2677TIP3   OH229445   0.779   6.320  15.272  0.1925  0.1710  0.4106
 2677TIP3    H129446   0.789   6.246  15.213  1.9083  0.1299  0.6933
 2677TIP3    H229447   0.787   6.282  15.360  2.3474  0.7667  0.5480
 2678TIP3   OH229448   0.997   4.637  14.413 -0.1849 -0.0429  0.1206
 2678TIP3    H129449   1.062   4.700  14.381 -1.2857  1.5631  0.9449
 2678TIP3    H229450   1.037   4.551  14.395  1.3917  0.8597 -0.9592
 2679TIP3   OH229451   1.522   3.623  12.211 -0.0390  0.3372 -0.0427
 2679TIP3    H129452   1.618   3.621  12.215  0.1033  2.1894  4.5213
 2679TIP3    H229453   1.502   3.697  12.153  1.5258  1.9025  1.2728
 2680TIP3   OH229454   4.290   2.361   5.589 -0.1984  0.3915 -0.2675
 2680TIP3    H129455   4.246   2.446   5.591  1.2525  1.2138 -1.4695
 2680TIP3    H229456   4.253   2.316   5.513 -1.0948 -0.1542  0.4705
 2681TIP3   OH229457   0.198   5.909   0.193  0.0733  0.2403  0.0302
 2681TIP3    H129458   0.106   5.924   0.172 -1.4936 -1.6431  4.4425
 2681TIP3    H229459   0.226   5.990   0.237  0.2690  0.4586 -0.4869
 2682TIP3   OH229460   1.249   6.602  15.344  0.4139  0.2342  0.3337
 2682TIP3    H129461   1.160   6.594  15.309  0.2679  0.0719  0.7268
 2682TIP3    H229462   1.263   6.696  15.351  0.4835  0.2678 -0.2507
 2683TIP3   OH229463   3.958   1.166  15.390  0.2588 -0.5075 -0.5509
 2683TIP3    H129464   3.950   1.239  15.452 -0.6659 -1.9114  1.0796
 2683TIP3    H229465   3.931   1.203  15.306 -1.9125  0.6013  0.5586
 2684TIP3   OH229466   0.162   0.642  12.434 -0.0221 -0.0306 -0.5265
 2684TIP3    H129467   0.124   0.555  12.421  1.8062 -0.9525  0.0863
 2684TIP3    H229468   0.243   0.642  12.383 -1.2058  2.2723 -2.6811
 2685TIP3   OH229469   3.629   6.023   4.574 -0.0269  0.0072  0.3469
 2685TIP3    H129470   3.631   6.104   4.625 -3.5076  0.9823 -0.7500
 2685TIP3    H229471   3.666   6.048   4.489 -1.1385  0.5276 -0.0060
 2686TIP3   OH229472   1.417   2.718  14.728 -0.6566 -0.1367 -0.3560
 2686TIP3    H129473   1.365   2.648  14.688 -1.5029 -0.0104  0.4974
 2686TIP3    H229474   1.383   2.725  14.817  0.7677  0.0190  0.1971
 2687TIP3   OH229475   3.043   6.734   2.891  0.3205 -0.0058  0.3750
 2687TIP3    H129476   3.073   6.686   2.968 -0.2850 -1.4529 -0.2444
 2687TIP3    H229477   2.984   6.801   2.926  3.6449  2.5321  1.5577
 2688TIP3   OH229478   6.363   5.843  12.172 -0.2141 -0.5521  0.0454
 2688TIP3    H129479   6.334   5.759  12.208  0.2562 -0.7588 -0.0458
 2688TIP3    H229480   6.341   5.838  12.079  0.8696 -1.0574 -0.1960
 2689TIP3   OH229481   0.183   6.447   1.682  0.4328 -0.2083  0.2465
 2689TIP3    H129482   0.160   6.505   1.610  0.0785  3.0230  2.7608
 2689TIP3    H229483   0.112   6.383   1.684 -0.2973  0.4855 -1.3570
 2690TIP3   OH229484   2.438   3.553  15.133 -0.7821 -0.1750  0.3774
 2690TIP3    H129485   2.525   3.541  15.096 -0.8347  0.7057 -0.0583
 2690TIP3    H229486   2.389   3.476  15.105 -1.3123  1.1940 -2.8549
 2691TIP3   OH229487   4.817   3.124   2.969 -0.2464  0.2978 -0.2815
 2691TIP3    H129488   4.766   3.169   3.036  0.0139  0.3826 -0.1386
 2691TIP3    H229489   4.836   3.038   3.006  1.0857  0.8338  0.3451
 2692TIP3   OH229490   6.446   1.241  13.524  0.0647 -0.4253 -0.1592
 2692TIP3    H129491   6.422   1.328  13.491 -0.0627 -0.3540  0.1128
 2692TIP3    H229492   6.498   1.259  13.603  1.3487 -0.5715 -0.9403
 2693TIP3   OH229493   5.467   1.290  16.596 -0.3922  0.1929 -0.5684
 2693TIP3    H129494   5.539   1.351  16.613 -0.2364 -0.0059 -0.5067
 2693TIP3    H229495   5.449   1.251  16.681  1.7461 -2.3130 -1.1180
 2694TIP3   OH229496   4.261   4.250  15.020  0.4402  0.7468 -0.4249
 2694TIP3    H129497   4.343   4.294  14.995  0.7354  0.7274  0.5007
 2694TIP3    H229498   4.284   4.197  15.096 -0.7242  1.7327  0.6399
 2695TIP3   OH229499   3.067   4.774  12.271  0.0899 -0.2768 -0.0493
 2695TIP3    H129500   3.054   4.679  12.280  0.7264 -0.4195 -0.6138
 2695TIP3    H229501   3.017   4.811  12.344  0.2921 -1.0778  0.5120
 2696TIP3   OH229502   5.811   6.279   5.593  0.1618  0.0551 -0.1263
 2696TIP3    H129503   5.719   6.251   5.593 -0.4276  1.8078  1.0404
 2696TIP3    H229504   5.835   6.284   5.501 -1.3260  0.7973 -0.4953
 2697TIP3   OH229505   1.925   1.054  12.751 -0.4523  0.3405 -0.3914
 2697TIP3    H129506   1.984   1.129  12.749  0.3664 -0.2890 -0.5295
 2697TIP3    H229507   1.930   1.021  12.840 -2.2963  1.5633  0.2275
 2698TIP3   OH229508   5.389   2.569   3.568  0.7754 -0.2819 -0.2177
 2698TIP3    H129509   5.454   2.625   3.526  1.2232  0.0637  0.9039
 2698TIP3    H229510   5.326   2.549   3.498  0.6296  1.5736 -0.6732
 2699TIP3   OH229511   4.904   5.628   3.707 -0.0662 -0.1777 -0.4414
 2699TIP3    H129512   4.813   5.638   3.678 -0.0547  0.5859 -0.2411
 2699TIP3    H229513   4.907   5.541   3.747 -0.8853  0.0678  0.1882
 2700TIP3   OH229514   4.459   2.316   6.397  0.3229  0.1842 -0.1348
 2700TIP3    H129515   4.487   2.367   6.472  0.6563  2.1946 -1.5429
 2700TIP3    H229516   4.384   2.265   6.428  0.2725  1.1786  1.4528
 2701TIP3   OH229517   4.324   0.583  17.253  0.0725  0.1665 -0.1982
 2701TIP3    H129518   4.389   0.548  17.192  0.2446  2.7871 -1.7082
 2701TIP3    H229519   4.371   0.593  17.335  0.2556 -2.0788  0.0260
 2702TIP3   OH229520   0.663   6.201  11.418 -0.1966 -0.1845 -0.6735
 2702TIP3    H129521   0.621   6.158  11.343 -0.7883 -0.9231  0.0616
 2702TIP3    H229522   0.694   6.129  11.472 -2.2324  0.2308  1.1664
 2703TIP3   OH229523   5.869   6.312   5.297 -0.5723  0.3842  0.1270
 2703TIP3    H129524   5.889   6.398   5.260 -1.2474  0.4588 -0.0946
 2703TIP3    H229525   5.798   6.279   5.242 -0.4098 -0.2586  0.2940
 2704TIP3   OH229526   4.957   0.759  15.631  0.2583 -0.2303 -0.1369
 2704TIP3    H129527   5.025   0.706  15.591  0.3070  0.5006 -1.0664
 2704TIP3    H229528   4.959   0.736  15.724  0.7261 -1.3374 -0.4078
 2705TIP3   OH229529   0.365   2.389   2.313  0.1839  0.3754  0.1482
 2705TIP3    H129530   0.294   2.338   2.352  0.4976  1.1301  1.7832
 2705TIP3    H229531   0.323   2.435   2.241 -0.8098  0.1756  0.5653
 2706TIP3   OH229532   0.726   3.224   2.943 -0.2525 -0.6871  0.2105
 2706TIP3    H129533   0.640   3.252   2.975  0.3343 -0.8669  2.0432
 2706TIP3    H229534   0.706   3.161   2.873 -1.6172 -0.8776  0.7356
 2707TIP3   OH229535   1.849   5.533  14.581 -0.4476  0.1589 -0.0539
 2707TIP3    H129536   1.879   5.533  14.672  0.6385 -1.1720 -0.3764
 2707TIP3    H229537   1.771   5.589  14.581  0.0968  0.9782  1.4928
 2708TIP3   OH229538   6.312   0.150  16.317  0.7422  0.1694  0.2399
 2708TIP3    H129539   6.251   0.134  16.245 -1.8120  1.5663  1.8974
 2708TIP3    H229540   6.399   0.140  16.279 -0.4839  0.1621 -2.8176
 2709TIP3   OH229541   6.738   4.787   1.899  0.0094 -0.4218  0.1634
 2709TIP3    H129542   6.775   4.766   1.814  0.4341  2.3110 -0.3915
 2709TIP3    H229543   6.769   4.875   1.919 -1.9860 -0.0489  2.0726
 2710TIP3   OH229544   4.454   3.931  15.775  0.4039 -0.5432  0.4740
 2710TIP3    H129545   4.394   3.921  15.701 -0.2946 -1.0986  1.1038
 2710TIP3    H229546   4.530   3.877  15.753  0.3284 -0.4722  0.0376
 2711TIP3   OH229547   2.029   0.336   2.246 -0.0545  0.5041  0.5539
 2711TIP3    H129548   2.123   0.346   2.261  0.0691 -1.2532  1.1851
 2711TIP3    H229549   2.023   0.271   2.176 -0.8011  2.2256 -1.0693
 2712TIP3   OH229550   2.237   4.393   1.949  0.2120 -0.0285  0.4434
 2712TIP3    H129551   2.305   4.412   1.884  0.1231 -0.9488  0.0643
 2712TIP3    H229552   2.243   4.299   1.963 -2.2656 -0.5272 -1.0906
 2713TIP3   OH229553   1.044   6.405  11.163 -0.2085 -0.0375 -0.3582
 2713TIP3    H129554   0.954   6.371  11.159 -0.9889  1.7686  0.6134
 2713TIP3    H229555   1.064   6.408  11.256  0.6811  0.0958 -0.5447
 2714TIP3   OH229556   2.262   0.974  16.999 -0.2520  0.0084  0.6440
 2714TIP3    H129557   2.168   0.982  17.017 -0.0647  1.3009  1.1086
 2714TIP3    H229558   2.270   0.993  16.906 -0.1091  3.3259  1.2299
 2715TIP3   OH229559   4.840   4.818  14.451  0.7805 -0.3113  0.3197
 2715TIP3    H129560   4.882   4.886  14.503  1.1913 -0.7842  0.6139
 2715TIP3    H229561   4.908   4.753  14.436  0.2164 -0.9905  0.6247
 2716TIP3   OH229562   3.050   1.432   3.500  0.2484 -0.1551 -0.2381
 2716TIP3    H129563   3.116   1.497   3.475  0.4464  0.1882  1.1120
 2716TIP3    H229564   3.099   1.350   3.508  0.1966 -0.2547 -0.8340
 2717TIP3   OH229565   6.186   5.002  13.013  0.2865 -0.5939  0.2988
 2717TIP3    H129566   6.190   4.957  13.098  0.8083 -1.3294 -0.0948
 2717TIP3    H229567   6.253   5.070  13.019  1.1558 -1.3989  0.0846
 2718TIP3   OH229568   5.411   3.628  14.538  0.2187  0.2894 -0.2019
 2718TIP3    H129569   5.472   3.693  14.574  0.8516 -1.0587  1.2689
 2718TIP3    H229570   5.465   3.575  14.479  0.9011 -1.6762  2.0146
 2719TIP3   OH229571   1.585   1.869  10.536 -0.1420  0.1685 -0.0620
 2719TIP3    H129572   1.518   1.834  10.595 -1.0504  0.8556 -0.6508
 2719TIP3    H229573   1.651   1.800  10.530 -0.2690 -0.0967  1.3662
 2720TIP3   OH229574   3.435   3.372   0.363 -0.3421 -0.0795  0.0792
 2720TIP3    H129575   3.374   3.321   0.417 -1.5543 -0.4506 -1.5388
 2720TIP3    H229576   3.428   3.332   0.276  1.2378  0.7430 -0.4647
 2721TIP3   OH229577   1.584   5.977   0.958 -0.1347 -0.5249 -0.2110
 2721TIP3    H129578   1.636   5.931   1.024 -1.9018 -1.3958  0.6290
 2721TIP3    H229579   1.561   6.060   1.001 -1.5089 -1.2032  0.4224
 2722TIP3   OH229580   4.316   5.470  13.761  0.0493 -0.1902  0.8375
 2722TIP3    H129581   4.406   5.438  13.762  0.5529  1.1394  0.6479
 2722TIP3    H229582   4.281   5.445  13.846 -0.0831 -2.4826  0.1686
 2723TIP3   OH229583   0.814   4.304   5.176 -0.1952 -0.1872 -0.3417
 2723TIP3    H129584   0.778   4.265   5.097 -2.2670 -1.3252  1.0799
 2723TIP3    H229585   0.743   4.358   5.211  0.9554  0.9635  0.3567
 2724TIP3   OH229586   0.960   2.392   3.781  0.6528 -0.0590 -0.2310
 2724TIP3    H129587   0.929   2.478   3.809  1.0810 -0.4409  1.5692
 2724TIP3    H229588   0.887   2.355   3.732  1.2137  2.1163 -2.9246
 2725TIP3   OH229589   2.641   2.910  11.420 -0.5033  0.3427 -0.3156
 2725TIP3    H129590   2.569   2.922  11.359 -0.9828 -1.3798 -0.1357
 2725TIP3    H229591   2.602   2.922  11.507 -1.2611 -2.9944 -0.0514
 2726TIP3   OH229592   1.224   2.384  16.653  0.0090  0.3795  0.4155
 2726TIP3    H129593   1.133   2.357  16.650  0.0003  0.4638 -0.0638
 2726TIP3    H229594   1.223   2.476  16.628  0.3551  0.0656 -0.8493
 2727TIP3   OH229595   5.405   3.758   5.682 -0.2117  0.5929  0.2595
 2727TIP3    H129596   5.467   3.694   5.715 -2.1583 -0.5314  1.9724
 2727TIP3    H229597   5.450   3.842   5.691  0.7528 -0.0770  2.3169
 2728TIP3   OH229598   6.466   2.943   3.469  0.2860  0.4900  0.8424
 2728TIP3    H129599   6.472   3.019   3.411  2.3380  1.1059  1.7832
 2728TIP3    H229600   6.533   2.958   3.536 -1.1623 -0.7914  2.6969
 2729TIP3   OH229601   1.033   2.731  16.075  0.0198  0.9700  0.2878
 2729TIP3    H129602   1.125   2.754  16.064 -0.0091  1.1250  0.3656
 2729TIP3    H229603   0.993   2.747  15.990 -0.0655  1.5165  0.4258
 2730TIP3   OH229604   3.316   3.798  11.580  0.0603  0.0492  0.1303
 2730TIP3    H129605   3.339   3.714  11.541  1.1928  0.3663  0.0796
 2730TIP3    H229606   3.221   3.803  11.572  0.1328 -0.5291 -1.2619
 2731TIP3   OH229607   5.710   4.779   1.659  0.0097  0.4663 -0.6688
 2731TIP3    H129608   5.667   4.755   1.577 -0.8501  0.9067 -0.3585
 2731TIP3    H229609   5.679   4.715   1.722 -0.0587  0.6866 -0.4778
 2732TIP3   OH229610   1.973   1.030   1.050 -0.2161 -0.1552  0.0649
 2732TIP3    H129611   1.957   0.951   1.101  0.4555 -0.1641  0.2732
 2732TIP3    H229612   1.889   1.050   1.009 -1.0506  0.3795  1.9049
 2733TIP3   OH229613   3.934   1.864   5.749  0.1699 -0.1338  0.1487
 2733TIP3    H129614   4.010   1.899   5.702 -0.5797 -0.5825 -1.4230
 2733TIP3    H229615   3.858   1.900   5.704 -0.5848 -1.3816  0.3915
 2734TIP3   OH229616   4.152   6.244   4.294 -0.2740  0.0316  0.2447
 2734TIP3    H129617   4.196   6.181   4.351  0.7439  0.8262  0.3718
 2734TIP3    H229618   4.223   6.296   4.256 -1.1184  1.8775  1.0801
 2735TIP3   OH229619   6.470   4.003  12.653 -0.1914 -0.1983  0.3231
 2735TIP3    H129620   6.562   3.985  12.671 -0.6154 -1.9723  0.9292
 2735TIP3    H229621   6.453   3.959  12.569 -0.3313  0.7539 -0.1689
 2736TIP3   OH229622   2.094   5.233   2.059  0.3183  0.0588  0.1996
 2736TIP3    H129623   2.146   5.309   2.032  0.7161 -0.2282  0.1635
 2736TIP3    H229624   2.141   5.197   2.134 -0.5948  0.6450  1.0836
 2737TIP3   OH229625   3.736   2.353  17.240  0.1680  0.2649  0.7269
 2737TIP3    H129626   3.828   2.336  17.218  0.3983  2.7065 -0.4480
 2737TIP3    H229627   3.687   2.318  17.166  0.2217 -0.0869  0.8557
 2738TIP3   OH229628   5.048   0.490  11.622 -0.5062 -0.2281  0.2192
 2738TIP3    H129629   5.120   0.506  11.561  0.0407  0.4613  1.0073
 2738TIP3    H229630   5.023   0.578  11.652 -2.4673 -0.3469 -0.8960
 2739TIP3   OH229631   6.224   0.932  14.415  0.3473 -0.2156  0.2834
 2739TIP3    H129632   6.235   0.960  14.507  1.5754 -3.6938  1.3442
 2739TIP3    H229633   6.241   1.012  14.365  2.7271  1.1937  2.9891
 2740TIP3   OH229634   0.100   5.222   3.932 -0.3848 -0.3176  0.1259
 2740TIP3    H129635   0.168   5.272   3.977  0.9204  0.0514 -2.0949
 2740TIP3    H229636   0.045   5.186   4.002  0.8424  1.1354  1.9092
 2741TIP3   OH229637   5.398   2.797  11.417 -0.2867 -0.1017  0.3213
 2741TIP3    H129638   5.408   2.889  11.442  0.9004 -0.4183  1.1235
 2741TIP3    H229639   5.374   2.799  11.324 -1.9548  1.0448  0.7298
 2742TIP3   OH229640   2.319   4.553   3.347  0.1376 -0.1169 -0.3042
 2742TIP3    H129641   2.323   4.540   3.253 -0.3333  0.4264 -0.4030
 2742TIP3    H229642   2.383   4.622   3.365 -0.8346  0.8501 -0.4388
 2743TIP3   OH229643   3.330   6.347  15.995  0.0472 -0.4972 -0.5246
 2743TIP3    H129644   3.275   6.273  16.020  1.0460 -1.2294 -0.4293
 2743TIP3    H229645   3.288   6.423  16.035 -1.6809 -0.8181 -1.6259
 2744TIP3   OH229646   3.960   3.927  13.379  0.5521 -0.3332 -0.1650
 2744TIP3    H129647   3.922   3.838  13.378  0.0924 -0.1770 -2.5978
 2744TIP3    H229648   3.885   3.984  13.395  0.8076 -0.3259  1.1344
 2745TIP3   OH229649   3.288   0.264  14.157 -0.0192 -0.2777  0.3838
 2745TIP3    H129650   3.264   0.355  14.173  2.1258  0.0796  1.9130
 2745TIP3    H229651   3.208   0.225  14.121 -0.7847  2.3429 -1.0605
 2746TIP3   OH229652   5.700   2.018   4.942  0.2006 -0.1049 -0.6324
 2746TIP3    H129653   5.608   1.990   4.940 -0.6752  2.3232  1.3689
 2746TIP3    H229654   5.705   2.088   4.877  0.5865 -0.0739 -0.5700
 2747TIP3   OH229655   2.308   3.984  16.053  0.8025 -0.0400 -0.3371
 2747TIP3    H129656   2.235   3.933  16.088  0.4565  0.8258  0.2146
 2747TIP3    H229657   2.277   4.014  15.967  1.5603 -1.9559 -1.3338
 2748TIP3   OH229658   6.162   5.648   2.998  0.0362  0.2756 -0.4452
 2748TIP3    H129659   6.236   5.707   2.984  0.4824 -0.1697  0.0038
 2748TIP3    H229660   6.093   5.704   3.035 -0.0164  0.7811 -1.2990
 2749TIP3   OH229661   4.584   5.228  10.994  0.0301 -0.0378 -0.3828
 2749TIP3    H129662   4.530   5.152  11.017  0.0823  0.2716  0.8395
 2749TIP3    H229663   4.572   5.238  10.900 -0.7922 -0.9380 -0.3927
 2750TIP3   OH229664   4.687   3.112  11.377 -0.2127  0.1200 -0.3648
 2750TIP3    H129665   4.726   3.034  11.338  0.7594  0.1810  0.4591
 2750TIP3    H229666   4.659   3.084  11.464 -1.0353  0.3666 -0.5366
 2751TIP3   OH229667   2.201   5.594   3.879 -0.1105  0.0546 -0.4701
 2751TIP3    H129668   2.245   5.521   3.922  0.8211 -0.5242 -2.2649
 2751TIP3    H229669   2.246   5.672   3.911 -1.3891 -0.0753  1.7840
 2752TIP3   OH229670   2.810   6.170   2.264  0.2562 -0.2075  0.3195
 2752TIP3    H129671   2.884   6.157   2.323 -0.3454 -0.3137  1.0703
 2752TIP3    H229672   2.791   6.264   2.271  1.1756  0.0940 -0.9327
 2753TIP3   OH229673   4.345   6.603  12.992  0.7199  0.1389  0.4460
 2753TIP3    H129674   4.389   6.523  12.965 -1.1583 -0.4613 -1.0796
 2753TIP3    H229675   4.406   6.673  12.971  0.9868 -0.6551 -1.6351
 2754TIP3   OH229676   2.021   0.098   4.617  0.0937  0.1810 -0.1608
 2754TIP3    H129677   1.995   0.138   4.700  0.4376  0.8649 -0.3722
 2754TIP3    H229678   1.994   0.007   4.624  1.5413 -0.1832  1.3635
 2755TIP3   OH229679   2.477   3.970  11.620  0.3019  0.2018 -0.0393
 2755TIP3    H129680   2.386   3.992  11.600  0.2383  0.0687  0.1051
 2755TIP3    H229681   2.509   4.045  11.670 -0.2749 -0.5454  1.5202
 2756TIP3   OH229682   4.813   2.447   2.050  0.4181 -0.1664  0.1371
 2756TIP3    H129683   4.828   2.529   2.002 -1.9324 -0.1578 -0.7266
 2756TIP3    H229684   4.718   2.434   2.046  0.6936 -2.8526  0.3786
 2757TIP3   OH229685   0.240   2.564   3.536  0.3848 -0.0129 -0.3200
 2757TIP3    H129686   0.331   2.540   3.520  1.1138  2.3556 -0.2231
 2757TIP3    H229687   0.242   2.610   3.621 -1.3911 -2.1664  0.9837
 2758TIP3   OH229688   3.701   5.609   4.634 -0.6215 -1.0312 -0.1908
 2758TIP3    H129689   3.703   5.676   4.703 -1.6574  0.0816 -1.1917
 2758TIP3    H229690   3.750   5.536   4.670  0.8730  0.4065  0.8100
 2759TIP3   OH229691   5.387   3.516   3.347  0.1952  0.2409 -0.0240
 2759TIP3    H129692   5.426   3.512   3.434 -0.0825  1.0423  0.1457
 2759TIP3    H229693   5.345   3.431   3.335 -0.2833  0.3425  0.8797
 2760TIP3   OH229694   1.532   0.391  14.943 -0.3227  0.1962  0.1167
 2760TIP3    H129695   1.529   0.328  15.015  0.1152 -0.1186 -0.1354
 2760TIP3    H229696   1.500   0.342  14.867 -0.5905  0.4660  0.0542
 2761TIP3   OH229697   3.673   5.393   2.967 -1.1192  0.3276 -0.1954
 2761TIP3    H129698   3.579   5.401   2.953 -1.4110 -0.6474  1.0611
 2761TIP3    H229699   3.686   5.301   2.992  0.3041  0.1843 -1.2949
 2762TIP3   OH229700   2.798   0.405  14.720  0.1362  0.4458  0.1568
 2762TIP3    H129701   2.741   0.462  14.669 -1.0006 -1.0090 -0.2699
 2762TIP3    H229702   2.738   0.348  14.768  1.0820 -2.6359 -1.9870
 2763TIP3   OH229703   1.679   6.144  13.542  0.1613  0.2870 -0.0242
 2763TIP3    H129704   1.699   6.051  13.552 -0.5474 -0.0996 -1.8141
 2763TIP3    H229705   1.765   6.187  13.534  0.4905 -0.1659  0.8821
 2764TIP3   OH229706   5.655   5.093  15.717  0.4273  0.5898  0.5916
 2764TIP3    H129707   5.697   5.030  15.657  0.9299  0.4027  1.1294
 2764TIP3    H229708   5.577   5.048  15.747 -0.7067  1.2943 -1.1363
 2765TIP3   OH229709   4.706   0.637  16.586 -0.2217  0.1481 -0.3187
 2765TIP3    H129710   4.784   0.675  16.547  0.1464 -0.2650  0.0153
 2765TIP3    H229711   4.675   0.705  16.647  0.4755 -0.1030  0.3307
 2766TIP3   OH229712   5.253   4.168  12.242 -0.2065  0.1149 -0.8879
 2766TIP3    H129713   5.230   4.256  12.270 -0.8525  0.4436 -2.3600
 2766TIP3    H229714   5.336   4.177  12.196 -0.1628 -0.0815 -0.8494
 2767TIP3   OH229715   6.085   0.193  13.532  0.1063 -0.5676  0.6435
 2767TIP3    H129716   6.160   0.160  13.482 -0.8889 -0.7721 -0.7773
 2767TIP3    H229717   6.027   0.230  13.465 -0.6453  0.4140  1.8095
 2768TIP3   OH229718   1.149   4.430  16.213 -0.3282  0.1456 -0.0893
 2768TIP3    H129719   1.234   4.389  16.197 -1.5918 -2.2060 -1.3249
 2768TIP3    H229720   1.145   4.502  16.150  1.0130  0.8025  0.5304
 2769TIP3   OH229721   1.434   6.695   3.693  0.1364 -0.0162 -0.1379
 2769TIP3    H129722   1.425   6.658   3.605 -0.7034  0.8305 -0.4297
 2769TIP3    H229723   1.503   6.643   3.735  1.9613  0.7765 -1.9559
 2770TIP3   OH229724   3.835   5.177  14.929 -0.3637  0.2917 -0.0703
 2770TIP3    H129725   3.889   5.150  15.003  0.7314 -0.0427 -0.9552
 2770TIP3    H229726   3.748   5.141  14.947  0.4054 -1.5744  0.0654
 2771TIP3   OH229727   5.435   4.075   3.691 -0.4441  0.0914  0.1749
 2771TIP3    H129728   5.512   4.109   3.645  0.0040 -2.6220 -1.2921
 2771TIP3    H229729   5.420   3.989   3.653 -2.7852 -0.4889  2.1213
 2772TIP3   OH229730   2.959   2.343  12.040 -0.2078  0.4156  0.4794
 2772TIP3    H129731   2.999   2.297  11.967  0.7967  0.8312  0.7532
 2772TIP3    H229732   2.927   2.274  12.098 -2.1200  0.0581 -0.9052
 2773TIP3   OH229733   5.616   2.212   2.217 -0.2036 -0.3739  0.1922
 2773TIP3    H129734   5.575   2.298   2.218  1.9911  0.7553 -0.5529
 2773TIP3    H229735   5.692   2.222   2.160  0.6263 -2.5798  0.7929
 2774TIP3   OH229736   1.118   4.571   2.170  0.4802 -0.3563  0.1596
 2774TIP3    H129737   1.056   4.554   2.241  0.0467  1.1356  0.1702
 2774TIP3    H229738   1.150   4.659   2.187  0.5025 -0.0395 -1.4185
 2775TIP3   OH229739   0.814   1.428   3.449  0.3674 -0.0803 -0.2959
 2775TIP3    H129740   0.730   1.407   3.490  0.8697 -0.1026  0.7403
 2775TIP3    H229741   0.876   1.366   3.487  1.5190  2.0106  1.4722
 2776TIP3   OH229742   4.926   5.847  14.388 -0.6698 -0.0951  0.6990
 2776TIP3    H129743   4.877   5.863  14.468 -2.8754  0.8455 -0.7317
 2776TIP3    H229744   4.957   5.757  14.396 -2.0011 -0.4670  2.0266
 2777TIP3   OH229745   4.931   3.425   2.373  0.4501  0.0938  0.3520
 2777TIP3    H129746   5.001   3.401   2.313  0.0288  0.1840 -0.1809
 2777TIP3    H229747   4.912   3.517   2.354 -0.9309 -0.3607 -0.6782
 2778TIP3   OH229748   4.470   2.442  14.506  0.3799 -0.1676  0.6248
 2778TIP3    H129749   4.555   2.458  14.466  0.2123  1.2149  0.7857
 2778TIP3    H229750   4.461   2.346  14.506  0.4307 -0.2739 -2.5229
 2779TIP3   OH229751   4.705   5.202   6.089 -0.2409  0.6315 -0.3176
 2779TIP3    H129752   4.794   5.199   6.126 -0.8150  0.3617  1.1155
 2779TIP3    H229753   4.649   5.171   6.160 -1.6366  2.1716 -0.6967
 2780TIP3   OH229754   1.996   3.533   2.442  0.1258 -0.2761 -0.5168
 2780TIP3    H129755   1.962   3.505   2.526  2.8266  1.5939  1.3481
 2780TIP3    H229756   1.920   3.567   2.395 -1.3929 -1.1395  1.2136
 2781TIP3   OH229757   2.801   2.502   5.217 -0.1157 -0.7543  0.2768
 2781TIP3    H129758   2.709   2.486   5.239 -0.0150  0.8392  2.1130
 2781TIP3    H229759   2.832   2.561   5.285  1.8311  0.0800 -1.2362
 2782TIP3   OH229760   0.136   6.383  10.977  0.3387 -0.6596  0.5654
 2782TIP3    H129761   0.093   6.454  10.929  1.3492 -0.4949 -0.1237
 2782TIP3    H229762   0.082   6.306  10.960 -0.8059 -0.0555  1.3709
 2783TIP3   OH229763   4.808   2.557   6.607 -0.0188 -0.2411  0.0783
 2783TIP3    H129764   4.882   2.604   6.567 -1.4122  1.5828 -0.4745
 2783TIP3    H229765   4.781   2.613   6.680 -0.9353 -0.8154  0.1900
 2784TIP3   OH229766   6.002   3.471  15.268 -0.0099  0.5742 -0.4737
 2784TIP3    H129767   5.994   3.563  15.245  0.5525  1.2294  1.7059
 2784TIP3    H229768   6.034   3.428  15.188  0.6331  2.4179 -1.2438
 2785TIP3   OH229769   6.740   5.179  13.705 -0.0483  0.8845  0.2249
 2785TIP3    H129770   6.765   5.173  13.797 -0.9193  1.3489  0.4993
 2785TIP3    H229771   6.651   5.143  13.702 -0.1188  1.1032 -0.3918
 2786TIP3   OH229772   5.162   3.127   2.174  0.5960 -0.0938 -0.0736
 2786TIP3    H129773   5.213   3.067   2.121  0.2680 -0.6267  0.2045
 2786TIP3    H229774   5.071   3.113   2.147 -0.0118 -2.7514  2.8136
 2787TIP3   OH229775   4.060   3.320  11.313 -0.2629  0.1398 -0.1511
 2787TIP3    H129776   4.043   3.236  11.355 -0.6728 -0.2013 -0.9872
 2787TIP3    H229777   4.035   3.385  11.379 -1.2214 -0.3791  0.0061
 2788TIP3   OH229778   4.442   3.485   1.007  0.2148 -0.7358  0.0369
 2788TIP3    H129779   4.365   3.440   0.975  1.3761 -2.0413 -1.0540
 2788TIP3    H229780   4.477   3.427   1.075  0.3935 -0.2880  0.3333
 2789TIP3   OH229781   0.591   0.490   0.112 -0.0028  0.0271 -0.2106
 2789TIP3    H129782   0.605   0.532   0.028  1.6981 -0.7498 -0.3623
 2789TIP3    H229783   0.513   0.437   0.100 -0.1460  0.4234 -1.0973
 2790TIP3   OH229784   5.781   4.611  13.193  0.5030  0.1535  0.5695
 2790TIP3    H129785   5.699   4.594  13.147  0.9044  0.4586 -0.2834
 2790TIP3    H229786   5.831   4.530  13.186  1.4008  0.8154 -1.3482
 2791TIP3   OH229787   5.921   6.214  11.336 -0.8135  0.0338  0.0155
 2791TIP3    H129788   5.959   6.135  11.296  0.8158  0.0371  1.4668
 2791TIP3    H229789   5.880   6.182  11.416  1.2689  0.8201  1.4671
 2792TIP3   OH229790   1.295   1.420   0.865  0.0440  0.4033  0.1011
 2792TIP3    H129791   1.301   1.382   0.777 -0.0446  0.2431  0.1632
 2792TIP3    H229792   1.287   1.514   0.850 -3.2935  0.1891 -0.2257
 2793TIP3   OH229793   1.333   2.145  15.606 -0.3053 -0.2903  0.9005
 2793TIP3    H129794   1.409   2.089  15.587 -0.1311  0.8071 -2.1647
 2793TIP3    H229795   1.368   2.215  15.660  1.1641  0.6347 -1.1077
 2794TIP3   OH229796   4.021   2.103  14.611  0.1933 -0.2718  0.0243
 2794TIP3    H129797   4.028   2.181  14.667 -0.0029  0.3272 -0.7644
 2794TIP3    H229798   3.967   2.042  14.661  0.3566  0.0935  0.6581
 2795TIP3   OH229799   0.931   3.572  14.212  0.7824 -0.3263 -0.5716
 2795TIP3    H129800   0.959   3.664  14.207 -0.4581  0.1852  1.0819
 2795TIP3    H229801   0.906   3.550  14.122 -0.4350  1.4789 -0.7364
 2796TIP3   OH229802   4.892   1.594  11.660  0.1597  0.5981  0.2760
 2796TIP3    H129803   4.962   1.534  11.685 -1.0205 -0.5133  1.0745
 2796TIP3    H229804   4.884   1.653  11.735 -0.1505  0.3409  0.4477
 2797TIP3   OH229805   3.102   6.602  13.369  0.2104  0.5011 -0.2315
 2797TIP3    H129806   3.147   6.647  13.441 -0.4843  1.6850 -0.4973
 2797TIP3    H229807   3.023   6.655  13.354 -0.8880 -1.0636 -0.2796
 2798TIP3   OH229808   4.495   0.518  16.041 -0.1903  0.0866 -0.1418
 2798TIP3    H129809   4.477   0.427  16.016 -0.0609  0.1762 -0.5770
 2798TIP3    H229810   4.506   0.515  16.136  0.1845 -0.4161 -0.1967
 2799TIP3   OH229811   3.952   1.925  13.986 -0.1064 -0.0188  0.1226
 2799TIP3    H129812   3.932   1.976  14.064  0.1258 -0.2239  0.3158
 2799TIP3    H229813   3.867   1.904  13.948 -0.2448 -0.5523  0.7256
 2800TIP3   OH229814   1.267   2.608  12.740  0.7712  0.3472 -0.4460
 2800TIP3    H129815   1.183   2.575  12.771  0.6840  1.0142  0.0628
 2800TIP3    H229816   1.256   2.703  12.740  1.8109  0.4801  0.4651
 2801TIP3   OH229817   5.228   6.631  13.160 -0.8032 -0.0433  0.4035
 2801TIP3    H129818   5.291   6.701  13.176 -1.3323  0.4062  0.5670
 2801TIP3    H229819   5.278   6.551  13.170 -0.4781  0.2814  1.6160
 2802TIP3   OH229820   2.919   3.918   2.277  0.4695 -0.4948  0.1633
 2802TIP3    H129821   2.990   3.969   2.316 -0.5068 -0.2707  1.7428
 2802TIP3    H229822   2.858   3.984   2.243  1.2460 -0.6854 -1.7321
 2803TIP3   OH229823   2.434   2.291  12.982  0.0652  0.3220  0.0331
 2803TIP3    H129824   2.503   2.340  13.028 -0.0571  0.0606  0.5000
 2803TIP3    H229825   2.419   2.214  13.036  0.6502 -0.5425 -0.9821
 2804TIP3   OH229826   6.345   3.651   1.336 -0.1957 -0.1498 -0.3168
 2804TIP3    H129827   6.410   3.689   1.277  2.0960 -1.1748  1.3584
 2804TIP3    H229828   6.335   3.716   1.406 -1.3521  0.1826 -0.7656
 2805TIP3   OH229829   0.171   0.642  16.587  0.1499 -0.1646 -0.3298
 2805TIP3    H129830   0.184   0.549  16.570 -0.9025 -0.4317  0.2477
 2805TIP3    H229831   0.146   0.679  16.502 -0.6303 -0.6396 -0.3114
 2806TIP3   OH229832   4.253   0.043   4.438 -0.3262  0.1529 -0.0151
 2806TIP3    H129833   4.267   0.047   4.532  0.5340 -1.9913 -0.0018
 2806TIP3    H229834   4.173  -0.008   4.427 -0.0457 -0.1974 -0.4580
 2807TIP3   OH229835   5.899   0.658  14.293  0.0935  0.1609 -0.1785
 2807TIP3    H129836   5.965   0.722  14.269 -0.4647  1.1906  0.9654
 2807TIP3    H229837   5.944   0.599  14.354  0.6124 -0.5865 -1.2504
 2808TIP3   OH229838   3.939   3.669  16.204  0.0315 -0.5941  0.9481
 2808TIP3    H129839   4.009   3.735  16.197  1.2845 -2.0113 -3.1342
 2808TIP3    H229840   3.977   3.599  16.256  0.4477 -0.0179  1.4288
 2809TIP3   OH229841   2.660   1.231   2.657 -0.1298 -1.1216  0.2259
 2809TIP3    H129842   2.571   1.223   2.692 -1.1989 -1.2687 -2.2431
 2809TIP3    H229843   2.655   1.304   2.595  2.5939  1.5724  2.8869
 2810TIP3   OH229844   0.611   1.172   5.852 -0.6544 -0.0646  0.1225
 2810TIP3    H129845   0.663   1.225   5.791 -1.3491  0.2357 -0.2244
 2810TIP3    H229846   0.597   1.089   5.806  0.2560 -0.4749  0.5790
 2811TIP3   OH229847   6.125   3.466  12.260 -0.3746  0.3851  0.6002
 2811TIP3    H129848   6.156   3.377  12.277 -0.1192  0.6362  1.5285
 2811TIP3    H229849   6.035   3.467  12.290 -0.3628  0.4501  0.6350
 2812TIP3   OH229850   2.742   3.262   6.128 -0.0422 -0.0680 -0.0700
 2812TIP3    H129851   2.755   3.258   6.223 -1.4647  0.9596  0.2010
 2812TIP3    H229852   2.786   3.184   6.094 -0.9571 -1.3813  1.6078
 2813TIP3   OH229853   0.929   3.853  14.191  0.7879 -0.4486  0.7071
 2813TIP3    H129854   0.988   3.894  14.128 -0.6770  0.9080  0.1330
 2813TIP3    H229855   0.947   3.899  14.273 -1.6566  2.4352 -0.1783
 2814TIP3   OH229856   5.921   0.434   2.914  0.2420 -0.2178 -1.0774
 2814TIP3    H129857   5.993   0.385   2.955  1.0106 -0.4274 -2.6062
 2814TIP3    H229858   5.843   0.385   2.939  0.5229  0.3408  1.1012
 2815TIP3   OH229859   4.229   4.810   1.519 -0.5696  0.1509 -0.3843
 2815TIP3    H129860   4.145   4.849   1.543 -0.0846  0.1440  1.4978
 2815TIP3    H229861   4.221   4.718   1.546  0.0574  0.1608 -0.1672
 2816TIP3   OH229862   2.742   4.900  16.265 -0.2209 -0.2862  0.1473
 2816TIP3    H129863   2.826   4.940  16.285 -0.0404 -1.4798  1.9933
 2816TIP3    H229864   2.763   4.826  16.208 -0.1535  0.0449 -0.2626
 2817TIP3   OH229865   5.799   5.525  15.381 -0.1214 -0.4196 -0.0591
 2817TIP3    H129866   5.894   5.540  15.386  0.1929 -2.3754  0.6770
 2817TIP3    H229867   5.777   5.548  15.291  1.1825 -0.4589 -0.4218
 2818TIP3   OH229868   1.334   1.798  11.977  0.4031  0.2529 -0.2558
 2818TIP3    H129869   1.413   1.812  11.925  0.6484  2.6703  0.6415
 2818TIP3    H229870   1.278   1.873  11.956 -2.1376 -1.8417 -1.5803
 2819TIP3   OH229871   6.475   2.086  14.057  0.5224  0.8064 -0.5941
 2819TIP3    H129872   6.461   2.139  14.136  0.9597  0.9160 -0.5896
 2819TIP3    H229873   6.563   2.052  14.066 -0.4747 -1.7490  0.4639
 2820TIP3   OH229874   2.270   5.608   4.439  0.4854 -0.3534 -0.6834
 2820TIP3    H129875   2.305   5.549   4.506  2.3981  2.6556  1.2245
 2820TIP3    H229876   2.347   5.652   4.403 -0.8713  2.0301 -0.8884
 2821TIP3   OH229877   5.151   2.789  13.492 -0.0531 -0.4136  0.2784
 2821TIP3    H129878   5.103   2.708  13.474 -0.4522 -0.2484  0.5900
 2821TIP3    H229879   5.147   2.838  13.410 -0.3193 -0.4538  0.2649
 2822TIP3   OH229880   1.353   6.402  11.686 -0.0911  0.0622  0.4214
 2822TIP3    H129881   1.362   6.482  11.633  1.4614  0.5568  1.3500
 2822TIP3    H229882   1.381   6.429  11.774 -1.9739 -0.8993  1.3797
 2823TIP3   OH229883   2.380   0.196   2.904 -0.5565  0.4089  0.2407
 2823TIP3    H129884   2.444   0.226   2.839 -1.0346  1.4421  0.2266
 2823TIP3    H229885   2.339   0.119   2.864 -1.8915  1.8827 -1.3818
 2824TIP3   OH229886   6.447   5.790  16.753 -0.4510  0.2883  0.4720
 2824TIP3    H129887   6.513   5.725  16.780 -1.6257 -1.5368 -0.7865
 2824TIP3    H229888   6.484   5.829  16.674 -1.1914 -1.3768 -0.7518
 2825TIP3   OH229889   6.112   5.554  13.825  0.3298  0.1885  0.2057
 2825TIP3    H129890   6.035   5.609  13.813 -0.3721 -1.1558 -1.9491
 2825TIP3    H229891   6.095   5.506  13.906  0.0282  1.5785  1.0033
 2826TIP3   OH229892   0.648   3.632  17.131 -0.1007  0.4204  0.1363
 2826TIP3    H129893   0.686   3.634  17.219  0.0631  1.1306  0.0572
 2826TIP3    H229894   0.699   3.566  17.084  1.1652  1.4707 -0.0185
 2827TIP3   OH229895   5.058   5.023   4.070  0.2363  0.1666 -0.2941
 2827TIP3    H129896   5.024   5.048   3.984 -1.6636  1.0918  0.6596
 2827TIP3    H229897   5.103   5.101   4.102 -0.7784  0.4971  0.3530
 2828TIP3   OH229898   2.745   6.064   0.856 -0.4274 -0.1288 -0.4508
 2828TIP3    H129899   2.772   5.983   0.814  1.5982 -0.8400  1.9857
 2828TIP3    H229900   2.718   6.038   0.944  0.3320  1.8107  0.4177
 2829TIP3   OH229901   1.321   3.328  11.573  0.3767 -0.1874 -0.3161
 2829TIP3    H129902   1.286   3.289  11.652  2.4317 -0.8585  0.3302
 2829TIP3    H229903   1.245   3.367  11.529 -1.3045 -2.4386  0.4258
 2830TIP3   OH229904   3.094   2.908  15.132 -0.2759 -0.8222 -0.3035
 2830TIP3    H129905   3.137   2.895  15.216  0.0298 -0.5558 -0.4142
 2830TIP3    H229906   3.075   2.820  15.100 -2.2262 -0.9361  0.9641
 2831TIP3   OH229907   1.599   5.106  15.273 -0.3171  0.3553 -0.7155
 2831TIP3    H129908   1.672   5.099  15.334 -0.5956  1.9362 -0.1470
 2831TIP3    H229909   1.521   5.091  15.326 -0.4437 -0.9849 -1.2515
 2832TIP3   OH229910   2.695   4.069  11.319 -0.1466  0.8016 -1.0180
 2832TIP3    H129911   2.642   4.127  11.263  2.3436  2.9362 -1.3548
 2832TIP3    H229912   2.634   4.001  11.347 -3.0131  2.9336 -1.5553
 2833TIP3   OH229913   0.679   5.636  16.066  0.1859  0.1781 -0.4505
 2833TIP3    H129914   0.709   5.633  16.157  1.8592 -2.3615 -0.9822
 2833TIP3    H229915   0.741   5.693  16.022  1.4611 -1.2578 -0.5979
 2834TIP3   OH229916   6.465   0.520  10.355  0.0266 -0.3870 -0.8143
 2834TIP3    H129917   6.407   0.527  10.431  0.7858  0.4695 -0.3022
 2834TIP3    H229918   6.508   0.435  10.366 -0.7994 -0.8400 -0.9776
 2835TIP3   OH229919   5.098   0.638  12.858  0.4408 -0.4148  0.3914
 2835TIP3    H129920   5.028   0.574  12.873  1.7081 -1.7706  0.7269
 2835TIP3    H229921   5.051   0.721  12.843 -1.2077 -1.1357  1.2527
 2836TIP3   OH229922   2.690   6.078   2.627 -0.2474 -0.1909 -0.5081
 2836TIP3    H129923   2.658   6.010   2.568 -0.4262  0.2502 -0.9233
 2836TIP3    H229924   2.782   6.054   2.643 -0.9684 -1.9659  1.4117
 2837TIP3   OH229925   3.638   6.155   4.020 -0.4655  0.1339  0.5044
 2837TIP3    H129926   3.655   6.126   3.931 -0.7267  0.9536  0.1795
 2837TIP3    H229927   3.725   6.162   4.060 -0.2614  0.8427 -0.0391
 2838TIP3   OH229928   0.456   4.824  15.165 -0.4311  0.5539  0.1703
 2838TIP3    H129929   0.531   4.883  15.170 -0.8317  1.0541  0.3235
 2838TIP3    H229930   0.387   4.869  15.213 -0.5560 -0.3195  0.8395
 2839TIP3   OH229931   2.723   2.310  14.561 -0.1754 -0.2320  0.2149
 2839TIP3    H129932   2.742   2.399  14.532  0.9596 -0.8445 -1.0171
 2839TIP3    H229933   2.719   2.258  14.481 -2.6089 -1.0128  0.7612
 2840TIP3   OH229934   6.307   4.862  11.930 -0.3594  0.2469  0.1109
 2840TIP3    H129935   6.270   4.951  11.929 -1.7495 -0.3099  0.1071
 2840TIP3    H229936   6.272   4.820  11.852  0.7923 -0.1298 -0.2256
 2841TIP3   OH229937   3.516   0.771  14.350  0.0833 -0.7429 -0.4040
 2841TIP3    H129938   3.445   0.765  14.287 -0.1187  0.4814 -0.3144
 2841TIP3    H229939   3.479   0.739  14.432 -0.5554  0.3975 -0.2265
 2842TIP3   OH229940   4.880   2.250  13.754  0.1270 -0.0551  0.1701
 2842TIP3    H129941   4.833   2.226  13.834 -1.2404  0.0044 -0.5894
 2842TIP3    H229942   4.842   2.334  13.728  2.4849  1.3394  0.9378
 2843TIP3   OH229943   6.154   3.640  10.979 -0.1091 -0.1553  0.5934
 2843TIP3    H129944   6.079   3.631  10.920  1.3277  1.7865 -1.7312
 2843TIP3    H229945   6.215   3.695  10.931  1.9466  0.0784  3.2611
 2844TIP3   OH229946   6.744   6.340  16.443  0.2936 -0.1022 -0.0505
 2844TIP3    H129947   6.734   6.276  16.513 -0.3342  0.5648  0.4781
 2844TIP3    H229948   6.833   6.327  16.411  0.8451  0.0680  1.3505
 2845TIP3   OH229949   0.986   2.701  12.032 -0.0821  0.0584  0.8312
 2845TIP3    H129950   1.078   2.676  12.033  0.5599  2.0060 -1.4712
 2845TIP3    H229951   0.958   2.686  11.942 -1.8659  0.0453  1.3587
 2846TIP3   OH229952   6.447   0.576   1.453 -0.5320  0.0560 -0.3889
 2846TIP3    H129953   6.397   0.639   1.505 -1.4628  0.1654 -1.3876
 2846TIP3    H229954   6.507   0.629   1.401 -1.1335  0.1122 -1.0360
 2847TIP3   OH229955   6.748   0.935   1.092 -0.3878 -0.2268 -0.1296
 2847TIP3    H129956   6.770   0.846   1.065 -0.1516 -0.0758 -0.4430
 2847TIP3    H229957   6.825   0.966   1.140 -0.7740 -0.4641  0.6614
 2848TIP3   OH229958   5.465   3.586  13.780 -0.1596 -0.4196  0.0924
 2848TIP3    H129959   5.385   3.619  13.739 -0.3604 -1.5971 -0.5023
 2848TIP3    H229960   5.523   3.566  13.707  0.8875  0.8594  0.5318
 2849TIP3   OH229961   6.689   4.778   2.501  0.1132  0.0887 -0.3731
 2849TIP3    H129962   6.692   4.691   2.541 -1.5273  0.1407 -0.0530
 2849TIP3    H229963   6.740   4.834   2.559 -0.6887 -0.2261  0.6708
 2850TIP3   OH229964   4.055   2.704  13.691  0.1333 -0.1476 -0.6204
 2850TIP3    H129965   3.983   2.642  13.679  0.7911 -0.7844 -1.4169
 2850TIP3    H229966   4.093   2.680  13.776 -1.8686  1.5694  0.8492
 2851TIP3   OH229967   1.802   0.381   5.765 -0.2612  0.0826  0.1655
 2851TIP3    H129968   1.867   0.312   5.775 -1.3222 -0.9135  0.3656
 2851TIP3    H229969   1.777   0.404   5.855 -0.6679 -0.0078  0.0763
 2852TIP3   OH229970   4.772   6.068  16.160 -0.0768 -0.3647 -0.0627
 2852TIP3    H129971   4.766   6.138  16.095 -2.6283  0.3931  0.8466
 2852TIP3    H229972   4.824   6.106  16.231 -0.4355  0.1747 -0.0821
 2853TIP3   OH229973   0.383   2.984  14.476 -0.0109  0.2282  0.3257
 2853TIP3    H129974   0.380   3.010  14.384  0.3808  0.8010  0.4712
 2853TIP3    H229975   0.342   3.057  14.523  0.6496  0.3685  0.6936
 2854TIP3   OH229976   0.034   6.190   2.909 -0.1677  0.2680  0.3429
 2854TIP3    H129977   0.080   6.112   2.941 -0.6949 -0.1196  0.1842
 2854TIP3    H229978   0.102   6.243   2.868  0.2214 -0.0590  0.5543
 2855TIP3   OH229979   3.329   0.503   1.851 -0.3579 -0.5511 -0.2251
 2855TIP3    H129980   3.347   0.537   1.763 -0.4244  0.3327  0.0974
 2855TIP3    H229981   3.411   0.514   1.899 -0.5828 -0.1887  0.0837
 2856TIP3   OH229982   4.493   6.347  15.392  0.3509 -0.3274 -0.3752
 2856TIP3    H129983   4.513   6.315  15.480 -0.7323 -1.6499 -0.5594
 2856TIP3    H229984   4.578   6.362  15.352  0.8659 -0.2396  0.7186
 2857TIP3   OH229985   3.091   2.014  17.007  0.2526 -0.5013 -0.6007
 2857TIP3    H129986   2.997   2.017  17.026  0.3571 -1.7848  0.2791
 2857TIP3    H229987   3.125   2.098  17.039 -0.5875 -0.0172 -0.9492
 2858TIP3   OH229988   2.464   2.252  14.657  0.3832 -0.3466  0.2878
 2858TIP3    H129989   2.554   2.243  14.626  0.4528  0.0457  0.3659
 2858TIP3    H229990   2.427   2.322  14.603  0.0078 -0.7551  0.0054
 2859TIP3   OH229991   2.695   4.045  16.575  0.1665 -0.2602  0.0722
 2859TIP3    H129992   2.764   4.101  16.540  0.9938 -0.8220  0.7485
 2859TIP3    H229993   2.723   3.956  16.555 -0.4678 -0.4919  0.1774
 2860TIP3   OH229994   4.517   0.774   1.897 -0.0673 -0.6222 -0.1126
 2860TIP3    H129995   4.466   0.817   1.965  1.2722  0.7716  0.0748
 2860TIP3    H229996   4.472   0.795   1.815 -1.7498 -2.4004  0.2905
 2861TIP3   OH229997   5.183   5.154  13.472 -0.1822 -0.3848  0.6964
 2861TIP3    H129998   5.231   5.138  13.391  0.3681  0.2851  0.8852
 2861TIP3    H229999   5.114   5.215  13.446 -0.3160 -0.5603  0.6345
 2862TIP3   OH230000   4.310   4.298   1.303  0.8398  0.0357  0.3279
 2862TIP3    H130001   4.257   4.219   1.295 -1.7766  1.7116 -0.1736
 2862TIP3    H230002   4.399   4.269   1.286 -0.3226 -2.3434 -2.6091
 2863TIP3   OH230003   4.591   6.434  11.792  0.3091  0.0429  0.3883
 2863TIP3    H130004   4.503   6.462  11.816 -0.1453 -0.4639 -0.6527
 2863TIP3    H230005   4.585   6.338  11.785  0.1395  0.1852 -2.6476
 2864TIP3   OH230006   4.610   5.812  14.899 -0.1865 -0.1468  0.4519
 2864TIP3    H130007   4.572   5.895  14.869  0.3377 -1.0028 -3.1112
 2864TIP3    H230008   4.539   5.749  14.890 -0.1948 -0.3502  1.8157
 2865TIP3   OH230009   4.928   6.613  15.951  0.4064 -0.2079 -0.1648
 2865TIP3    H130010   4.842   6.590  15.988  0.9505  1.5006  2.3625
 2865TIP3    H230011   4.990   6.593  16.020  1.5100  2.9898 -0.1034
 2866TIP3   OH230012   0.076   3.747   3.502 -0.4417 -0.2563 -0.3871
 2866TIP3    H130013  -0.019   3.742   3.514 -0.8543  4.4044  0.1065
 2866TIP3    H230014   0.112   3.753   3.590  0.0579  0.0350 -0.6019
 2867TIP3   OH230015   1.284   6.126  11.696 -0.2815  0.2961 -0.4254
 2867TIP3    H130016   1.199   6.123  11.652 -0.9598  1.1067  0.7717
 2867TIP3    H230017   1.307   6.219  11.698  0.5154  0.1059 -0.5097
 2868TIP3   OH230018   0.666   0.647  13.863  0.3248 -0.0676  0.7915
 2868TIP3    H130019   0.597   0.713  13.859 -0.6981 -1.0192  2.0106
 2868TIP3    H230020   0.635   0.584  13.928  1.9824 -0.9428  0.7746
 2869TIP3   OH230021   4.939   3.064   1.504 -0.3354  0.0982  0.2242
 2869TIP3    H130022   4.911   3.086   1.593  1.8673  1.7419  0.6167
 2869TIP3    H230023   4.985   3.143   1.473  1.6032 -1.4763 -1.1900
 2870TIP3   OH230024   1.564   3.865  13.654 -0.0852 -0.1433 -0.2964
 2870TIP3    H130025   1.529   3.954  13.665  0.9900  0.2950 -0.2848
 2870TIP3    H230026   1.554   3.825  13.741  1.2129  0.6477  0.2450
 2871TIP3   OH230027   5.159   2.797  16.290 -0.2542 -0.4631  0.0035
 2871TIP3    H130028   5.238   2.744  16.300 -0.1591 -0.1505  1.1008
 2871TIP3    H230029   5.102   2.745  16.234  1.8067  0.5594 -3.2980
 2872TIP3   OH230030   0.349   0.991   1.837 -0.2125  0.2180 -0.2120
 2872TIP3    H130031   0.338   1.081   1.867  1.5995  0.3576  0.1676
 2872TIP3    H230032   0.260   0.960   1.822 -1.0262  1.3309  1.8338
 2873TIP3   OH230033   4.714   1.121   3.206 -0.0343 -0.2354  0.5910
 2873TIP3    H130034   4.645   1.077   3.255 -0.7337  0.5718  0.3476
 2873TIP3    H230035   4.716   1.076   3.121 -1.1310  0.5313  0.1329
 2874TIP3   OH230036   1.493   0.293  11.935  0.0082 -0.5419 -0.2469
 2874TIP3    H130037   1.520   0.215  11.886  0.8267 -0.1584 -0.4346
 2874TIP3    H230038   1.525   0.278  12.024  0.4928 -0.2743 -0.3685
 2875TIP3   OH230039   6.182   4.683  11.753 -0.4667  0.3076  0.0321
 2875TIP3    H130040   6.199   4.677  11.659 -1.6062  1.4014 -0.2638
 2875TIP3    H230041   6.099   4.637  11.766 -2.6511  3.8299 -0.2685
 2876TIP3   OH230042   2.878   0.358  13.934 -0.2526  0.4197  0.2322
 2876TIP3    H130043   2.841   0.375  14.020 -0.6531 -0.2088  0.1904
 2876TIP3    H230044   2.813   0.304  13.890  0.6870 -0.6749  0.1442
 2877TIP3   OH230045   3.528   0.040   5.416 -0.0121 -0.3827 -0.1621
 2877TIP3    H130046   3.550   0.111   5.356  0.7111  0.1824  0.7443
 2877TIP3    H230047   3.505   0.084   5.498  2.9296 -1.1632  1.2428
 2878TIP3   OH230048   1.736   5.818  11.091 -0.0405  0.4388  0.7832
 2878TIP3    H130049   1.714   5.825  11.184  0.2309  0.4716  0.8444
 2878TIP3    H230050   1.652   5.826  11.046 -0.4159 -1.3035  1.0964
 2879TIP3   OH230051   1.923   4.065  11.605 -0.4801 -0.0492  0.6654
 2879TIP3    H130052   1.932   4.037  11.696 -4.1587 -1.2767  0.8172
 2879TIP3    H230053   1.876   4.148  11.610  0.2991  0.4568 -0.1178
 2880TIP3   OH230054   4.718   0.002  14.175 -0.0631  0.1925 -0.4173
 2880TIP3    H130055   4.691  -0.007  14.083  2.1128  0.3362 -1.1281
 2880TIP3    H230056   4.750   0.092  14.182 -0.0240  0.1219  0.4550
 2881TIP3   OH230057   0.185   5.053  13.642  0.0376  0.5052  0.4942
 2881TIP3    H130058   0.096   5.081  13.665  0.0661  1.2384 -0.2448
 2881TIP3    H230059   0.180   5.029  13.550  0.7146  1.0561  0.3040
 2882TIP3   OH230060   6.370   5.399   2.533 -0.4411 -0.0288  0.1737
 2882TIP3    H130061   6.291   5.354   2.563 -0.8152  0.7578  0.3751
 2882TIP3    H230062   6.423   5.410   2.612  1.1716 -2.9974 -0.3287
 2883TIP3   OH230063   0.691   1.191  13.460  0.5361 -0.3607  0.0686
 2883TIP3    H130064   0.744   1.246  13.404  1.4738 -0.9247  0.3787
 2883TIP3    H230065   0.611   1.175  13.410  1.3547 -0.8693 -1.1155
 2884TIP3   OH230066   4.097   1.780  14.268 -0.0425 -0.2440  0.4307
 2884TIP3    H130067   4.002   1.784  14.256  0.0707 -0.0465 -0.4956
 2884TIP3    H230068   4.131   1.854  14.217  0.7842 -1.7735 -1.3140
 2885TIP3   OH230069   4.227   0.864  13.742 -0.2094  0.0643 -0.1265
 2885TIP3    H130070   4.184   0.850  13.657  1.6898 -1.0032 -0.9697
 2885TIP3    H230071   4.257   0.954  13.739 -0.0893  0.0140 -0.6249
 2886TIP3   OH230072   1.783   0.000  15.229  0.3893  0.4216  0.0064
 2886TIP3    H130073   1.750  -0.076  15.183  1.6622 -0.3296  0.2717
 2886TIP3    H230074   1.793   0.067  15.161  0.5302 -0.0799 -0.4734
 2887TIP3   OH230075   0.671   0.377  16.004  0.1527  0.1032  0.9038
 2887TIP3    H130076   0.602   0.353  16.066  0.4208  0.7262  1.4531
 2887TIP3    H230077   0.628   0.435  15.942 -0.3354 -1.2117 -0.0448
 2888TIP3   OH230078   4.955   5.748   5.041  0.0007  0.3214 -0.1873
 2888TIP3    H130079   5.037   5.792   5.063 -0.5411  1.3932 -0.2837
 2888TIP3    H230080   4.911   5.737   5.126 -0.7649  1.8015 -0.3707
 2889TIP3   OH230081   5.134   3.347  15.981 -0.2334 -0.2292 -0.5667
 2889TIP3    H130082   5.114   3.326  16.072 -0.7878 -0.6962 -0.7865
 2889TIP3    H230083   5.049   3.347  15.937 -0.2281  1.9879 -0.6995
 2890TIP3   OH230084   1.708   2.371  13.738 -0.2899  0.4787 -0.4847
 2890TIP3    H130085   1.630   2.331  13.700  0.0909 -0.2443 -0.5097
 2890TIP3    H230086   1.674   2.440  13.795 -0.9307  0.3803 -0.7414
 2891TIP3   OH230087   0.984   4.293   6.085  0.4041  0.2548 -0.3033
 2891TIP3    H130088   1.067   4.250   6.102 -0.1135 -0.3648  0.7985
 2891TIP3    H230089   0.933   4.227   6.037  0.1857  0.2373 -0.0506
 2892TIP3   OH230090   3.851   3.517  12.304  0.2490 -0.3895 -0.4567
 2892TIP3    H130091   3.835   3.473  12.388 -3.6897  0.0445 -0.8090
 2892TIP3    H230092   3.872   3.607  12.328  1.5343 -0.7843  0.0408
 2893TIP3   OH230093   4.843   0.924   2.379  0.1345  0.0941 -0.3936
 2893TIP3    H130094   4.847   0.890   2.468 -0.3926 -2.0489 -1.1197
 2893TIP3    H230095   4.780   0.996   2.384 -0.1074 -0.1763  0.9120
 2894TIP3   OH230096   3.117   4.886  15.701 -0.2375  0.3322  0.0638
 2894TIP3    H130097   3.155   4.911  15.785  3.1700  2.1993 -1.8650
 2894TIP3    H230098   3.131   4.791  15.696 -1.2744  0.0248  1.8463
 2895TIP3   OH230099   6.719   3.016   1.189  0.6205  0.3546 -0.1437
 2895TIP3    H130100   6.777   3.034   1.262  1.1670  0.1576 -0.5251
 2895TIP3    H230101   6.642   3.070   1.206  0.9732  0.7277  0.2877
 2896TIP3   OH230102   6.658   0.724   1.347 -0.2832 -0.5806  0.6781
 2896TIP3    H130103   6.667   0.817   1.364  2.5408 -0.9111  1.5435
 2896TIP3    H230104   6.662   0.717   1.251 -0.4546  0.1826  0.6115
 2897TIP3   OH230105   4.040   6.584  13.573  0.5822 -0.2858 -0.0936
 2897TIP3    H130106   4.110   6.589  13.509  0.1026 -1.2436 -0.7224
 2897TIP3    H230107   4.082   6.603  13.657  1.5839 -0.8198 -0.4606
 2898TIP3   OH230108   5.647   4.723   0.635  0.3245  0.0169 -0.1443
 2898TIP3    H130109   5.578   4.730   0.569  1.1082 -1.3353 -1.1457
 2898TIP3    H230110   5.601   4.735   0.719 -0.5753  2.4860 -0.9044
 2899TIP3   OH230111   3.561   1.002   1.604 -0.6729  0.1908  0.2917
 2899TIP3    H130112   3.625   1.069   1.579 -0.4136 -0.3752 -0.6078
 2899TIP3    H230113   3.494   1.005   1.535 -1.0083 -0.0149  0.6065
 2900TIP3   OH230114   3.316   6.158  13.555 -1.1777 -0.2426  0.2680
 2900TIP3    H130115   3.408   6.153  13.581 -0.2197  4.5905 -1.2724
 2900TIP3    H230116   3.311   6.108  13.474 -0.3366 -1.7489  1.1026
 2901TIP3   OH230117   4.627   2.923   5.941  0.1088  0.3681 -0.2853
 2901TIP3    H130118   4.599   3.004   5.984  1.9266  0.9466 -0.0917
 2901TIP3    H230119   4.642   2.862   6.014 -0.6447  0.0563 -0.3873
 2902TIP3   OH230120   1.725   3.798   1.047 -0.7044  0.7317 -0.0287
 2902TIP3    H130121   1.633   3.780   1.026 -0.1322 -2.9394 -0.0817
 2902TIP3    H230122   1.768   3.806   0.962 -0.6978  0.8294 -0.0168
 2903TIP3   OH230123   4.799   6.378  14.274  0.5666 -0.0953 -0.0004
 2903TIP3    H130124   4.877   6.329  14.299  0.9675 -0.0657 -1.1658
 2903TIP3    H230125   4.789   6.362  14.180 -0.6292  0.1864  0.0657
 2904TIP3   OH230126   0.933   1.978   6.454  0.4336  0.1218 -0.1577
 2904TIP3    H130127   0.894   1.919   6.518  0.1643 -1.2340 -1.5042
 2904TIP3    H230128   0.874   2.053   6.450 -1.4506 -1.3569 -1.2990
 2905TIP3   OH230129   5.523   1.171  12.287  0.1561  0.0203  0.2413
 2905TIP3    H130130   5.456   1.186  12.354  0.6893 -0.6738  0.9546
 2905TIP3    H230131   5.567   1.091  12.315 -0.2716 -0.8713 -1.4999
 2906TIP3   OH230132   0.156   1.806  17.230 -0.6512 -0.6007 -0.3241
 2906TIP3    H130133   0.182   1.772  17.316 -1.3864 -0.7786 -0.1622
 2906TIP3    H230134   0.237   1.839  17.192 -0.4098  0.0040  0.6807
 2907TIP3   OH230135   5.497   1.960   1.080  0.0993  0.5450 -0.2972
 2907TIP3    H130136   5.466   2.046   1.051  1.1968  0.3311 -2.2334
 2907TIP3    H230137   5.536   1.977   1.166  0.2573  1.9741 -0.6153
 2908TIP3   OH230138   0.798   5.608   1.949 -0.3620 -0.4683 -0.0979
 2908TIP3    H130139   0.778   5.539   2.012  2.3940 -0.9606  0.3419
 2908TIP3    H230140   0.808   5.687   2.002  0.6522 -0.6173 -0.0504
 2909TIP3   OH230141   0.404   1.726  16.316  0.0908  0.6993 -0.8228
 2909TIP3    H130142   0.352   1.799  16.283 -0.8736  0.5581  0.3150
 2909TIP3    H230143   0.351   1.689  16.386  1.6279  0.4102  0.2390
 2910TIP3   OH230144   0.821   4.761  15.436 -0.3004  0.0378 -0.1195
 2910TIP3    H130145   0.780   4.726  15.515 -0.3690  0.2593 -0.0569
 2910TIP3    H230146   0.788   4.706  15.366  1.1168 -1.3014  0.2048
 2911TIP3   OH230147   4.849   5.192  16.800 -0.5763 -0.3053 -0.3512
 2911TIP3    H130148   4.913   5.128  16.832  0.6579  0.3901 -1.3485
 2911TIP3    H230149   4.795   5.143  16.738  0.0286 -0.5237 -0.7171
 2912TIP3   OH230150   1.854   1.342   4.435 -0.9410  0.1092  0.1394
 2912TIP3    H130151   1.889   1.280   4.371 -1.0076  0.7946 -0.5781
 2912TIP3    H230152   1.771   1.372   4.397 -0.5472  1.2041  0.0902
 2913TIP3   OH230153   6.339   4.823   0.568  0.0177  0.4190 -1.0454
 2913TIP3    H130154   6.319   4.751   0.628  1.3983  1.6640  1.0118
 2913TIP3    H230155   6.399   4.784   0.504 -1.3384 -0.8868 -1.5987
 2914TIP3   OH230156   3.845   5.189  16.516  0.4325  0.0037  0.1093
 2914TIP3    H130157   3.864   5.195  16.422  1.1748 -1.7833  0.1069
 2914TIP3    H230158   3.861   5.097  16.538 -0.2085  0.2790  1.8960
 2915TIP3   OH230159   3.665   6.566   1.159  0.2256  0.0827  0.9411
 2915TIP3    H130160   3.601   6.547   1.227 -0.5436 -0.9579 -0.0340
 2915TIP3    H230161   3.719   6.487   1.154 -0.2691 -0.2037 -0.2254
 2916TIP3   OH230162   2.736   1.268   1.929  0.0488 -0.0453  0.1082
 2916TIP3    H130163   2.763   1.176   1.929  1.1759  0.2561  1.8166
 2916TIP3    H230164   2.814   1.316   1.954 -1.0729  1.1989  1.3667
 2917TIP3   OH230165   4.740   6.658   5.933  0.0302 -0.7040 -0.1291
 2917TIP3    H130166   4.682   6.611   5.993  1.5537 -1.0514  1.1424
 2917TIP3    H230167   4.766   6.736   5.981 -1.0858  0.6154 -1.5548
 2918TIP3   OH230168   6.111   4.943   0.495  0.2211  0.1717  0.3388
 2918TIP3    H130169   6.201   4.912   0.499  0.0413 -0.3596  0.3075
 2918TIP3    H230170   6.068   4.904   0.571 -0.1360 -0.0890  0.0090
 2919TIP3   OH230171   3.288   5.426   4.064  0.6481  0.5296  0.1982
 2919TIP3    H130172   3.380   5.453   4.057  0.8419 -0.2420 -0.4648
 2919TIP3    H230173   3.270   5.383   3.981 -0.5371  1.2978  0.0426
 2920TIP3   OH230174   0.071   5.121  17.016 -0.4487 -0.4987  0.3405
 2920TIP3    H130175   0.126   5.135  17.093  0.4898 -0.3037 -0.3523
 2920TIP3    H230176   0.056   5.027  17.014 -0.0275 -0.5688  0.4593
 2921TIP3   OH230177   5.071   2.830  14.052  0.2910  0.1858  0.2070
 2921TIP3    H130178   4.976   2.824  14.067 -0.2134  1.4540 -1.9719
 2921TIP3    H230179   5.094   2.746  14.014 -0.3284  0.4328 -0.7646
 2922TIP3   OH230180   2.288   1.293   2.190  0.0307  0.8564  0.0525
 2922TIP3    H130181   2.365   1.322   2.141 -1.1693  2.0614 -1.2191
 2922TIP3    H230182   2.246   1.230   2.132  0.1327  0.0524  0.8277
 2923TIP3   OH230183   1.155   2.744  14.116 -0.5282  0.1302  0.0307
 2923TIP3    H130184   1.096   2.728  14.042  1.2865 -0.9075 -1.2885
 2923TIP3    H230185   1.206   2.820  14.090  0.6343 -0.6881 -0.1472
 2924TIP3   OH230186   1.972   4.040  11.177 -0.1652  0.3755  0.1554
 2924TIP3    H130187   1.904   4.028  11.111 -1.5440  1.1096  1.4076
 2924TIP3    H230188   1.940   3.993  11.254  1.0832  0.1411  0.5631
 2925TIP3   OH230189   2.999   1.486  13.545  0.2315  0.2331  0.0992
 2925TIP3    H130190   2.948   1.509  13.623  1.0407 -0.0369  0.7185
 2925TIP3    H230191   2.935   1.445  13.486 -0.0898 -1.0083  1.2586
 2926TIP3   OH230192   3.192   5.850  14.095 -0.2203  0.0818  0.4447
 2926TIP3    H130193   3.239   5.774  14.060  0.7247  0.4081  0.9933
 2926TIP3    H230194   3.211   5.920  14.033  0.0147  0.2150  0.6685
 2927TIP3   OH230195   3.222   3.951   5.740 -0.4238  0.3601 -0.0094
 2927TIP3    H130196   3.145   3.894   5.749  1.6934 -2.6705  0.6505
 2927TIP3    H230197   3.268   3.941   5.824  1.7438  0.3248 -1.1574
 2928TIP3   OH230198   5.982   1.503   5.533 -0.1939  0.4722 -0.2574
 2928TIP3    H130199   6.023   1.579   5.574 -2.5744  1.2361  0.9231
 2928TIP3    H230200   5.914   1.476   5.596 -1.6026 -0.5570 -2.1274
 2929TIP3   OH230201   1.268   0.938  12.494  0.0879  0.0327 -0.0807
 2929TIP3    H130202   1.358   0.918  12.520 -0.0190  0.3075  0.5490
 2929TIP3    H230203   1.268   1.033  12.479 -0.2959  0.1907  0.8270
 2930TIP3   OH230204   4.898   4.470  17.141  0.5771  0.8172 -0.1532
 2930TIP3    H130205   4.908   4.375  17.144 -1.2820  0.6011  0.3157
 2930TIP3    H230206   4.987   4.503  17.130  1.2676 -0.9656 -0.2471
 2931TIP3   OH230207   0.913   5.846   4.037  0.2568  0.0814  0.1640
 2931TIP3    H130208   0.823   5.870   4.013  0.5206  0.2890 -0.6555
 2931TIP3    H230209   0.968   5.907   3.988  0.9829 -2.4267 -2.4157
 2932TIP3   OH230210   4.860   3.762   4.600  0.3923  0.3579 -0.3346
 2932TIP3    H130211   4.883   3.835   4.542 -0.0502  1.7899  1.2189
 2932TIP3    H230212   4.790   3.715   4.554  1.0354  0.5825 -1.5815
 2933TIP3   OH230213   3.486   4.654   1.728 -0.2118  0.8922  0.0799
 2933TIP3    H130214   3.461   4.731   1.678 -0.5416  0.4125 -0.5032
 2933TIP3    H230215   3.514   4.590   1.662  1.1058  0.8763  0.6153
 2934TIP3   OH230216   6.319   2.074  11.471  0.1785  0.0481 -0.0572
 2934TIP3    H130217   6.259   2.045  11.403  0.3110  1.4299 -0.8236
 2934TIP3    H230218   6.267   2.078  11.550 -0.4355  0.0454 -0.4552
 2935TIP3   OH230219   4.942   2.247   4.672 -0.4030  0.0056 -0.0590
 2935TIP3    H130220   4.859   2.291   4.654 -0.3950 -0.2915 -0.8481
 2935TIP3    H230221   4.967   2.279   4.759 -1.5504 -0.2259  0.3832
 2936TIP3   OH230222   2.736   5.209  14.614 -0.6461 -0.1338  0.0385
 2936TIP3    H130223   2.768   5.204  14.704 -0.6921 -0.3772  0.0410
 2936TIP3    H230224   2.711   5.301  14.603 -0.4979 -0.0702  0.2243
 2937TIP3   OH230225   6.632   4.412   6.443  0.0199 -0.1677  0.1821
 2937TIP3    H130226   6.599   4.485   6.495 -0.9065  0.3180 -1.0443
 2937TIP3    H230227   6.598   4.334   6.487 -3.2528  0.3102 -1.2392
 2938TIP3   OH230228   4.997   0.557   3.949 -0.4850 -0.5972 -0.1560
 2938TIP3    H130229   5.028   0.491   3.888  1.2624  0.7457 -0.8149
 2938TIP3    H230230   4.905   0.535   3.963 -0.9002 -1.1650 -3.0348
 2939TIP3   OH230231   2.860   2.900  11.725  0.3355  0.5755  0.4203
 2939TIP3    H130232   2.929   2.944  11.776  0.8092  1.1809 -0.7167
 2939TIP3    H230233   2.868   2.936  11.637 -0.9487  0.0802  0.0775
 2940TIP3   OH230234   0.517   0.949  11.557  0.2362 -0.2787 -0.1030
 2940TIP3    H130235   0.547   0.990  11.639  1.3457  2.3057 -1.6623
 2940TIP3    H230236   0.436   0.995  11.536  1.1786  0.7704 -1.5873
 2941TIP3   OH230237   5.347   3.454   5.118 -0.0697 -0.1977  0.7361
 2941TIP3    H130238   5.441   3.434   5.119  0.2617  1.0422 -0.8422
 2941TIP3    H230239   5.310   3.394   5.054  0.1643  1.0849 -0.6747
 2942TIP3   OH230240   6.334   3.940  11.640  0.3053  0.5540 -0.0410
 2942TIP3    H130241   6.341   3.929  11.545 -1.1024 -0.4448 -0.0734
 2942TIP3    H230242   6.274   3.869  11.667  0.3376  1.0949  1.5247
 2943TIP3   OH230243   2.787   6.306   1.125  0.5152  0.1173 -0.1163
 2943TIP3    H130244   2.696   6.299   1.096  0.5959 -1.7300 -0.0381
 2943TIP3    H230245   2.810   6.398   1.109 -0.6349  0.0937 -2.2987
 2944TIP3   OH230246   5.769   4.705  17.301  0.3332 -0.1214  0.5147
 2944TIP3    H130247   5.844   4.660  17.261 -0.6181 -0.7169 -0.6809
 2944TIP3    H230248   5.771   4.677  17.393  2.0509  0.5493  0.7264
 2945TIP3   OH230249   2.941   4.065  10.531  0.0020 -0.6485 -0.0746
 2945TIP3    H130250   3.009   4.132  10.532  1.9712 -2.3787  3.3935
 2945TIP3    H230251   2.976   3.996  10.474  0.1778 -0.6651  0.0523
 2946TIP3   OH230252   0.907   2.834  12.508 -0.2274  0.1622 -0.0776
 2946TIP3    H130253   0.934   2.743  12.496  0.1067  0.1085  1.0182
 2946TIP3    H230254   0.828   2.829  12.563 -1.4613  0.4306 -1.7267
 2947TIP3   OH230255   6.077   4.418  16.065  0.3466  0.2671  0.4033
 2947TIP3    H130256   6.157   4.462  16.092  0.1949  0.4723  0.5233
 2947TIP3    H230257   6.102   4.366  15.990  0.9734 -0.9706  1.4303
 2948TIP3   OH230258   4.922   1.723   4.772  0.3546  0.0903  0.4903
 2948TIP3    H130259   4.860   1.654   4.796  1.3843 -0.4288  1.7830
 2948TIP3    H230260   4.960   1.693   4.690  1.2233 -1.2278  1.3263
 2949TIP3   OH230261   5.405   5.629   2.234  0.1165 -0.0365 -0.9504
 2949TIP3    H130262   5.400   5.537   2.205 -0.5927 -1.0573  2.0647
 2949TIP3    H230263   5.432   5.624   2.325  1.6502  2.9098 -1.1206
 2950TIP3   OH230264   1.575   1.095  12.349  0.1354  0.3331 -0.2349
 2950TIP3    H130265   1.580   1.094  12.445 -0.3679 -1.6780 -0.1789
 2950TIP3    H230266   1.641   1.032  12.321 -2.3205 -2.1119 -0.9521
 2951TIP3   OH230267   5.078   6.011   4.707 -0.2617 -0.0802  0.0254
 2951TIP3    H130268   5.003   6.046   4.756 -0.3125  0.1636 -0.2272
 2951TIP3    H230269   5.103   6.081   4.647  1.8237  0.8901  1.8713
 2952TIP3   OH230270   2.882   5.669   1.506 -0.3743 -0.0509  0.6135
 2952TIP3    H130271   2.939   5.685   1.581  0.5687 -0.5045  0.0109
 2952TIP3    H230272   2.909   5.734   1.441 -0.2400 -0.5389  0.1715
 2953TIP3   OH230273   2.740   0.611   3.905  0.8061  0.1537  0.1940
 2953TIP3    H130274   2.738   0.515   3.912 -0.0622  0.1675  0.2283
 2953TIP3    H230275   2.829   0.630   3.874  0.6651 -0.7411 -0.8412
 2954TIP3   OH230276   3.574   1.490  13.189 -0.0761 -0.4656 -0.2439
 2954TIP3    H130277   3.547   1.535  13.109  0.7068  1.3115  0.4578
 2954TIP3    H230278   3.494   1.487  13.242 -0.9105 -2.6563 -1.4358
 2955TIP3   OH230279   0.959   3.121  15.602 -0.7117  0.2574  0.0459
 2955TIP3    H130280   1.027   3.181  15.630 -1.5381  1.7670 -1.0249
 2955TIP3    H230281   1.005   3.040  15.580  0.9400  1.5895 -1.7552
 2956TIP3   OH230282   0.168   5.719  12.768 -0.1135 -0.0800  0.2902
 2956TIP3    H130283   0.172   5.812  12.746  0.8730 -0.6457 -2.1768
 2956TIP3    H230284   0.076   5.704  12.792 -0.1475  1.6173  1.4058
 2957TIP3   OH230285   6.438   4.226   0.351 -0.2923  0.0178  0.2588
 2957TIP3    H130286   6.419   4.135   0.327  0.0143  0.5301 -2.2642
 2957TIP3    H230287   6.533   4.230   0.360 -0.1977  0.2684 -0.6930
 2958TIP3   OH230288   6.464   0.359  13.320 -0.4206  0.2791 -0.2114
 2958TIP3    H130289   6.372   0.377  13.302 -0.1804 -0.0987 -2.0137
 2958TIP3    H230290   6.510   0.390  13.243  1.4464  3.7068  2.0124
 2959TIP3   OH230291   6.206   0.156  12.035  0.2879 -0.0662  0.1548
 2959TIP3    H130292   6.284   0.192  11.992 -0.6456  0.6189 -1.0230
 2959TIP3    H230293   6.141   0.149  11.965 -0.6893 -0.7268  1.0945
 2960TIP3   OH230294   0.328   2.787  11.859 -0.5656 -0.0737 -0.0891
 2960TIP3    H130295   0.242   2.745  11.854 -0.4411 -0.2987 -0.3620
 2960TIP3    H230296   0.338   2.809  11.952  0.1929 -2.3915  0.4526
 2961TIP3   OH230297   5.204   3.983   2.092 -0.4391  0.3360 -0.1093
 2961TIP3    H130298   5.128   4.036   2.068 -2.0314 -1.4882  0.6378
 2961TIP3    H230299   5.221   4.005   2.184  0.5173  1.3684 -0.5136
 2962TIP3   OH230300   5.584   2.084  13.035 -0.2508 -0.1375  0.2463
 2962TIP3    H130301   5.521   2.024  12.995  0.9744 -0.4319 -1.3214
 2962TIP3    H230302   5.579   2.064  13.129 -1.0044 -1.5730 -0.0669
 2963TIP3   OH230303   0.620   1.566   1.419 -0.6652 -0.1917  0.0540
 2963TIP3    H130304   0.603   1.473   1.405 -0.5596 -0.2615  0.3688
 2963TIP3    H230305   0.613   1.578   1.514  0.3551 -0.0922  0.1318
 2964TIP3   OH230306   0.190   5.176   2.863  0.4166  0.1063  0.3546
 2964TIP3    H130307   0.154   5.241   2.924 -1.1128  0.4564 -0.8626
 2964TIP3    H230308   0.275   5.152   2.901 -0.4074  0.4211  2.5176
 2965TIP3   OH230309   2.354   6.415   0.893 -0.1436  0.1701 -0.8129
 2965TIP3    H130310   2.270   6.379   0.865 -0.3719 -0.5721  0.7066
 2965TIP3    H230311   2.343   6.431   0.987  1.7664 -0.9946 -0.3414
 2966TIP3   OH230312   2.596   1.624   6.309  0.1995  0.6220 -0.4698
 2966TIP3    H130313   2.675   1.587   6.269  1.4850  1.3633  1.2939
 2966TIP3    H230314   2.531   1.620   6.239  1.6363 -0.4613 -1.8328
 2967TIP3   OH230315   6.150   5.644   5.776 -0.2227 -0.3889 -0.0674
 2967TIP3    H130316   6.064   5.676   5.805 -0.0967 -0.0245 -0.0941
 2967TIP3    H230317   6.193   5.720   5.739 -1.0467 -1.1772 -2.8598
 2968TIP3   OH230318   6.780   2.668  12.473 -0.0101 -0.2720 -0.0569
 2968TIP3    H130319   6.802   2.576  12.484  1.7783  0.0908 -0.3654
 2968TIP3    H230320   6.726   2.671  12.394 -2.6972 -1.3741  1.5813
 2969TIP3   OH230321   3.362   6.601   5.789 -0.0293 -0.2284 -0.2378
 2969TIP3    H130322   3.412   6.581   5.868  0.3164  1.2965 -0.0326
 2969TIP3    H230323   3.417   6.571   5.717  0.5087  0.0723  0.0445
 2970TIP3   OH230324   4.578   6.342  14.435  0.6503 -0.5008 -0.3436
 2970TIP3    H130325   4.565   6.247  14.429 -3.5608 -0.0151 -3.0865
 2970TIP3    H230326   4.647   6.360  14.371 -2.2442 -1.4581 -4.1104
 2971TIP3   OH230327   6.606   4.725   6.129  0.0273  0.0790  0.0111
 2971TIP3    H130328   6.678   4.663   6.114 -0.1859 -0.1131 -0.2219
 2971TIP3    H230329   6.540   4.674   6.176 -1.1204 -0.5299 -2.1627
 2972TIP3   OH230330   0.641   3.525   1.070  0.7970  0.4494 -0.6758
 2972TIP3    H130331   0.727   3.522   1.113 -0.4099  1.6413  2.0071
 2972TIP3    H230332   0.596   3.446   1.100  0.7306  0.0890 -1.6768
 2973TIP3   OH230333   4.567   6.017  12.518  0.3177 -0.4693  0.4927
 2973TIP3    H130334   4.487   6.057  12.552 -0.7900 -1.2008 -1.1347
 2973TIP3    H230335   4.609   6.087  12.468  0.0951 -0.4101  0.3869
 2974TIP3   OH230336   4.633   3.498  13.014 -0.0250  0.2543 -0.2034
 2974TIP3    H130337   4.591   3.418  12.983 -0.0613 -0.5894  1.8679
 2974TIP3    H230338   4.669   3.539  12.935 -0.5120 -1.4969 -1.3765
 2975TIP3   OH230339   2.210   4.050   2.335  0.0216 -0.4086  0.3787
 2975TIP3    H130340   2.297   4.090   2.335  1.3759 -3.1242  0.3496
 2975TIP3    H230341   2.149   4.124   2.329  2.2998  1.5844  0.4747
 2976TIP3   OH230342   5.137   4.758  11.581 -0.1262  0.5557 -0.3118
 2976TIP3    H130343   5.123   4.741  11.487  0.5081  0.6085 -0.4212
 2976TIP3    H230344   5.054   4.795  11.611 -0.5623 -0.0836 -0.7056
 2977TIP3   OH230345   3.444   6.088  14.506 -0.1106 -0.4318 -0.4570
 2977TIP3    H130346   3.429   6.054  14.417  1.8163 -3.3007  0.1463
 2977TIP3    H230347   3.538   6.078  14.519 -0.1706  1.0655  1.5292
 2978TIP3   OH230348   5.517   2.222  14.746 -0.7842 -0.0772  0.4021
 2978TIP3    H130349   5.550   2.258  14.663 -1.4463 -0.3958 -0.0134
 2978TIP3    H230350   5.533   2.128  14.740  0.9306  0.1051  1.4832
 2979TIP3   OH230351   0.462   6.073  13.904  0.0254  0.1576  0.3122
 2979TIP3    H130352   0.396   6.051  13.839  0.6016  0.6420 -0.4436
 2979TIP3    H230353   0.465   6.168  13.905  1.6540  0.1507 -0.6554
 2980TIP3   OH230354   3.884   6.697  16.503  0.3424 -0.0628  0.3908
 2980TIP3    H130355   3.918   6.773  16.550  1.1686  0.4129 -0.9144
 2980TIP3    H230356   3.863   6.634  16.571  0.4057  1.0282  1.4599
 2981TIP3   OH230357   0.320   2.237  14.627  0.4045  0.0966  0.2831
 2981TIP3    H130358   0.369   2.156  14.611  0.3727  0.1161  0.0901
 2981TIP3    H230359   0.280   2.258  14.543  0.0918  0.1020  0.4336
 2982TIP3   OH230360   4.190   4.498  17.256  0.1199  0.6393  0.4671
 2982TIP3    H130361   4.258   4.434  17.278  0.4943  0.1860 -1.7757
 2982TIP3    H230362   4.108   4.451  17.271  0.3120  0.6154  1.5475
 2983TIP3   OH230363   6.056   2.128  16.408  0.9974 -0.7920  0.1882
 2983TIP3    H130364   6.094   2.046  16.441 -0.4995 -1.0058  1.5357
 2983TIP3    H230365   6.067   2.190  16.480 -2.0454 -1.1631  1.1092
 2984TIP3   OH230366   3.436   1.145   1.810  0.1586 -0.2054 -0.0506
 2984TIP3    H130367   3.394   1.214   1.758 -0.1689  0.0201  0.5070
 2984TIP3    H230368   3.479   1.089   1.745 -0.5231 -0.1136 -0.5870
 2985TIP3   OH230369   1.603   1.127   4.228 -0.1538 -0.0739  0.2438
 2985TIP3    H130370   1.533   1.173   4.275 -1.0141 -1.7461  0.6698
 2985TIP3    H230371   1.633   1.190   4.163 -1.8031  0.8291  0.3006
 2986TIP3   OH230372   2.769   5.583  16.056  0.1940  0.0099  0.0790
 2986TIP3    H130373   2.678   5.607  16.038  0.2406  0.8539  0.9297
 2986TIP3    H230374   2.813   5.591  15.971 -0.0449  1.8136  0.0946
 2987TIP3   OH230375   1.622   5.955  14.556  0.2192  0.1939  0.1891
 2987TIP3    H130376   1.607   6.011  14.480  1.8566 -1.3164 -1.3454
 2987TIP3    H230377   1.669   6.011  14.618 -0.3502  1.2051 -0.2574
 2988TIP3   OH230378   0.776   3.319   0.599  0.4817  0.2880 -0.1600
 2988TIP3    H130379   0.703   3.266   0.569  0.4815  0.4229 -0.4051
 2988TIP3    H230380   0.766   3.402   0.553  1.7319 -0.2649 -1.5376
 2989TIP3   OH230381   1.524   4.482  15.793  0.1884 -0.4175 -0.0401
 2989TIP3    H130382   1.581   4.529  15.854 -0.0347  0.6539 -0.6195
 2989TIP3    H230383   1.577   4.409  15.761  1.4307  0.8234 -0.9283
 2990TIP3   OH230384   3.727   1.753   1.669 -0.3115 -0.4131 -0.3146
 2990TIP3    H130385   3.702   1.816   1.737  0.2754  0.1263 -0.5871
 2990TIP3    H230386   3.648   1.742   1.616 -1.3290 -2.1572  1.4394
 2991TIP3   OH230387   2.444   2.084  14.916  0.2203  0.5579  0.2229
 2991TIP3    H130388   2.408   2.172  14.901 -0.3205  0.4650  0.9315
 2991TIP3    H230389   2.433   2.069  15.010 -0.6535 -0.6783 -0.0464
 2992TIP3   OH230390   6.310   2.022  11.886  0.1310 -0.6685 -0.0028
 2992TIP3    H130391   6.378   1.961  11.857  0.5218 -0.6897  0.9395
 2992TIP3    H230392   6.232   1.968  11.895  0.0529 -0.7029 -0.7864
 2993TIP3   OH230393   1.799   1.818   0.833 -0.3003 -0.0723  0.4373
 2993TIP3    H130394   1.759   1.735   0.806 -1.6131  0.7647 -0.3464
 2993TIP3    H230395   1.749   1.845   0.910  0.6257 -0.3509  1.1594
 2994TIP3   OH230396   1.127   3.849   2.717  0.0775  0.8614 -0.4488
 2994TIP3    H130397   1.106   3.934   2.679 -0.4891  0.9629  0.0572
 2994TIP3    H230398   1.122   3.863   2.812 -0.5493  0.1519 -0.3604
 2995TIP3   OH230399   0.638   4.514  16.604 -0.2663  0.2980  0.2230
 2995TIP3    H130400   0.719   4.552  16.570  0.0070  1.1555  1.7275
 2995TIP3    H230401   0.632   4.547  16.694 -0.7949 -2.0281  1.1288
 2996TIP3   OH230402   2.834   5.671  14.979  0.0984  0.0360  0.0677
 2996TIP3    H130403   2.886   5.605  14.936 -0.6123  0.2349 -1.1333
 2996TIP3    H230404   2.744   5.651  14.954 -0.0792  1.8193 -0.8695
 2997TIP3   OH230405   1.910   2.398  14.601 -0.5625  0.4820 -0.3909
 2997TIP3    H130406   1.983   2.337  14.602 -0.4783  0.5900  0.0884
 2997TIP3    H230407   1.892   2.412  14.508  0.3184  0.7952 -0.5233
 2998TIP3   OH230408   1.875   1.316  16.859  0.0412  0.8892 -0.4233
 2998TIP3    H130409   1.819   1.392  16.848  0.4952  1.2759 -0.0989
 2998TIP3    H230410   1.824   1.256  16.913 -1.0473  0.1868 -2.1622
 2999TIP3   OH230411   4.785   6.724  11.195  0.2217 -0.3688  0.0517
 2999TIP3    H130412   4.828   6.707  11.111 -0.7241 -0.4285 -0.4366
 2999TIP3    H230413   4.826   6.805  11.226  0.2627 -0.0919 -0.6945
 3000TIP3   OH230414   1.758   6.131   5.827  0.3515 -0.1850 -0.1995
 3000TIP3    H130415   1.845   6.158   5.857  0.2927 -0.8120  0.5546
 3000TIP3    H230416   1.731   6.062   5.888 -0.4359 -0.3987 -0.7676
 3001TIP3   OH230417   0.775   1.727   0.653  0.5519  0.0453 -0.1951
 3001TIP3    H130418   0.725   1.725   0.571  0.0272 -0.4474  0.1243
 3001TIP3    H230419   0.866   1.718   0.626  0.3824 -0.1159 -0.7271
 3002TIP3   OH230420   4.496   2.631   5.623  0.3285 -0.4241  0.8208
 3002TIP3    H130421   4.516   2.537   5.621  2.2589 -0.0455 -0.2962
 3002TIP3    H230422   4.580   2.674   5.610 -0.6442  1.4628  0.3333
 3003TIP3   OH230423   5.239   0.463  14.243 -0.7065 -0.9193 -0.0539
 3003TIP3    H130424   5.152   0.428  14.222 -0.3869 -1.6777 -0.1547
 3003TIP3    H230425   5.258   0.427  14.329 -0.1700 -1.3963 -0.3649
 3004TIP3   OH230426   1.216   4.158  15.127 -0.1152 -0.4760  0.4147
 3004TIP3    H130427   1.253   4.240  15.161 -1.0089 -0.2616  0.8909
 3004TIP3    H230428   1.253   4.090  15.184  1.3690 -0.5267 -0.5579
 3005TIP3   OH230429   2.778   2.016  16.442  0.5510  0.2318 -0.2960
 3005TIP3    H130430   2.868   2.010  16.475  0.1350 -1.5090  0.6195
 3005TIP3    H230431   2.775   2.101  16.398  3.0722 -0.2553 -1.6223
 3006TIP3   OH230432   2.851   4.420  12.079 -0.4374  0.3984  0.4259
 3006TIP3    H130433   2.762   4.455  12.079 -0.3221  0.7778  2.0594
 3006TIP3    H230434   2.895   4.466  12.150  0.9949  0.0243 -0.1863
 3007TIP3   OH230435   6.141   1.887   2.958 -0.4070  0.2222 -0.3606
 3007TIP3    H130436   6.090   1.940   3.020 -2.0697  0.5588 -1.9315
 3007TIP3    H230437   6.087   1.884   2.879  0.2149 -2.7805 -0.7848
 3008TIP3   OH230438   1.197   3.605   0.772 -0.6407  0.1953 -0.3832
 3008TIP3    H130439   1.242   3.606   0.856  0.7830  0.3609 -1.1077
 3008TIP3    H230440   1.210   3.693   0.737  0.1722 -0.3197 -1.4452
 3009TIP3   OH230441   1.904   6.520   0.514  0.5249 -0.0524 -0.3899
 3009TIP3    H130442   1.811   6.534   0.499  0.3222  1.4671  1.8484
 3009TIP3    H230443   1.911   6.427   0.538 -0.2842 -0.3567 -1.3047
 3010TIP3   OH230444   4.042   5.618  11.562 -0.0490 -0.4755 -0.4495
 3010TIP3    H130445   4.131   5.603  11.594 -0.5730 -2.9317  0.0853
 3010TIP3    H230446   4.052   5.638  11.469  1.2699  3.4484  0.3544
 3011TIP3   OH230447   0.823   0.730   3.651  0.5645 -0.1635  0.0822
 3011TIP3    H130448   0.798   0.773   3.733  1.6564 -0.0062  0.3522
 3011TIP3    H230449   0.762   0.657   3.642 -1.1313  1.2335 -0.2326
 3012TIP3   OH230450   3.956   5.975  17.131  0.1540 -0.3128 -0.5952
 3012TIP3    H130451   3.862   5.993  17.124  0.5250  2.2311 -0.3303
 3012TIP3    H230452   3.968   5.943  17.221 -0.5498 -1.4598 -0.9024
 3013TIP3   OH230453   6.738   6.450  12.680  1.1320 -0.0100  0.0305
 3013TIP3    H130454   6.793   6.520  12.716  2.1681  0.1698 -1.7553
 3013TIP3    H230455   6.727   6.474  12.588 -1.6541 -0.2773  0.2074
 3014TIP3   OH230456   4.691   3.127  13.174  0.3593  0.1760 -0.8745
 3014TIP3    H130457   4.633   3.152  13.102 -0.1722 -0.2357 -0.5977
 3014TIP3    H230458   4.682   3.032  13.180 -0.4011  0.3050  0.3909
 3015TIP3   OH230459   2.052   3.812   0.201  0.3095  0.0394  0.2376
 3015TIP3    H130460   2.133   3.786   0.157  0.1024  0.0531 -0.1639
 3015TIP3    H230461   2.023   3.890   0.154 -0.4782 -0.5616 -0.3006
 3016TIP3   OH230462   6.012   1.323   1.443  0.3902 -0.0124  0.4521
 3016TIP3    H130463   5.935   1.343   1.497 -0.0875 -1.8641  0.5519
 3016TIP3    H230464   6.086   1.354   1.494 -0.2560  1.9287  0.3063
 3017TIP3   OH230465   2.852   1.335  15.752  0.7793 -0.1922  0.5113
 3017TIP3    H130466   2.875   1.267  15.815  2.3102 -0.1748  0.0060
 3017TIP3    H230467   2.935   1.358  15.709  0.5214  2.6955  1.3501
 3018TIP3   OH230468   2.342   6.636  13.926  0.1188 -0.5898 -0.4072
 3018TIP3    H130469   2.291   6.557  13.943 -3.0661  1.4152  0.2424
 3018TIP3    H230470   2.290   6.685  13.862  2.2049  0.8294 -1.1554
 3019TIP3   OH230471   5.586   2.533  13.619 -0.6039 -0.3739  0.3406
 3019TIP3    H130472   5.595   2.611  13.674  2.1486  2.1718 -3.1516
 3019TIP3    H230473   5.497   2.539  13.584 -0.9875  0.2443  1.3607
 3020TIP3   OH230474   2.135   3.233  14.293  0.2443 -0.2919 -0.3747
 3020TIP3    H130475   2.207   3.290  14.320  1.8442 -2.8688  1.1317
 3020TIP3    H230476   2.092   3.207  14.374 -0.1098 -1.6421 -0.9650
 3021TIP3   OH230477   2.392   5.825  12.758  0.1920  0.6140 -0.0535
 3021TIP3    H130478   2.346   5.752  12.801  0.4566  0.7991  0.5480
 3021TIP3    H230479   2.327   5.894  12.751 -0.1926  0.1804 -1.0314
 3022TIP3   OH230480   5.408   4.916  12.317  0.3214  0.2474 -0.1217
 3022TIP3    H130481   5.500   4.930  12.340 -0.1540 -0.0467  2.1547
 3022TIP3    H230482   5.412   4.855  12.243  1.9525 -1.1921  1.0537
 3023TIP3   OH230483   0.429   0.509   4.865  0.0141  0.3696 -0.0435
 3023TIP3    H130484   0.369   0.494   4.792 -0.4917  0.5442  0.3392
 3023TIP3    H230485   0.406   0.443   4.930  0.2236  0.4492  0.1134
 3024TIP3   OH230486   1.781   0.192   5.422 -0.2050 -0.7343  0.4629
 3024TIP3    H130487   1.757   0.240   5.343  0.3673 -0.5291  0.4109
 3024TIP3    H230488   1.701   0.191   5.475 -0.3864 -0.2444  0.2006
 3025TIP3   OH230489   2.249   3.874   3.584 -0.1191 -0.8530  0.0206
 3025TIP3    H130490   2.235   3.796   3.530 -1.5026  0.5319 -1.7633
 3025TIP3    H230491   2.288   3.938   3.524 -1.2786  0.5989  0.7436
 3026TIP3   OH230492   0.552   3.207  12.337 -0.3426  0.0093  0.4337
 3026TIP3    H130493   0.589   3.163  12.260 -1.3824  1.6125 -1.0527
 3026TIP3    H230494   0.492   3.143  12.373  0.4914 -0.9418  0.1983
 3027TIP3   OH230495   6.084   2.019  16.044  0.3633 -0.3047  0.1602
 3027TIP3    H130496   6.151   1.991  16.105 -0.4025  0.6002  1.4789
 3027TIP3    H230497   6.129   2.080  15.985  0.9288 -0.5350  0.3477
 3028TIP3   OH230498   6.374   5.676  14.376 -0.2028  0.0654 -0.1739
 3028TIP3    H130499   6.432   5.733  14.326 -0.6922 -0.2327 -1.1131
 3028TIP3    H230500   6.347   5.728  14.452  2.6828 -0.3811  1.3046
 3029TIP3   OH230501   0.224   5.253   4.743 -0.2780  0.1771  0.0860
 3029TIP3    H130502   0.303   5.230   4.694  0.2500  1.0019  0.5354
 3029TIP3    H230503   0.214   5.347   4.731 -0.5895  0.2560  0.9043
 3030TIP3   OH230504   3.222   0.863   4.346 -0.2526 -0.4450 -0.6158
 3030TIP3    H130505   3.250   0.838   4.434 -0.3803  1.8026  0.1259
 3030TIP3    H230506   3.127   0.872   4.352 -0.1502  0.8211 -0.6557
 3031TIP3   OH230507   4.643   2.321   5.283  0.3139  0.4895  0.3139
 3031TIP3    H130508   4.622   2.353   5.196  0.7231 -4.1085 -1.7673
 3031TIP3    H230509   4.735   2.346   5.296  0.2417  1.2542 -0.5368
 3032TIP3   OH230510   4.665   0.806   1.475 -0.3787 -0.4199  0.3118
 3032TIP3    H130511   4.661   0.779   1.383 -2.6298  1.2223 -0.1584
 3032TIP3    H230512   4.719   0.740   1.517 -0.6833 -2.1679 -1.8611
 3033TIP3   OH230513   5.142   3.303   0.997  0.1840  0.3373  0.5330
 3033TIP3    H130514   5.156   3.395   1.019 -0.0746  0.7282 -0.8108
 3033TIP3    H230515   5.049   3.298   0.974  0.3559 -0.0901 -0.1006
 3034TIP3   OH230516   5.750   6.685  12.871 -0.2629  0.4768 -0.3695
 3034TIP3    H130517   5.805   6.606  12.873  0.1253  0.7214 -0.9702
 3034TIP3    H230518   5.671   6.657  12.824 -0.8214  0.0288  0.8101
 3035TIP3   OH230519   0.855   3.518  12.987  0.4522 -0.0016  0.6517
 3035TIP3    H130520   0.894   3.441  13.029  2.2974  0.8025  0.5325
 3035TIP3    H230521   0.826   3.572  13.060 -1.0550 -0.8591  0.7345
 3036TIP3   OH230522   4.387   2.348   1.877 -0.4598 -0.0116  0.2073
 3036TIP3    H130523   4.408   2.259   1.905  1.4260  0.2749 -0.1962
 3036TIP3    H230524   4.360   2.338   1.785  1.3722 -0.0141 -0.3646
 3037TIP3   OH230525   3.448   1.016  12.133 -0.0005 -0.8959  0.3596
 3037TIP3    H130526   3.497   1.020  12.215 -0.2855 -1.2234  0.5485
 3037TIP3    H230527   3.371   1.072  12.148  0.4961 -0.0772 -0.0664
 3038TIP3   OH230528   0.784   6.300  11.116 -0.1710  0.0227 -0.0460
 3038TIP3    H130529   0.706   6.340  11.078  0.4957 -1.2015 -2.9966
 3038TIP3    H230530   0.757   6.211  11.138 -0.2675  0.4092  1.5170
 3039TIP3   OH230531   2.081   0.494  10.941  0.0493  0.3831 -0.4927
 3039TIP3    H130532   2.115   0.584  10.942  1.3512 -0.0833 -0.0590
 3039TIP3    H230533   2.045   0.483  10.853  1.7652  0.6760 -1.2705
 3040TIP3   OH230534   0.278   1.356   1.294  0.6532 -0.0732 -1.0010
 3040TIP3    H130535   0.208   1.385   1.234  0.9145  1.7939 -0.4554
 3040TIP3    H230536   0.323   1.287   1.246  0.5013  0.9845 -2.7383
 3041TIP3   OH230537   4.962   3.524  16.945 -0.0022  0.6552 -0.5234
 3041TIP3    H130538   4.895   3.580  16.905 -0.8970  0.3420  0.5071
 3041TIP3    H230539   4.950   3.439  16.903  0.3069  0.8047 -0.9279
 3042TIP3   OH230540   0.289   3.497   4.034 -0.0570  0.2332  0.0806
 3042TIP3    H130541   0.362   3.559   4.035  0.5485 -0.4673  1.0974
 3042TIP3    H230542   0.216   3.547   4.072  0.7793 -0.0314  2.1855
 3043TIP3   OH230543   2.104   6.291   1.533 -0.0968  0.5653  0.0868
 3043TIP3    H130544   2.011   6.294   1.513 -0.5420  0.7895  2.0057
 3043TIP3    H230545   2.114   6.216   1.593  0.5708  1.7704  1.5568
 3044TIP3   OH230546   2.442   1.697  16.175  0.4229 -0.0049  0.2324
 3044TIP3    H130547   2.454   1.792  16.166  0.8021 -0.0855 -0.1683
 3044TIP3    H230548   2.523   1.667  16.216 -0.0294 -0.0546  1.0959
 3045TIP3   OH230549   0.187   3.802  12.418 -0.2556  0.1119  0.2108
 3045TIP3    H130550   0.167   3.720  12.463  0.4471  0.8109  1.8569
 3045TIP3    H230551   0.282   3.807  12.419 -0.2924  0.9399  0.0695
 3046TIP3   OH230552   0.816   5.648  11.294  0.3828 -0.0606 -0.1549
 3046TIP3    H130553   0.844   5.567  11.252  1.4832  0.5311 -0.6208
 3046TIP3    H230554   0.808   5.711  11.223  0.8064  0.5726  0.3428
 3047TIP3   OH230555   1.418   3.910  16.808 -0.1708 -0.0070 -0.4620
 3047TIP3    H130556   1.431   3.863  16.890 -1.5650  1.4431  0.6488
 3047TIP3    H230557   1.499   3.959  16.796  0.1608 -0.4575 -0.1184
 3048TIP3   OH230558   6.390   1.092  11.261  0.4278  0.0567 -0.0012
 3048TIP3    H130559   6.324   1.160  11.243  0.1269 -0.3478 -0.4519
 3048TIP3    H230560   6.426   1.070  11.175  0.8254 -0.0564  0.1916
 3049TIP3   OH230561   1.284   4.575   6.118 -0.1279  0.8013 -0.1188
 3049TIP3    H130562   1.294   4.642   6.051  0.2008  1.0658  0.1937
 3049TIP3    H230563   1.373   4.545   6.136 -0.0659  1.6309  1.0986
 3050TIP3   OH230564   1.484   3.730  13.253 -0.1596 -0.4769  0.0797
 3050TIP3    H130565   1.536   3.696  13.181  0.0818 -0.1262  0.0891
 3050TIP3    H230566   1.498   3.824  13.251  1.6511 -0.6445  1.9725
 3051TIP3   OH230567   0.791   5.701  11.733 -0.3391 -0.5616  0.1804
 3051TIP3    H130568   0.863   5.737  11.785  0.2852 -0.3372 -0.8174
 3051TIP3    H230569   0.748   5.777  11.694  0.7178 -0.8075 -1.5834
 3052TIP3   OH230570   3.537   4.305  12.322 -0.7599  0.4560 -0.7379
 3052TIP3    H130571   3.617   4.307  12.375 -1.3489 -0.6959  0.2453
 3052TIP3    H230572   3.553   4.367  12.251  0.9735  0.2942 -0.5183
 3053TIP3   OH230573   3.619   2.187  15.611  0.1782  0.4298  0.4514
 3053TIP3    H130574   3.643   2.105  15.567  0.0919  0.3943  0.4698
 3053TIP3    H230575   3.526   2.199  15.589  0.0786  0.3045  0.7949
 3054TIP3   OH230576   2.190   3.104   3.666  0.3604  0.6478  0.5977
 3054TIP3    H130577   2.206   3.028   3.611  0.9339  1.6457 -0.6539
 3054TIP3    H230578   2.250   3.093   3.740  0.5391 -0.0238  0.3596
 3055TIP3   OH230579   3.907   4.499   2.320  0.3581 -0.0453  0.3247
 3055TIP3    H130580   3.871   4.567   2.263 -0.4177  0.2328  1.1308
 3055TIP3    H230581   4.002   4.507   2.311  0.2546 -0.3746 -1.3528
 3056TIP3   OH230582   6.458   3.673   5.427 -0.1148 -0.0934 -0.3960
 3056TIP3    H130583   6.511   3.677   5.348  0.9390 -0.9247  0.2381
 3056TIP3    H230584   6.450   3.580   5.446 -1.3301  0.0473 -0.1505
 3057TIP3   OH230585   4.288   6.215  14.650  0.0475 -0.3376 -0.5110
 3057TIP3    H130586   4.255   6.132  14.684 -0.4480  0.9118  2.3300
 3057TIP3    H230587   4.374   6.226  14.692  0.2763  0.4130 -1.1416
 3058TIP3   OH230588   0.724   0.352   1.658 -0.1334  0.1478  0.5734
 3058TIP3    H130589   0.725   0.435   1.610 -0.2724 -0.5306 -0.6240
 3058TIP3    H230590   0.644   0.356   1.710 -0.9545  0.1298 -0.6514
 3059TIP3   OH230591   1.012   3.127  14.411  0.4874  0.2972 -0.0453
 3059TIP3    H130592   0.918   3.117  14.428  0.4775 -1.9900 -1.0840
 3059TIP3    H230593   1.018   3.197  14.346 -0.9295 -1.8907 -2.7724
 3060TIP3   OH230594   6.612   1.703   2.125 -0.2361  0.4474  0.0602
 3060TIP3    H130595   6.653   1.776   2.079  0.3557 -1.0569 -1.9144
 3060TIP3    H230596   6.670   1.687   2.200  3.2187 -1.8297 -2.8031
 3061TIP3   OH230597   3.402   4.641  15.680  0.1017 -0.6434 -0.3879
 3061TIP3    H130598   3.398   4.723  15.632  4.5371 -0.7186 -1.3102
 3061TIP3    H230599   3.356   4.578  15.624 -0.5894  0.5720 -1.2243
 3062TIP3   OH230600   4.417   1.328   5.696 -0.1700 -0.2022 -0.0837
 3062TIP3    H130601   4.353   1.375   5.642 -1.0563 -0.5910  0.6131
 3062TIP3    H230602   4.384   1.238   5.698 -1.5810  0.2645  3.1318
 3063TIP3   OH230603   1.262   3.254   1.007 -0.1013  0.2698  0.2366
 3063TIP3    H130604   1.234   3.204   0.930  0.5191  1.9486 -1.1413
 3063TIP3    H230605   1.329   3.200   1.048 -1.1479 -1.1107  0.2229
 3064TIP3   OH230606   5.193   2.133   4.574  0.2575  0.0150  0.1292
 3064TIP3    H130607   5.175   2.171   4.660 -2.0179  0.4266 -0.4772
 3064TIP3    H230608   5.117   2.077   4.555  0.6740 -0.0237 -1.6294
 3065TIP3   OH230609   1.066   1.714   5.203  0.0709  0.0962  0.1235
 3065TIP3    H130610   0.976   1.703   5.173  0.6888 -0.6456 -1.6039
 3065TIP3    H230611   1.119   1.700   5.125  1.6968  0.4408  1.1175
 3066TIP3   OH230612   3.339   4.509   4.488 -0.0297  0.1228  0.3959
 3066TIP3    H130613   3.397   4.571   4.532 -0.4524 -0.2884  1.5738
 3066TIP3    H230614   3.346   4.429   4.540 -0.6025 -0.3590 -0.2551
 3067TIP3   OH230615   0.516   1.136  13.239 -0.1811 -0.4658  0.1170
 3067TIP3    H130616   0.539   1.199  13.172  0.5893 -1.1184 -0.2497
 3067TIP3    H230617   0.425   1.155  13.260 -0.4854 -0.3473 -1.2229
 3068TIP3   OH230618   2.806   6.720  15.958  0.0171  0.3481  0.8096
 3068TIP3    H130619   2.800   6.730  15.862  0.5016  0.2501  0.7689
 3068TIP3    H230620   2.820   6.626  15.971  1.8173  0.5867  0.8728
 3069TIP3   OH230621   5.497   6.343   3.075 -0.3357 -0.2104 -0.0478
 3069TIP3    H130622   5.479   6.436   3.058 -1.0452  0.0237  1.7383
 3069TIP3    H230623   5.411   6.301   3.071 -0.1474 -0.6143  0.1133
 3070TIP3   OH230624   1.423   2.907  16.561  0.3025 -0.0156  0.5055
 3070TIP3    H130625   1.336   2.919  16.524  0.0562 -1.1744  0.6630
 3070TIP3    H230626   1.471   2.986  16.537 -0.6991  0.5057  0.1661
 3071TIP3   OH230627   1.952   0.159  15.384 -0.5506 -0.2054 -0.0208
 3071TIP3    H130628   2.034   0.127  15.347  0.8665  1.6839  1.3487
 3071TIP3    H230629   1.915   0.215  15.316  0.2582  0.4398  0.0647
 3072TIP3   OH230630   3.415   5.963  16.481 -0.2273  0.0748  0.2699
 3072TIP3    H130631   3.496   5.999  16.445  0.0420  0.0951  0.8911
 3072TIP3    H230632   3.419   5.981  16.575 -1.8949  1.9133  0.0662
 3073TIP3   OH230633   4.908   6.337   0.653 -0.5365  0.0135 -0.1056
 3073TIP3    H130634   4.970   6.282   0.604 -0.3400 -0.3836  0.5709
 3073TIP3    H230635   4.833   6.279   0.669 -0.3314 -0.0611  0.6079
 3074TIP3   OH230636   1.395   6.733   3.307 -0.1196 -0.0298 -0.4156
 3074TIP3    H130637   1.412   6.722   3.214  1.1435  1.0362 -0.3389
 3074TIP3    H230638   1.321   6.794   3.312  1.5533  2.1719 -0.7665
 3075TIP3   OH230639   4.943   1.054   3.945 -0.0246 -0.0103 -0.2710
 3075TIP3    H130640   4.963   0.962   3.927 -4.1051 -0.8330 -1.7756
 3075TIP3    H230641   4.957   1.099   3.862  1.8242  0.7918  0.4244
 3076TIP3   OH230642   5.511   2.772   3.909 -0.4932  0.4017 -0.0586
 3076TIP3    H130643   5.577   2.703   3.895  1.9200  2.5259 -0.0097
 3076TIP3    H230644   5.475   2.753   3.996 -0.5102 -1.2211 -0.3807
 3077TIP3   OH230645   3.084   2.569   6.550  0.4706  0.1251 -0.5777
 3077TIP3    H130646   3.054   2.522   6.627  0.1667 -1.8961 -1.8677
 3077TIP3    H230647   3.004   2.599   6.506  0.0979 -3.9858 -3.2231
 3078TIP3   OH230648   4.063   6.097   3.239  0.8375  0.0725  0.1479
 3078TIP3    H130649   4.099   6.118   3.153 -0.0416 -0.6093 -0.3970
 3078TIP3    H230650   3.968   6.102   3.227  0.6881 -0.9142  0.8461
 3079TIP3   OH230651   4.314   3.455   4.924  0.1356  0.4152 -0.7879
 3079TIP3    H130652   4.276   3.521   4.866  0.1009 -0.3292 -1.6370
 3079TIP3    H230653   4.324   3.377   4.869  0.6097 -0.1508  0.0674
 3080TIP3   OH230654   0.218   6.244   3.571  0.0591  0.1097  0.2818
 3080TIP3    H130655   0.176   6.196   3.643 -0.1008  1.6921  1.2929
 3080TIP3    H230656   0.309   6.252   3.599 -0.0082  0.7476  0.3390
 3081TIP3   OH230657   6.079   2.637  13.155 -0.2267  0.3225 -0.1055
 3081TIP3    H130658   6.123   2.669  13.076  1.3549  1.0072  1.0155
 3081TIP3    H230659   6.036   2.556  13.127  1.0993  0.0434 -1.4434
 3082TIP3   OH230660   1.511   3.484  12.724  0.1395 -0.1056  0.4278
 3082TIP3    H130661   1.469   3.436  12.795 -1.0822  0.3645  0.0359
 3082TIP3    H230662   1.458   3.466  12.647  1.6530 -0.8990 -0.4872
 3083TIP3   OH230663   5.860   0.425   1.164 -0.1766 -0.3145  0.4283
 3083TIP3    H130664   5.886   0.398   1.252 -1.7933 -1.5436  0.5813
 3083TIP3    H230665   5.836   0.343   1.120  0.5980  0.2710 -1.1783
 3084TIP3   OH230666   2.122   2.488   5.054 -0.0783 -0.3276 -0.2871
 3084TIP3    H130667   2.072   2.456   5.129 -1.4724 -0.3864 -1.2188
 3084TIP3    H230668   2.083   2.573   5.033  0.5126 -0.1673 -0.7631
 3085TIP3   OH230669   5.036   3.072   2.565  0.4114 -0.3147  0.0486
 3085TIP3    H130670   5.016   3.002   2.503  0.4195 -2.2233  2.0808
 3085TIP3    H230671   5.080   3.028   2.638 -1.6919  1.3836  2.5246
 3086TIP3   OH230672   4.938   3.585  16.565  0.6757 -0.5552 -0.3502
 3086TIP3    H130673   4.950   3.672  16.605  1.3588 -0.9232  0.2793
 3086TIP3    H230674   5.021   3.540  16.581  1.3136 -0.4295 -2.9941
 3087TIP3   OH230675   2.724   3.077   0.498 -0.2279  0.3830 -0.4859
 3087TIP3    H130676   2.791   3.139   0.528 -1.1610  1.3137 -0.2460
 3087TIP3    H230677   2.641   3.124   0.511 -0.8776 -0.4597 -1.4646
 3088TIP3   OH230678   6.105   5.840   0.573  0.2494 -0.6846 -0.3998
 3088TIP3    H130679   6.112   5.761   0.626 -1.2356 -0.1974  0.6029
 3088TIP3    H230680   6.084   5.909   0.636  1.0663  0.4335 -1.3143
 3089TIP3   OH230681   4.431   0.099  14.438  0.7444  0.8110 -0.6455
 3089TIP3    H130682   4.366   0.077  14.371  0.1511  1.6217 -0.3522
 3089TIP3    H230683   4.496   0.029  14.431  0.0265  0.1636 -1.1809
 3090TIP3   OH230684   2.170   2.536   0.605 -0.1754  0.3267  0.7153
 3090TIP3    H130685   2.180   2.628   0.579  0.9277  0.0693  0.1907
 3090TIP3    H230686   2.086   2.510   0.567 -0.1115  0.8881  0.1622
 3091TIP3   OH230687   5.221   1.051  12.686  0.0070 -0.0687 -0.1022
 3091TIP3    H130688   5.294   1.043  12.625 -0.5727 -1.2810 -0.6779
 3091TIP3    H230689   5.240   1.130  12.736  1.8661 -0.5010 -0.0352
 3092TIP3   OH230690   3.547   5.624  13.607 -0.8030 -0.1674  0.2237
 3092TIP3    H130691   3.547   5.529  13.601 -0.6711 -0.1945  0.6625
 3092TIP3    H230692   3.486   5.644  13.679 -2.5627  0.1668 -1.2735
 3093TIP3   OH230693   4.858   0.815   3.577  0.2438 -0.2050  0.5790
 3093TIP3    H130694   4.940   0.792   3.620 -0.1540 -2.1796  0.3996
 3093TIP3    H230695   4.793   0.816   3.647  0.0300 -0.9909  0.4061
 3094TIP3   OH230696   1.684   3.818   6.143 -0.1858 -0.3023 -0.5692
 3094TIP3    H130697   1.732   3.895   6.175 -0.2769  0.4798 -2.2111
 3094TIP3    H230698   1.685   3.757   6.217  1.0417  0.7421  0.3307
 3095TIP3   OH230699   1.040   1.302   6.038  0.0067  0.1579 -0.1721
 3095TIP3    H130700   0.962   1.358   6.030 -0.8083 -0.7921  0.7768
 3095TIP3    H230701   1.028   1.236   5.969  0.0776  0.1339 -0.1608
 3096TIP3   OH230702   5.465   3.299   6.341  0.3064 -0.3510  0.3587
 3096TIP3    H130703   5.444   3.384   6.302  0.6047 -0.6556 -0.4837
 3096TIP3    H230704   5.423   3.301   6.427  1.5255  1.2400  0.9825
 3097TIP3   OH230705   0.901   6.364   1.741 -0.0703  0.0930  0.4353
 3097TIP3    H130706   0.834   6.431   1.753 -2.6393 -2.2666  0.3280
 3097TIP3    H230707   0.855   6.293   1.696  2.6453 -1.5411  0.0385
 3098TIP3   OH230708   5.370   2.009   1.339  0.0292  0.0932 -0.7418
 3098TIP3    H130709   5.293   2.025   1.283  0.8737 -0.0545 -1.9833
 3098TIP3    H230710   5.380   2.089   1.389 -0.9196  0.1229 -0.5719
 3099TIP3   OH230711   6.458   3.044   0.381 -0.1091 -0.5267  0.0728
 3099TIP3    H130712   6.481   2.993   0.303  1.5602  0.3406 -0.0314
 3099TIP3    H230713   6.540   3.083   0.409 -0.8203 -0.2530  1.8765
 3100TIP3   OH230714   1.271   6.494   3.808  0.4185 -0.1731 -0.0232
 3100TIP3    H130715   1.301   6.420   3.755  1.1689  0.6666 -0.8029
 3100TIP3    H230716   1.342   6.509   3.870  0.3489  0.0106  0.0125
 3101TIP3   OH230717   4.247   6.552   0.316 -0.0942 -0.1896  0.5307
 3101TIP3    H130718   4.197   6.471   0.328 -0.2258 -0.4230 -1.3912
 3101TIP3    H230719   4.191   6.608   0.262  1.5337 -0.3481 -1.4276
 3102TIP3   OH230720   1.294   1.714   5.751 -0.3860  0.0727 -0.4976
 3102TIP3    H130721   1.234   1.703   5.678 -2.2561  0.7109  0.8612
 3102TIP3    H230722   1.345   1.633   5.754 -2.2679 -1.1647 -0.7550
 3103TIP3   OH230723   0.032   1.111  15.951  0.4940  0.2045 -0.1197
 3103TIP3    H130724   0.075   1.196  15.952  1.9484 -0.4710 -1.5600
 3103TIP3    H230725   0.103   1.047  15.940 -0.6177 -1.1601  0.2554
 3104TIP3   OH230726   2.898   3.855   1.900 -0.4310  0.0986  0.3111
 3104TIP3    H130727   2.985   3.850   1.938 -0.7081  0.5712  1.0251
 3104TIP3    H230728   2.844   3.798   1.955 -0.3614 -1.1087 -0.8015
 3105TIP3   OH230729   2.637   3.223  13.611 -0.0823  0.1080  0.0205
 3105TIP3    H130730   2.561   3.164  13.605  0.2065 -0.3558  0.7529
 3105TIP3    H230731   2.713   3.167  13.599  0.2523  0.0876  1.8853
 3106TIP3   OH230732   4.800   4.319  12.889 -0.5292  0.4646  0.0612
 3106TIP3    H130733   4.825   4.355  12.804 -0.8725  1.2198  0.2801
 3106TIP3    H230734   4.727   4.260  12.869 -0.2363  0.1970 -0.2410
 3107TIP3   OH230735   1.823   0.271   3.123 -0.2597  0.7075  0.3295
 3107TIP3    H130736   1.779   0.330   3.184  0.9773 -0.5620  2.5570
 3107TIP3    H230737   1.793   0.184   3.147  0.5366  0.1323 -0.6777
 3108TIP3   OH230738   1.619   0.616  11.812  0.3747 -0.0197 -0.3241
 3108TIP3    H130739   1.626   0.668  11.892  1.7448  0.0842 -0.4867
 3108TIP3    H230740   1.526   0.618  11.790  0.3829  2.5177 -0.4278
 3109TIP3   OH230741   3.438   5.966   1.549  0.4822  0.0763 -0.2930
 3109TIP3    H130742   3.519   6.015   1.536  1.0550 -0.4753  0.9850
 3109TIP3    H230743   3.374   6.033   1.574  0.3010  0.6198 -2.0730
 3110TIP3   OH230744   2.124   2.151  11.436  0.1543  0.0966  0.0513
 3110TIP3    H130745   2.047   2.169  11.382 -0.1541  0.5772  0.6482
 3110TIP3    H230746   2.117   2.058  11.458 -0.7323  0.3389  0.8418
 3111TIP3   OH230747   0.449   1.173  14.955  0.2507 -0.1400  0.1826
 3111TIP3    H130748   0.397   1.184  14.875 -0.4689 -3.0451  0.1484
 3111TIP3    H230749   0.388   1.192  15.026  0.3516  0.5140  0.1070
 3112TIP3   OH230750   4.367   4.827   5.030  0.1646 -0.6889  0.2947
 3112TIP3    H130751   4.293   4.882   5.054 -0.1988 -0.7788 -0.5820
 3112TIP3    H230752   4.342   4.789   4.945  2.5491  1.8023 -1.6699
 3113TIP3   OH230753   6.015   3.822   2.051 -0.1386  0.7507 -0.5405
 3113TIP3    H130754   5.935   3.851   2.094 -0.0283  0.6688 -0.2719
 3113TIP3    H230755   6.072   3.900   2.052  1.1608 -0.0786  2.5501
 3114TIP3   OH230756   4.519   5.432   2.227 -0.0188  0.0623  0.0153
 3114TIP3    H130757   4.516   5.358   2.287  3.0013 -0.4788 -0.3500
 3114TIP3    H230758   4.473   5.402   2.148 -1.1668 -0.3698  0.8154
 3115TIP3   OH230759   1.954   6.051   2.820  0.1047 -0.5688 -0.1432
 3115TIP3    H130760   1.891   6.050   2.891  1.3605 -0.1891  1.0218
 3115TIP3    H230761   1.902   6.070   2.741 -1.1189  0.3950  0.8571
 3116TIP3   OH230762   0.669   1.323   2.605 -0.3031  0.5626  0.1612
 3116TIP3    H130763   0.762   1.335   2.621  0.0089  0.1465 -1.1943
 3116TIP3    H230764   0.662   1.313   2.510 -1.3723 -2.3059  0.4585
 3117TIP3   OH230765   5.062   0.311   1.085 -0.2635  0.0328 -0.4505
 3117TIP3    H130766   5.091   0.402   1.083  0.2023  0.1287  3.5070
 3117TIP3    H230767   4.968   0.317   1.107  0.2173 -0.3405  1.9890
 3118TIP3   OH230768   4.653   6.681   2.858  0.5810 -0.3562  0.0588
 3118TIP3    H130769   4.632   6.680   2.765  0.7789 -0.2608  0.0132
 3118TIP3    H230770   4.604   6.607   2.894 -1.7034  1.1815  0.3493
 3119TIP3   OH230771   0.777   0.816   6.395  0.9884 -0.2540  0.0485
 3119TIP3    H130772   0.729   0.760   6.333 -0.4599 -0.4329  1.2453
 3119TIP3    H230773   0.708   0.868   6.438  2.0767  0.7641  0.6119
 3120TIP3   OH230774   0.387   2.733   4.374  0.5178  0.1226  0.1340
 3120TIP3    H130775   0.389   2.828   4.370  0.6672  0.1375  0.5638
 3120TIP3    H230776   0.298   2.712   4.403  0.1384  0.0871 -0.9889
 3121TIP3   OH230777   5.849   2.784  14.203 -0.6889  0.6479  0.3802
 3121TIP3    H130778   5.784   2.715  14.189 -0.1981  0.3059 -0.2837
 3121TIP3    H230779   5.850   2.798  14.297  0.4882 -1.5453  0.7553
 3122TIP3   OH230780   2.782   0.705   6.762  0.0993  0.2171  0.2574
 3122TIP3    H130781   2.703   0.716   6.709 -0.9073  1.9328  2.0256
 3122TIP3    H230782   2.841   0.775   6.733  0.5705 -0.3999 -0.3100
 3123TIP3   OH230783   1.084   4.540  15.408 -0.1036  0.6742 -0.2043
 3123TIP3    H130784   1.046   4.627  15.422 -2.5345 -0.4532  0.7557
 3123TIP3    H230785   1.082   4.527  15.313 -1.9299  0.7892 -0.2097
 3124TIP3   OH230786   4.514   2.723  17.036  0.1451 -0.6506 -0.5237
 3124TIP3    H130787   4.459   2.694  16.964 -0.2298  1.3215 -1.0770
 3124TIP3    H230788   4.556   2.802  17.005 -0.8787  0.9147  1.7525
 3125TIP3   OH230789   2.518   2.613  13.664  0.2819 -0.0756 -0.0546
 3125TIP3    H130790   2.476   2.696  13.686  0.9339  0.3617 -0.4178
 3125TIP3    H230791   2.519   2.612  13.568  2.4694  0.6715 -0.0985
 3126TIP3   OH230792   1.784   4.517   0.679  0.3076 -0.3965 -0.8321
 3126TIP3    H130793   1.724   4.572   0.729 -2.0990 -1.3213 -2.5318
 3126TIP3    H230794   1.851   4.578   0.648 -2.1684  1.6674 -2.5492
 3127TIP3   OH230795   4.127   0.101   2.871 -0.3937  0.3734 -0.1780
 3127TIP3    H130796   4.200   0.048   2.902  0.1829  0.8462 -0.7086
 3127TIP3    H230797   4.144   0.189   2.906 -1.1565  0.3018  0.4017
 3128TIP3   OH230798   3.693   3.867   2.874 -0.2366 -0.1649 -0.0027
 3128TIP3    H130799   3.629   3.833   2.812 -0.1390  0.6997 -0.5824
 3128TIP3    H230800   3.666   3.830   2.959 -1.0464 -0.4075 -0.3614
 3129TIP3   OH230801   6.090   1.269   0.923  0.8248 -0.4584 -0.1030
 3129TIP3    H130802   6.139   1.220   0.988  1.2003  0.8914  0.6712
 3129TIP3    H230803   6.052   1.343   0.971  1.1663  0.6091 -1.4009
 3130TIP3   OH230804   6.757   3.858  13.675 -0.1497 -0.0065  0.2578
 3130TIP3    H130805   6.774   3.877  13.583  0.9548  1.9523  0.8134
 3130TIP3    H230806   6.811   3.920  13.723 -0.1733 -1.4274  2.2610
 3131TIP3   OH230807   3.182   0.728   2.248 -0.0628 -0.4359  0.4217
 3131TIP3    H130808   3.172   0.701   2.339 -0.5246 -0.5465  0.3432
 3131TIP3    H230809   3.251   0.794   2.249 -0.3703 -0.1182  0.9140
 3132TIP3   OH230810   4.817   0.768   5.003  0.0338 -0.2121  0.5014
 3132TIP3    H130811   4.731   0.736   5.030  0.7183  0.8390  4.6474
 3132TIP3    H230812   4.804   0.861   4.986  0.1050 -0.3676 -0.4684
 3133TIP3   OH230813   0.920   0.923  10.603 -0.3399  0.2313 -0.1788
 3133TIP3    H130814   0.920   1.017  10.618  1.0107  0.3044 -0.4368
 3133TIP3    H230815   0.948   0.913  10.512  0.8242 -0.4289  0.2201
 3134TIP3   OH230816   1.937   5.635   5.299  0.2993 -0.0795 -0.6748
 3134TIP3    H130817   1.847   5.657   5.276 -0.0442 -1.2100 -0.4723
 3134TIP3    H230818   1.968   5.581   5.226  0.3804 -0.7605 -0.1391
 3135TIP3   OH230819   2.938   3.814   0.246 -0.3456 -0.3399  0.3291
 3135TIP3    H130820   2.998   3.740   0.236 -0.2208 -0.0950 -0.8010
 3135TIP3    H230821   2.929   3.850   0.158 -0.3993  0.9977  0.8608
 3136TIP3   OH230822   5.188   1.983  12.853  0.1464 -0.5703  0.4973
 3136TIP3    H130823   5.241   2.017  12.781  0.6484  0.9952  1.5517
 3136TIP3    H230824   5.107   2.033  12.848 -0.4176 -1.4839  0.1695
 3137TIP3   OH230825   3.136   1.275  12.254 -0.8277 -0.2513 -0.2243
 3137TIP3    H130826   3.171   1.189  12.231 -0.3992  0.1683 -1.1847
 3137TIP3    H230827   3.105   1.311  12.171  2.4398  2.0841 -0.6193
 3138TIP3   OH230828   0.106   3.467   0.507 -0.0349 -0.2990 -0.1313
 3138TIP3    H130829   0.067   3.536   0.453  1.0795 -0.4996 -1.2234
 3138TIP3    H230830   0.179   3.510   0.552  0.6260 -0.7541 -0.7718
 3139TIP3   OH230831   6.655   2.699  12.232 -0.0405 -0.8263 -0.2368
 3139TIP3    H130832   6.663   2.644  12.154 -0.1032  1.3651 -1.8770
 3139TIP3    H230833   6.616   2.780  12.200 -1.0420 -0.2175  2.2971
 3140TIP3   OH230834   4.316   6.270  13.752 -0.2842  0.2047  0.0554
 3140TIP3    H130835   4.396   6.246  13.706  0.1608  0.8567  0.4793
 3140TIP3    H230836   4.335   6.251  13.844 -0.6479  0.2861  0.1500
 3141TIP3   OH230837   4.782   3.154  15.665  0.0704  0.2199  0.3708
 3141TIP3    H130838   4.771   3.242  15.701 -1.5644  0.3980 -0.4412
 3141TIP3    H230839   4.864   3.158  15.616 -0.0493  1.3449  0.2270
 3142TIP3   OH230840   4.834   4.226  14.492  0.0199 -0.3833  0.3512
 3142TIP3    H130841   4.892   4.186  14.556  0.2755  0.6696  0.7960
 3142TIP3    H230842   4.876   4.309  14.470 -0.4785 -0.3649 -0.5757
 3143TIP3   OH230843   2.114   6.159  17.125 -0.5353  0.0771  0.7583
 3143TIP3    H130844   2.054   6.189  17.057 -0.1273 -1.4412 -0.3098
 3143TIP3    H230845   2.175   6.232  17.137  1.2665 -0.6472 -2.7428
 3144TIP3   OH230846   2.870   5.806  13.313  0.3506 -0.1178  0.1369
 3144TIP3    H130847   2.945   5.747  13.322 -0.3363 -0.7411  2.3755
 3144TIP3    H230848   2.796   5.755  13.346 -1.0307  0.6368 -1.6059
 3145TIP3   OH230849   4.195   4.391  12.960  0.1354 -0.5062 -0.1681
 3145TIP3    H130850   4.148   4.308  12.965 -1.7639  0.5406  0.1843
 3145TIP3    H230851   4.256   4.389  13.034  2.0943 -2.6566 -1.6692
 3146TIP3   OH230852   1.638   5.897   2.487  0.3653  0.2121  0.5076
 3146TIP3    H130853   1.698   5.968   2.513  0.9822 -0.2095  0.2676
 3146TIP3    H230854   1.623   5.912   2.394  2.2108 -1.1655 -0.0766
 3147TIP3   OH230855   3.870   1.507   1.839  0.0714 -0.6852  0.0426
 3147TIP3    H130856   3.821   1.464   1.909 -1.2105 -1.2264 -1.1422
 3147TIP3    H230857   3.810   1.573   1.805  1.6516  1.4898  1.1866
 3148TIP3   OH230858   3.447   6.100  14.202 -0.1079 -0.2231 -0.2785
 3148TIP3    H130859   3.498   6.116  14.123  1.4812  0.8927  0.9093
 3148TIP3    H230860   3.371   6.158  14.194  0.1785  0.0826 -0.8615
 3149TIP3   OH230861   3.601   2.943  16.981 -0.0988 -0.2422 -0.9328
 3149TIP3    H130862   3.527   3.002  16.971  0.0755  0.3435  0.8986
 3149TIP3    H230863   3.677   2.996  16.959 -0.0494 -0.1454 -0.5437
 3150TIP3   OH230864   3.936   5.872   0.401  0.4957 -0.0591  0.3273
 3150TIP3    H130865   3.848   5.901   0.425  0.7590  0.7929  0.2921
 3150TIP3    H230866   3.932   5.776   0.406 -0.3762 -0.0200  0.5120
 3151TIP3   OH230867   5.096   4.428   6.115  0.4856  0.3982  0.5766
 3151TIP3    H130868   5.011   4.449   6.153  0.3402  0.3988  0.2541
 3151TIP3    H230869   5.098   4.478   6.033  1.0372  0.8706  0.8681
 3152TIP3   OH230870   3.038   4.848  10.590 -0.0703 -0.7954 -0.0645
 3152TIP3    H130871   3.031   4.898  10.508  0.4278 -0.9796 -0.2180
 3152TIP3    H230872   2.947   4.835  10.617 -0.2201  0.6811  0.2718
 3153TIP3   OH230873   5.102   5.628  14.368  0.1378 -0.5408  0.7649
 3153TIP3    H130874   5.185   5.647  14.324 -0.5720 -0.2609 -0.5055
 3153TIP3    H230875   5.100   5.533  14.376 -0.8248 -0.8849 -2.2023
 3154TIP3   OH230876   2.555   2.029  14.072  0.0274  0.1645  0.2625
 3154TIP3    H130877   2.499   1.966  14.119 -0.2150 -0.1110 -0.3835
 3154TIP3    H230878   2.495   2.077  14.016  0.5983 -1.1440 -1.5572
 3155TIP3   OH230879   5.813   0.336  15.669 -0.6495  0.0637  0.5429
 3155TIP3    H130880   5.722   0.367  15.672 -0.4790  0.5407  0.9591
 3155TIP3    H230881   5.864   0.409  15.705  0.0069  0.1999 -0.5908
 3156TIP3   OH230882   5.700   2.324  12.956 -0.8292 -0.0619 -0.3423
 3156TIP3    H130883   5.621   2.364  12.992 -1.7030 -2.3648  0.4144
 3156TIP3    H230884   5.701   2.235  12.991  1.8539 -0.2593 -0.7387
 3157TIP3   OH230885   1.369   1.734   2.486 -0.3202 -0.1570  0.6893
 3157TIP3    H130886   1.352   1.668   2.418  4.3922 -2.0002  0.9598
 3157TIP3    H230887   1.355   1.818   2.442  0.8218 -1.2922 -2.0638
 3158TIP3   OH230888   0.030   6.341  13.528 -0.1490  0.1726  0.7830
 3158TIP3    H130889   0.032   6.330  13.623  0.9332  0.0731  0.7504
 3158TIP3    H230890   0.093   6.411  13.510  0.0126 -0.1356  0.0943
 3159TIP3   OH230891   1.908   5.031  16.431 -0.2073 -0.2250  0.0468
 3159TIP3    H130892   1.885   4.973  16.359  1.3038  0.4784 -1.0541
 3159TIP3    H230893   1.977   4.984  16.478  0.8777  0.5367 -0.7293
 3160TIP3   OH230894   6.007   6.758  15.912 -0.3284  0.0612  0.0838
 3160TIP3    H130895   5.915   6.733  15.898  0.2325 -2.0425 -0.2142
 3160TIP3    H230896   6.053   6.675  15.920  1.3172  1.0628  2.0260
 3161TIP3   OH230897   5.635   0.929  15.338  0.1191 -0.5623  0.3700
 3161TIP3    H130898   5.576   0.965  15.272  2.9929 -0.0125 -2.1059
 3161TIP3    H230899   5.624   0.985  15.415 -0.1428  1.6262 -1.2030
 3162TIP3   OH230900   2.255   2.808  14.477  0.7424  0.0560 -0.1601
 3162TIP3    H130901   2.265   2.790  14.384 -0.4750  2.0061 -0.7388
 3162TIP3    H230902   2.262   2.903  14.484 -0.5898  0.0811  1.5190
 3163TIP3   OH230903   4.506   3.615   2.794 -0.0859 -0.5723 -0.3856
 3163TIP3    H130904   4.414   3.588   2.793 -0.8431  1.7648  0.2601
 3163TIP3    H230905   4.545   3.563   2.864 -1.2175 -0.6889  0.1924
 3164TIP3   OH230906   2.153   5.150   6.274 -0.1096 -0.2571  0.1932
 3164TIP3    H130907   2.234   5.102   6.290 -0.6042 -1.1535  0.0733
 3164TIP3    H230908   2.085   5.093   6.309 -0.8674 -0.4234 -1.4556
 3165TIP3   OH230909   2.687   3.781  14.706  0.2144  0.1440 -0.0860
 3165TIP3    H130910   2.778   3.810  14.706  0.6552 -1.1766 -0.7941
 3165TIP3    H230911   2.640   3.848  14.757  1.4195  1.2865 -0.4363
 3166TIP3   OH230912   1.731   4.469   1.824  0.6115 -0.4945  0.0549
 3166TIP3    H130913   1.819   4.434   1.836 -0.2583 -3.4850 -1.4297
 3166TIP3    H230914   1.681   4.433   1.897  0.2005 -0.3888 -0.1737
 3167TIP3   OH230915   6.085   3.656  16.172  0.1078 -0.1354 -0.3901
 3167TIP3    H130916   6.109   3.708  16.249 -0.8755  0.6663 -0.6006
 3167TIP3    H230917   6.061   3.721  16.106 -1.4825 -0.8494 -0.5532
 3168TIP3   OH230918   0.086   1.916  15.092 -0.1508 -0.1876 -0.1356
 3168TIP3    H130919   0.079   1.965  15.174  1.4486  0.1720 -0.1817
 3168TIP3    H230920   0.002   1.869  15.085 -0.8672  0.8526  0.9892
 3169TIP3   OH230921   4.608   3.336  11.200  0.3059  0.4081 -0.1360
 3169TIP3    H130922   4.620   3.258  11.254  0.2152  0.1566 -0.4719
 3169TIP3    H230923   4.514   3.337  11.180  0.0865  1.2834  0.8720
 3170TIP3   OH230924   5.560   4.725   2.628  0.3421 -0.7001 -0.0342
 3170TIP3    H130925   5.568   4.808   2.676 -1.9834  0.3967 -1.3438
 3170TIP3    H230926   5.629   4.730   2.561  1.2079 -0.5399  0.8555
 3171TIP3   OH230927   1.312   0.330  10.401 -0.1517  0.4304 -0.0257
 3171TIP3    H130928   1.403   0.357  10.404 -0.6622  2.2863 -0.0420
 3171TIP3    H230929   1.269   0.383  10.468 -1.2421 -0.3622 -0.0691
 3172TIP3   OH230930   3.926   2.325  11.988  0.2490 -0.1409  0.2215
 3172TIP3    H130931   3.977   2.383  11.931 -2.3160  1.0710 -1.0144
 3172TIP3    H230932   3.886   2.384  12.052 -0.4114 -0.9052  0.5322
 3173TIP3   OH230933   5.083   2.970   1.238 -0.5132 -0.0906 -0.2403
 3173TIP3    H130934   5.123   2.886   1.260 -0.3827 -0.0904 -0.4796
 3173TIP3    H230935   5.052   3.004   1.322  0.2575  0.0474 -0.0042
 3174TIP3   OH230936   0.475   0.950   2.177 -0.0209  0.3552 -0.0179
 3174TIP3    H130937   0.491   0.948   2.272  0.3606 -0.4632 -0.0946
 3174TIP3    H230938   0.446   1.040   2.160 -0.1354  0.4991  0.8797
 3175TIP3   OH230939   4.430   1.716   0.974 -0.0714  0.8811  0.0915
 3175TIP3    H130940   4.462   1.626   0.967  1.0186  1.2026  0.7029
 3175TIP3    H230941   4.469   1.762   0.900 -1.2873  0.6837 -0.6963
 3176TIP3   OH230942   5.043   4.442   0.171  0.0617  0.0556  0.0552
 3176TIP3    H130943   5.028   4.519   0.226  2.4882  0.6917 -0.0513
 3176TIP3    H230944   5.098   4.474   0.100  2.0960 -1.9537  0.6106
 3177TIP3   OH230945   6.411   1.452   4.562  0.2785 -0.3011 -0.4306
 3177TIP3    H130946   6.397   1.451   4.656 -0.2155 -1.1471 -0.5092
 3177TIP3    H230947   6.376   1.536   4.533  0.2093 -0.1470  0.1046
 3178TIP3   OH230948   5.909   2.712  17.071  0.5999  0.1459 -0.2993
 3178TIP3    H130949   5.922   2.623  17.039  0.7936  0.5237 -1.3018
 3178TIP3    H230950   5.975   2.722  17.140  2.2091  0.2737 -1.7837
 3179TIP3   OH230951   3.598   3.117   2.148  0.2748  0.0334 -0.6066
 3179TIP3    H130952   3.554   3.168   2.216  0.9384  0.6764 -0.6442
 3179TIP3    H230953   3.679   3.088   2.188  2.1940  3.0138 -1.9677
 3180TIP3   OH230954   5.868   5.027   3.701 -0.1644  0.2699 -0.1299
 3180TIP3    H130955   5.856   4.932   3.701  0.7593  0.1153  1.4315
 3180TIP3    H230956   5.860   5.052   3.794 -0.0808  1.6800 -0.4778
 3181TIP3   OH230957   6.343   1.633  15.525  0.4737  0.0646  0.1948
 3181TIP3    H130958   6.350   1.579  15.604 -1.0760  0.7471  0.8369
 3181TIP3    H230959   6.346   1.723  15.557 -2.7137  0.4193 -0.1243
 3182TIP3   OH230960   6.522   3.070   2.631  0.0261  0.0621  0.1247
 3182TIP3    H130961   6.480   3.067   2.544  0.5481 -1.7542 -0.0994
 3182TIP3    H230962   6.487   3.150   2.671 -1.2001  0.2749 -1.2640
 3183TIP3   OH230963   3.009   1.636   0.075  0.4481 -0.2118  0.3966
 3183TIP3    H130964   3.050   1.692   0.140  0.3165 -0.0434  0.3345
 3183TIP3    H230965   3.024   1.680  -0.008 -3.0512  1.8846  0.6627
 3184TIP3   OH230966   6.611   3.649  16.627  0.2815 -0.2572 -0.4936
 3184TIP3    H130967   6.658   3.721  16.586 -0.4416  0.1469 -0.6228
 3184TIP3    H230968   6.533   3.637  16.572 -0.8998  0.5351  0.9356
 3185TIP3   OH230969   3.003   3.570  14.489 -0.0817  0.7680  0.6980
 3185TIP3    H130970   2.972   3.657  14.464  0.4096  0.5915 -0.5816
 3185TIP3    H230971   3.020   3.578  14.583 -0.3188  1.9711  0.6644
 3186TIP3   OH230972   2.909   3.786   5.371 -0.4285 -0.5071 -0.1336
 3186TIP3    H130973   2.926   3.821   5.283 -0.3336 -2.2659 -0.8638
 3186TIP3    H230974   2.822   3.817   5.393  0.4028  1.8194  0.1425
 3187TIP3   OH230975   4.545   0.785   4.674  0.3826  0.2099  0.0613
 3187TIP3    H130976   4.614   0.851   4.674  1.0858 -0.5178 -0.1343
 3187TIP3    H230977   4.468   0.830   4.639  0.9276  0.8460 -0.3199
 3188TIP3   OH230978   4.705   5.821  12.709  0.2255  0.7620  0.2417
 3188TIP3    H130979   4.750   5.870  12.778  0.8887  2.2509 -1.1837
 3188TIP3    H230980   4.689   5.886  12.640  0.5120 -0.8737 -1.4445
 3189TIP3   OH230981   6.447   0.364  11.386  0.0199  0.0215 -0.0517
 3189TIP3    H130982   6.439   0.281  11.433 -2.0811  0.4675  0.4834
 3189TIP3    H230983   6.541   0.373  11.370  0.1803 -3.3266 -1.7778
 3190TIP3   OH230984   3.261   1.323  15.774  0.4358  0.2090 -0.1449
 3190TIP3    H130985   3.243   1.260  15.845 -0.2754 -0.6274 -1.0377
 3190TIP3    H230986   3.290   1.268  15.701  0.4647  0.9881 -0.7249
 3191TIP3   OH230987   2.174   5.422   3.292  0.5551 -0.1221 -0.0244
 3191TIP3    H130988   2.206   5.345   3.245  1.5080  1.0565 -1.4418
 3191TIP3    H230989   2.123   5.387   3.365 -1.4420 -2.1095 -2.1744
 3192TIP3   OH230990   5.502   4.274   1.797 -0.1669  0.4897  0.2539
 3192TIP3    H130991   5.435   4.302   1.859 -0.2441  1.0407 -0.0666
 3192TIP3    H230992   5.493   4.335   1.723  0.3113  0.2158 -0.0374
 3193TIP3   OH230993   6.146   4.262   5.335 -0.2316 -0.0093  0.6773
 3193TIP3    H130994   6.148   4.264   5.431 -0.3962  1.2549  0.6700
 3193TIP3    H230995   6.078   4.199   5.313 -0.5479  0.0770  1.3953
 3194TIP3   OH230996   6.699   3.988   0.889 -0.4940 -0.2069  0.2541
 3194TIP3    H130997   6.619   4.028   0.853  0.2748  2.0422  0.8886
 3194TIP3    H230998   6.770   4.021   0.834  0.2484 -0.2414  1.1733
 3195TIP3   OH230999   2.569   2.493   1.623  0.0902  0.6288 -0.4683
 3195TIP3    H131000   2.500   2.514   1.686  0.0578  1.3599 -0.7353
 3195TIP3    H231001   2.605   2.578   1.598  3.3660  0.2045  2.1273
 3196TIP3   OH231002   5.523   4.500  16.218  0.1798 -0.0336 -0.1750
 3196TIP3    H131003   5.616   4.478  16.217  0.3156  0.4709  0.7270
 3196TIP3    H231004   5.520   4.592  16.244 -0.5413  0.1598 -0.8860
 3197TIP3   OH231005   1.222   1.953   0.264  0.0293  0.3165  0.1682
 3197TIP3    H131006   1.295   2.012   0.248 -0.2207  0.5954  0.0369
 3197TIP3    H231007   1.177   1.990   0.341 -1.0081  1.1679 -0.8176
 3198TIP3   OH231008   3.677   3.060  13.156 -0.0696 -0.0826  0.2894
 3198TIP3    H131009   3.593   3.019  13.173 -0.3592  0.5344  0.3524
 3198TIP3    H231010   3.719   3.003  13.091 -0.9344  0.1267 -0.4628
 3199TIP3   OH231011   6.656   4.167   5.017  0.0440 -0.4814 -0.1507
 3199TIP3    H131012   6.690   4.100   4.957 -1.0293 -1.9778  0.8369
 3199TIP3    H231013   6.585   4.123   5.064 -0.7808  1.4125  0.4639
 3200TIP3   OH231014   1.583   3.412  14.419 -0.0931 -0.0515 -1.3593
 3200TIP3    H131015   1.494   3.378  14.413 -0.0380 -1.0897  1.6908
 3200TIP3    H231016   1.639   3.335  14.411  0.3202  0.0795 -0.0201
 3201TIP3   OH231017   3.744   4.693   3.195 -0.0919  0.4313 -0.3049
 3201TIP3    H131018   3.658   4.666   3.162 -0.0103  0.5933 -0.6546
 3201TIP3    H231019   3.806   4.663   3.129  0.1882 -0.2504  0.2593
 3202TIP3   OH231020   3.023   2.568   0.021 -0.3042 -0.1707 -0.9298
 3202TIP3    H131021   3.009   2.473   0.023 -1.7396  0.0295  0.6375
 3202TIP3    H231022   2.963   2.599  -0.047 -0.8232 -0.2556 -0.5141
 3203TIP3   OH231023   4.069   2.340   2.401 -0.2510  0.1888 -0.9855
 3203TIP3    H131024   4.097   2.301   2.317 -0.5224  1.0636 -1.4932
 3203TIP3    H231025   3.974   2.334   2.399 -0.2476 -0.0294 -0.6065
 3204TIP3   OH231026   1.199   4.101  11.977 -0.5623  0.0064 -0.1065
 3204TIP3    H131027   1.276   4.090  11.922  0.7126 -0.1440  1.6149
 3204TIP3    H231028   1.149   4.171  11.934  1.7054  1.7611 -0.0908
 3205TIP3   OH231029   6.758   1.186   3.038 -0.3546 -0.1157  0.0589
 3205TIP3    H131030   6.727   1.269   3.002 -0.5991  0.3860  1.3977
 3205TIP3    H231031   6.736   1.121   2.970 -1.7948  0.6360 -0.2316
 3206TIP3   OH231032   1.596   0.634  14.784  0.3658  0.2663 -0.6378
 3206TIP3    H131033   1.686   0.607  14.765  1.1021  0.1872  2.4392
 3206TIP3    H231034   1.560   0.561  14.835 -0.7658  1.1606 -0.1298
 3207TIP3   OH231035   2.687   5.272  12.845 -0.6220  0.2242 -0.9612
 3207TIP3    H131036   2.611   5.279  12.902 -1.3750 -0.9813 -1.7499
 3207TIP3    H231037   2.747   5.213  12.891 -0.8038  0.0299 -0.9715
 3208TIP3   OH231038   3.672   2.809   2.138  0.0121 -0.4548  0.0029
 3208TIP3    H131039   3.714   2.864   2.204  0.1450 -0.2150 -0.2799
 3208TIP3    H231040   3.621   2.745   2.189 -0.4252  0.1427  0.3339
 3209TIP3   OH231041   3.036   6.186   2.915  0.1298 -0.4977  0.0199
 3209TIP3    H131042   3.078   6.115   2.866 -0.0850 -1.5810  1.3604
 3209TIP3    H231043   2.957   6.147   2.951 -0.9917  0.9631 -0.7493
 3210TIP3   OH231044   2.052   6.079   0.462  0.6709 -0.0584 -0.0920
 3210TIP3    H131045   2.128   6.022   0.451  2.9662  3.1073 -2.5761
 3210TIP3    H231046   1.992   6.054   0.391  1.6461  0.4985 -1.1479
 3211TIP3   OH231047   0.023   2.248  15.537 -0.2013 -0.1353  0.5614
 3211TIP3    H131048   0.099   2.287  15.581 -0.0660 -0.6149  0.7652
 3211TIP3    H231049   0.032   2.154  15.554  0.3871 -0.4545 -1.3400
 3212TIP3   OH231050   0.264   2.544   2.113  0.0966  0.6294  1.0141
 3212TIP3    H131051   0.344   2.588   2.142  0.1759 -0.3535  2.3854
 3212TIP3    H231052   0.217   2.610   2.062  0.0993  2.4226  3.1566
 3213TIP3   OH231053   1.470   0.337  13.026 -0.2906  0.8151  0.7500
 3213TIP3    H131054   1.528   0.262  13.038  0.4155  1.2061 -0.0876
 3213TIP3    H231055   1.470   0.381  13.110  0.3941  0.6386  0.8493
 3214TIP3   OH231056   5.351   1.099   2.956  0.5069 -0.9150  0.1566
 3214TIP3    H131057   5.303   1.103   2.873  0.8324 -2.4781 -0.1355
 3214TIP3    H231058   5.340   1.186   2.995 -1.1804 -0.7362 -0.6652
 3215TIP3   OH231059   6.365   2.168  12.103  0.4271  0.1632 -0.3103
 3215TIP3    H131060   6.340   2.100  12.039  1.6533 -1.2052  0.5957
 3215TIP3    H231061   6.460   2.163  12.107  0.3789 -0.0541  1.8688
 3216TIP3   OH231062   2.744   0.139  12.591  0.1318 -0.1063 -0.1786
 3216TIP3    H131063   2.679   0.118  12.524  0.0166 -0.0467 -0.0866
 3216TIP3    H231064   2.819   0.173  12.543  0.5146 -1.1984 -0.3798
 3217TIP3   OH231065   3.889   1.217   6.175  1.0260 -0.0917 -0.6212
 3217TIP3    H131066   3.805   1.221   6.130  0.6518 -0.1281  0.0644
 3217TIP3    H231067   3.916   1.125   6.169  0.4974 -0.2981  0.0884
 3218TIP3   OH231068   1.115   2.910   3.586  0.4356 -0.0621  0.6256
 3218TIP3    H131069   1.152   2.997   3.568  1.3470 -0.5353  0.1587
 3218TIP3    H231070   1.057   2.893   3.513 -1.6340  1.1466  1.8920
 3219TIP3   OH231071   1.951   4.020   0.021 -0.3776 -0.2287 -0.0397
 3219TIP3    H131072   1.861   4.050   0.007 -0.2074  0.0358 -0.6175
 3219TIP3    H231073   1.984   4.075   0.091 -0.5827 -0.1414 -0.0098
 3220TIP3   OH231074   5.223   3.500   0.510 -0.0345 -0.4313 -0.2471
 3220TIP3    H131075   5.213   3.471   0.419  0.4833 -1.6700  0.0630
 3220TIP3    H231076   5.194   3.591   0.510 -2.8086 -1.2185 -1.0865
 3221TIP3   OH231077   6.598   2.407   4.360  0.0163  0.1537  0.6439
 3221TIP3    H131078   6.516   2.374   4.396 -0.0391 -0.9405 -0.3964
 3221TIP3    H231079   6.666   2.367   4.415 -0.0986 -0.6485  0.2236
 3222TIP3   OH231080   4.813   0.069  15.340  0.5047  0.6093 -0.1706
 3222TIP3    H131081   4.875   0.133  15.305  0.4004  0.3563 -0.8522
 3222TIP3    H231082   4.827   0.070  15.434  2.8766 -0.7656 -0.4309
 3223TIP3   OH231083   0.615   2.860  15.046  0.4668 -0.3895 -0.5523
 3223TIP3    H131084   0.570   2.816  14.974  0.3814  0.7051 -1.1904
 3223TIP3    H231085   0.618   2.795  15.116 -2.9815 -0.2624 -0.1090
 3224TIP3   OH231086   5.990   2.052  12.097 -0.0414  0.4191  0.3399
 3224TIP3    H131087   6.029   2.139  12.085  1.1405 -0.0357  0.6469
 3224TIP3    H231088   5.917   2.049  12.036  0.9259  1.0236 -0.8977
 3225TIP3   OH231089   4.934   5.451  16.074  0.5456 -0.0355  0.1379
 3225TIP3    H131090   4.964   5.472  15.986  0.3228  0.3966  0.1633
 3225TIP3    H231091   4.952   5.357  16.084  0.8021 -0.0319 -0.2725
 3226TIP3   OH231092   5.982   0.705   1.544  0.2656  0.2201  0.1832
 3226TIP3    H131093   5.965   0.785   1.593 -0.5064 -0.2581  0.7188
 3226TIP3    H231094   6.025   0.646   1.606  1.1508  0.3373 -0.3091
 3227TIP3   OH231095   4.721   5.632   0.455 -0.0828 -0.0017 -0.1021
 3227TIP3    H131096   4.706   5.700   0.520  1.2814  0.3771 -0.1447
 3227TIP3    H231097   4.634   5.608   0.424 -0.7448 -0.0435  1.6958
 3228TIP3   OH231098   1.179   2.063  11.626  0.7298 -0.1142 -0.0608
 3228TIP3    H131099   1.085   2.062  11.612  0.8293 -0.9322 -0.7328
 3228TIP3    H231100   1.210   1.979  11.591  1.6602 -0.0164  0.4791
 3229TIP3   OH231101   6.037   3.924   2.966 -0.2113  0.5530 -0.2955
 3229TIP3    H131102   6.132   3.911   2.974 -0.3660 -1.1504 -1.0100
 3229TIP3    H231103   6.028   4.019   2.954  1.4958  0.6151 -1.4820
 3230TIP3   OH231104   1.881   2.905  16.312 -0.0977 -0.1179  0.1723
 3230TIP3    H131105   1.946   2.880  16.246  0.1066 -0.3799  0.4738
 3230TIP3    H231106   1.832   2.977  16.271 -0.3398 -0.6432 -0.4902
 3231TIP3   OH231107   5.575   2.756  13.788 -0.2854 -0.0832 -0.0716
 3231TIP3    H131108   5.641   2.822  13.768 -1.1064 -0.0719 -3.1687
 3231TIP3    H231109   5.492   2.794  13.757 -1.3911 -1.1165  1.4269
 3232TIP3   OH231110   6.394   1.925  12.296 -0.2307  0.0315 -0.0301
 3232TIP3    H131111   6.429   2.007  12.331 -1.5028  1.0420 -1.0179
 3232TIP3    H231112   6.449   1.906  12.221 -0.5268  0.5351 -0.3852
 3233TIP3   OH231113   2.645   5.979  13.088 -0.1904  0.5378 -0.5316
 3233TIP3    H131114   2.607   5.979  13.000  0.4779  1.3758 -0.8308
 3233TIP3    H231115   2.681   5.891  13.098 -1.0343  0.1582 -0.7531
 3234TIP3   OH231116   3.630   4.270  16.438  0.5456 -0.0495 -0.4829
 3234TIP3    H131117   3.627   4.201  16.372  0.3788  0.1356 -0.6726
 3234TIP3    H231118   3.553   4.324  16.420 -0.3899 -0.8732  0.8340
 3235TIP3   OH231119   2.969   3.591  13.465  0.2091 -0.3639  0.6122
 3235TIP3    H131120   3.061   3.616  13.474  0.0994 -0.2672  1.5770
 3235TIP3    H231121   2.932   3.606  13.552 -0.3326 -1.9931  0.7006
 3236TIP3   OH231122   4.163   0.083  12.310  0.4390  0.0635 -0.2049
 3236TIP3    H131123   4.181   0.098  12.403 -1.6979  0.3369  0.2181
 3236TIP3    H231124   4.085   0.135  12.293  1.3882  0.8709 -2.4607
 3237TIP3   OH231125   3.918   6.284   6.092 -0.3252  0.1642  0.1842
 3237TIP3    H131126   3.949   6.360   6.043 -1.3944  1.0674  0.8615
 3237TIP3    H231127   3.951   6.297   6.181  1.7842 -1.5769 -0.2776
 3238TIP3   OH231128   5.173   2.140  15.580 -0.0078  0.0607  0.3106
 3238TIP3    H131129   5.117   2.214  15.558  0.9949  0.8336  0.3359
 3238TIP3    H231130   5.248   2.178  15.625  0.7693 -0.9120 -0.1200
 3239TIP3   OH231131   5.225   0.838  10.688  0.0706 -0.0410 -0.3583
 3239TIP3    H131132   5.191   0.750  10.675 -0.4332  0.0536  0.2936
 3239TIP3    H231133   5.151   0.896  10.671  0.3006  0.2397 -0.4133
 3240TIP3   OH231134   3.833   5.932  12.359 -0.0164 -0.2675 -0.5896
 3240TIP3    H131135   3.773   5.977  12.299 -0.7396 -0.4556 -0.0097
 3240TIP3    H231136   3.913   5.920  12.307  1.0570  3.6658 -0.1471
 3241TIP3   OH231137   4.481   6.422  14.745 -0.4619  0.0427 -0.4324
 3241TIP3    H131138   4.522   6.414  14.831 -0.8425  1.9277 -0.0419
 3241TIP3    H231139   4.552   6.409  14.683 -0.2137 -1.5230  0.1187
 3242TIP3   OH231140   4.901   5.915   4.438  0.3647 -0.3093  0.2893
 3242TIP3    H131141   4.955   5.844   4.403 -0.3434 -0.7256  0.0113
 3242TIP3    H231142   4.872   5.963   4.360 -0.1121 -0.4246  0.3912
 3243TIP3   OH231143   5.981   0.456   0.571 -0.0316  0.1602 -0.0828
 3243TIP3    H131144   5.993   0.368   0.607 -0.9206  0.2355  0.4253
 3243TIP3    H231145   5.893   0.481   0.598  0.1503  1.1470 -0.3690
 3244TIP3   OH231146   6.210   6.288  12.828  0.0940 -0.3835 -0.0192
 3244TIP3    H131147   6.255   6.284  12.912  0.3406 -0.1966 -0.1388
 3244TIP3    H231148   6.229   6.205  12.785  1.0016  0.0016 -0.4033
 3245TIP3   OH231149   5.111   6.120   3.357  0.2114  0.1107 -0.2739
 3245TIP3    H131150   5.078   6.089   3.442  0.8978  2.3370  0.8901
 3245TIP3    H231151   5.191   6.069   3.342 -0.3053 -0.8180  0.0234
 3246TIP3   OH231152   6.478   2.303   5.533 -0.2316  0.1238 -0.0699
 3246TIP3    H131153   6.473   2.389   5.491  0.7024 -0.3218 -1.1121
 3246TIP3    H231154   6.571   2.279   5.530 -0.3231 -0.4825  1.1356
 3247TIP3   OH231155   0.474   4.510   3.385 -0.0491 -0.1407 -0.3001
 3247TIP3    H131156   0.434   4.472   3.463  0.6270 -2.3017 -0.9419
 3247TIP3    H231157   0.476   4.438   3.322  0.1282  1.3444 -2.0625
 3248TIP3   OH231158   1.473   5.146   4.739  0.1690 -0.2646 -0.2308
 3248TIP3    H131159   1.464   5.169   4.832 -0.0873 -0.7597 -0.1308
 3248TIP3    H231160   1.440   5.222   4.692 -1.5817 -0.7791  0.0948
 3249TIP3   OH231161   5.244   3.908  14.588 -0.3068  0.2173  0.5801
 3249TIP3    H131162   5.323   3.922  14.641  0.8607  0.1078 -1.0639
 3249TIP3    H231163   5.247   3.977  14.522 -1.0459 -0.4027 -0.1169
 3250TIP3   OH231164   1.899   0.930  13.902  0.4312 -0.2191 -0.0705
 3250TIP3    H131165   1.978   0.935  13.849 -0.8929  0.2766 -2.0856
 3250TIP3    H231166   1.832   0.896  13.843 -1.3231  1.1484  1.0316
 3251TIP3   OH231167   5.797   0.675  16.935  0.4781  0.4285 -0.3900
 3251TIP3    H131168   5.721   0.643  16.983 -0.0637  0.3121 -1.2982
 3251TIP3    H231169   5.761   0.731  16.867  0.9094 -1.8384 -2.6569
 3252TIP3   OH231170   6.083   2.614   3.541  0.1781 -0.1900  0.0688
 3252TIP3    H131171   6.103   2.530   3.582 -0.0732  0.0681  0.7472
 3252TIP3    H231172   6.143   2.675   3.584 -0.8867  0.2956  0.9235
 3253TIP3   OH231173   2.033   3.105  13.813 -0.1158 -0.0827  0.5238
 3253TIP3    H131174   1.975   3.160  13.865 -0.5365  0.1009 -0.1237
 3253TIP3    H231175   1.975   3.052  13.759  0.3092 -0.2157  0.1863
 3254TIP3   OH231176   5.756   1.624  15.438 -0.2319  0.0037 -0.2913
 3254TIP3    H131177   5.761   1.641  15.344  2.6625  0.6798 -0.1070
 3254TIP3    H231178   5.774   1.530  15.447 -1.1202 -0.1905 -0.4064
 3255TIP3   OH231179   6.759   3.118  11.141 -0.5802 -0.2283  0.1246
 3255TIP3    H131180   6.825   3.176  11.104  0.4084 -2.3062 -1.6260
 3255TIP3    H231181   6.676   3.152  11.108 -0.0280  0.1973 -0.8837
 3256TIP3   OH231182   3.719   6.007  14.576  0.1849 -0.2779  0.2847
 3256TIP3    H131183   3.696   5.914  14.575  3.0631 -1.1205 -1.6456
 3256TIP3    H231184   3.815   6.007  14.584  0.4191  2.4498 -1.4976
 3257TIP3   OH231185   6.154   3.678  13.380 -0.0495 -0.2965  0.2671
 3257TIP3    H131186   6.151   3.689  13.475 -1.3951 -2.2929  0.5140
 3257TIP3    H231187   6.063   3.686  13.352  0.4746  1.7518 -1.1274
 3258TIP3   OH231188   3.399   6.613   1.490  0.1865  0.1117 -0.1145
 3258TIP3    H131189   3.359   6.669   1.423  2.2979  0.6743 -0.9880
 3258TIP3    H231190   3.431   6.675   1.557  1.9057 -0.0441 -0.7379
 3259TIP3   OH231191   6.653   1.876   4.885 -0.1892 -0.2912 -0.3835
 3259TIP3    H131192   6.661   1.848   4.976  1.8959 -1.5927 -0.8844
 3259TIP3    H231193   6.624   1.967   4.890 -1.4686 -0.7648  1.5138
 3260TIP3   OH231194   6.140   0.552   5.241 -0.8221  0.2936 -0.0827
 3260TIP3    H131195   6.164   0.617   5.307 -0.0071 -0.9738  0.9201
 3260TIP3    H231196   6.056   0.518   5.269 -0.1197 -0.7994  0.7835
 3261TIP3   OH231197   3.834   5.405   2.599  0.0620  0.3759 -0.5195
 3261TIP3    H131198   3.786   5.390   2.518 -0.9474  2.3581 -0.3764
 3261TIP3    H231199   3.782   5.472   2.645  0.4892 -0.8042  1.8539
 3262TIP3   OH231200   5.706   2.091  12.059  0.0339  0.4618 -0.3326
 3262TIP3    H131201   5.654   2.022  12.101 -0.7077  0.5423 -1.1050
 3262TIP3    H231202   5.667   2.173  12.089 -0.6805  0.5182 -1.3867
 3263TIP3   OH231203   4.511   1.020  16.893  0.1423 -0.2186 -0.5146
 3263TIP3    H131204   4.517   1.092  16.830 -1.6626  1.1886  0.8027
 3263TIP3    H231205   4.597   1.018  16.935 -0.3521  2.7429  0.9303
 3264TIP3   OH231206   0.367   4.515   2.401  0.4071 -0.1243 -0.1022
 3264TIP3    H131207   0.367   4.475   2.488  0.1515 -1.9269 -0.8911
 3264TIP3    H231208   0.356   4.441   2.341  4.7350  0.4676 -1.9614
 3265TIP3   OH231209   5.697   2.435  14.829  0.0176 -0.1667 -0.2750
 3265TIP3    H131210   5.757   2.384  14.883  0.5028  0.6136 -0.0701
 3265TIP3    H231211   5.636   2.370  14.793  0.4583 -0.8501  0.1989
 3266TIP3   OH231212   4.397   3.744   1.963 -0.3188 -0.2261 -0.2786
 3266TIP3    H131213   4.341   3.765   1.889 -1.5273  0.0297  0.6631
 3266TIP3    H231214   4.343   3.765   2.040  1.8293  2.1019  0.7195
 3267TIP3   OH231215   4.869   3.812  15.930  0.7206 -0.5362  0.0768
 3267TIP3    H131216   4.940   3.798  15.868  0.9710 -0.4643  0.3445
 3267TIP3    H231217   4.808   3.740  15.912  1.0323 -0.8088  0.0809
 3268TIP3   OH231218   6.363   3.866  15.057  0.4545  0.0900  0.1897
 3268TIP3    H131219   6.345   3.889  14.965  0.7555  0.4209  0.2100
 3268TIP3    H231220   6.457   3.847  15.058  0.8993  2.0629  0.8168
 3269TIP3   OH231221   4.244   2.852   6.102  0.2737  0.0339 -0.2892
 3269TIP3    H131222   4.192   2.917   6.054  0.1004 -0.0695 -0.2410
 3269TIP3    H231223   4.329   2.894   6.114 -0.0383  0.5249  0.3182
 3270TIP3   OH231224   1.766   1.439   1.732  0.0047 -0.0288  0.1650
 3270TIP3    H131225   1.856   1.461   1.756  0.4716 -0.0485 -1.4276
 3270TIP3    H231226   1.772   1.349   1.698 -0.5912  0.0149 -0.0561
 3271TIP3   OH231227   6.625   6.230   4.489  0.3992  0.4278  0.1063
 3271TIP3    H131228   6.579   6.149   4.509 -0.4569  0.8825  0.0433
 3271TIP3    H231229   6.644   6.225   4.395  0.0483  0.4416  0.0330
 3272TIP3   OH231230   3.996   2.158  17.178 -0.2928 -0.0107 -0.7165
 3272TIP3    H131231   3.980   2.216  17.103  1.7651 -0.7302 -1.7921
 3272TIP3    H231232   4.068   2.198  17.225 -0.7795 -0.2042  0.2101
 3273TIP3   OH231233   1.636   2.674   3.202  0.6173  0.4477  0.3110
 3273TIP3    H131234   1.654   2.581   3.217 -0.0547  0.5354  1.9420
 3273TIP3    H231235   1.542   2.678   3.184  0.7837  0.7372 -0.5058
 3274TIP3   OH231236   1.826   5.526   0.160  0.2780 -0.3095  0.1631
 3274TIP3    H131237   1.782   5.449   0.196  0.2388  0.9185  3.0097
 3274TIP3    H231238   1.913   5.494   0.136  0.2010 -1.3140  1.1253
 3275TIP3   OH231239   6.455   3.758   4.640 -0.8602  0.3151 -0.2226
 3275TIP3    H131240   6.436   3.847   4.611 -0.2586  0.7555  0.6712
 3275TIP3    H231241   6.376   3.731   4.688 -0.0743  1.4175  1.8328
 3276TIP3   OH231242   4.991   6.509   0.360  0.3022 -0.0859 -0.8039
 3276TIP3    H131243   4.903   6.544   0.348  0.1458 -0.3313 -0.3747
 3276TIP3    H231244   5.025   6.501   0.271  0.1421  0.6376 -0.9375
 3277TIP3   OH231245   2.903   3.243   0.624  0.2121  0.3539  0.3653
 3277TIP3    H131246   2.876   3.210   0.710  0.7516 -0.7117  0.1493
 3277TIP3    H231247   2.949   3.325   0.643 -2.2507  1.7134  0.8128
 3278TIP3   OH231248   1.440   0.630  15.404  0.0807 -0.2579 -0.1159
 3278TIP3    H131249   1.440   0.725  15.396 -0.3155 -0.3458 -1.4826
 3278TIP3    H231250   1.395   0.612  15.487 -0.8817  0.7217 -0.4050
 3279TIP3   OH231251   1.614   6.186   3.887 -0.0807 -0.6983 -0.1974
 3279TIP3    H131252   1.610   6.266   3.834  0.0553 -0.5118  0.0683
 3279TIP3    H231253   1.522   6.168   3.909  0.0270  0.7812  1.7786
 3280TIP3   OH231254   0.584   0.849  17.318 -0.0470 -0.1988  0.3224
 3280TIP3    H131255   0.638   0.824  17.244 -0.4737  0.2044 -0.1351
 3280TIP3    H231256   0.501   0.803  17.303  0.2695 -1.0878  1.1951
 3281TIP3   OH231257   5.428   1.754   0.164 -0.1302  0.3192  0.3582
 3281TIP3    H131258   5.511   1.739   0.118 -1.3272  0.1688 -1.9285
 3281TIP3    H231259   5.453   1.794   0.247  2.1848  0.9785 -0.5690
 3282TIP3   OH231260   6.391   0.316   3.085  0.2139  0.2412  0.1620
 3282TIP3    H131261   6.481   0.340   3.108  0.1373  0.7329 -0.0457
 3282TIP3    H231262   6.383   0.225   3.114  2.0265 -1.1772 -3.1007
 3283TIP3   OH231263   0.570   4.703  16.791 -0.3098 -0.0912 -0.9374
 3283TIP3    H131264   0.614   4.744  16.866 -0.3210 -0.1729 -0.8873
 3283TIP3    H231265   0.477   4.716  16.807 -0.7278 -4.3505  1.6229
 3284TIP3   OH231266   0.435   3.574  13.124  0.1539 -0.2719  0.0722
 3284TIP3    H131267   0.511   3.631  13.134  0.5140 -0.2966 -2.0633
 3284TIP3    H231268   0.466   3.488  13.151  0.4739 -0.0186  0.5144
 3285TIP3   OH231269   6.297   1.348   3.827 -0.3997  0.7532  0.3593
 3285TIP3    H131270   6.391   1.367   3.827 -0.6173  2.6366 -2.6603
 3285TIP3    H231271   6.256   1.431   3.852 -1.2225  1.1863 -2.1021
 3286TIP3   OH231272   4.129   0.296   4.483 -0.0105 -0.2734 -0.7028
 3286TIP3    H131273   4.087   0.314   4.567  0.4622  0.0604 -0.5393
 3286TIP3    H231274   4.208   0.246   4.505  0.6417  0.6694 -0.8659
 3287TIP3   OH231275   6.363   3.955  11.340 -0.1457  0.1664 -0.4880
 3287TIP3    H131276   6.305   3.949  11.264  0.6504  0.0518 -1.0956
 3287TIP3    H231277   6.450   3.940  11.305  0.4539  1.8824  0.1312
 3288TIP3   OH231278   1.866   4.693  15.550  0.3264  0.4345  0.0601
 3288TIP3    H131279   1.890   4.610  15.592 -1.3770  0.4873  1.2756
 3288TIP3    H231280   1.815   4.667  15.473 -0.0173  0.3307  0.3175
 3289TIP3   OH231281   5.423   1.020   4.714  0.2342  0.0724 -0.0986
 3289TIP3    H131282   5.505   1.064   4.735  0.8347 -1.2226  0.4004
 3289TIP3    H231283   5.379   1.077   4.651  0.5917  1.7616  1.1234
 3290TIP3   OH231284   2.548   0.277   2.249 -0.5598  0.4611  0.4982
 3290TIP3    H131285   2.539   0.189   2.211 -1.4801  0.8719 -0.2565
 3290TIP3    H231286   2.626   0.313   2.207 -0.6723  0.3215  0.1636
 3291TIP3   OH231287   2.368   3.269  17.143 -0.2654  0.0336 -0.0101
 3291TIP3    H131288   2.461   3.254  17.157 -0.1442 -0.5309 -1.2788
 3291TIP3    H231289   2.335   3.298  17.228  1.0021 -0.0530  0.5277
 3292TIP3   OH231290   4.271   4.120  12.341 -0.0873  0.0190  0.3509
 3292TIP3    H131291   4.253   4.066  12.264 -1.3042 -1.3693  1.5299
 3292TIP3    H231292   4.223   4.201  12.326 -0.3713 -0.2647 -0.3105
 3293TIP3   OH231293   5.701   3.773   6.677  0.3137 -0.6342 -0.0028
 3293TIP3    H131294   5.696   3.865   6.650 -0.2626 -0.2415  1.3881
 3293TIP3    H231295   5.622   3.758   6.728  1.2833 -1.3614  1.3599
 3294TIP3   OH231296   2.804   3.539   1.799 -0.0621  0.4941 -0.4284
 3294TIP3    H131297   2.797   3.538   1.895 -0.0713  0.2933 -0.4316
 3294TIP3    H231298   2.806   3.447   1.774 -2.6374  0.4894 -0.8350
 3295TIP3   OH231299   4.365   4.214   0.986 -0.0912  0.5295  0.0020
 3295TIP3    H131300   4.310   4.153   0.936  0.4115  0.0625  0.0043
 3295TIP3    H231301   4.447   4.167   0.998  0.3404  1.2541 -0.0757
 3296TIP3   OH231302   3.056   0.943  16.308 -0.2323 -0.1929 -0.0162
 3296TIP3    H131303   3.088   1.031  16.287 -0.9416  0.1716  0.3846
 3296TIP3    H231304   3.077   0.891  16.230 -0.0828  0.4055 -0.3868
 3297TIP3   OH231305   5.160   2.241  13.308  0.3975  0.2315 -0.3339
 3297TIP3    H131306   5.128   2.306  13.369  0.0825 -0.2490  0.0190
 3297TIP3    H231307   5.096   2.170  13.311 -0.3666  0.7745 -2.2334
 3298TIP3   OH231308   0.075   5.708  11.606  0.1299 -0.1746  0.5954
 3298TIP3    H131309   0.043   5.620  11.584  2.4508 -1.1455  0.6805
 3298TIP3    H231310   0.028   5.732  11.685  0.2179 -1.8631  1.2000
 3299TIP3   OH231311   5.674   4.709  16.064  0.5224  0.4658 -0.7241
 3299TIP3    H131312   5.731   4.773  16.022  3.1018 -1.3046 -0.1314
 3299TIP3    H231313   5.730   4.665  16.128 -1.1888 -2.1996 -0.9173
 3300TIP3   OH231314   0.523   2.068  15.995  0.3734 -0.3929  0.1675
 3300TIP3    H131315   0.428   2.071  15.982  0.4728  1.1724 -0.5113
 3300TIP3    H231316   0.535   2.064  16.090 -0.3783 -0.4682  0.2621
 3301TIP3   OH231317   4.209   1.756  10.674  0.6364 -0.0237  0.0379
 3301TIP3    H131318   4.118   1.751  10.644  0.0466 -0.9804  1.7992
 3301TIP3    H231319   4.228   1.668  10.707  2.2981  0.0969 -0.4914
 3302TIP3   OH231320   3.671   2.579   5.769 -0.1347  0.3452 -0.3186
 3302TIP3    H131321   3.625   2.535   5.841 -1.5578  1.2449 -0.6357
 3302TIP3    H231322   3.704   2.660   5.808  0.0259  0.3238 -0.4128
 3303TIP3   OH231323   0.935   3.642   2.421  0.2510 -0.4106  0.6164
 3303TIP3    H131324   0.864   3.627   2.359  0.1942  1.2398  0.2563
 3303TIP3    H231325   1.006   3.678   2.368  1.6040 -2.5116  0.8670
 3304TIP3   OH231326   1.029   2.524  12.869  0.0322 -0.8866 -0.6111
 3304TIP3    H131327   1.020   2.453  12.933  1.5376 -2.3557 -1.9187
 3304TIP3    H231328   0.965   2.503  12.801 -1.3619  0.5123  0.2046
 3305TIP3   OH231329   4.154   4.342   6.593 -0.3670  0.1074 -0.0871
 3305TIP3    H131330   4.141   4.280   6.522 -0.1988 -0.5449  0.4436
 3305TIP3    H231331   4.249   4.340   6.609 -0.7284 -2.4890  2.5411
 3306TIP3   OH231332   3.210   4.127   9.984  0.0252 -0.0033  0.3674
 3306TIP3    H131333   3.172   4.103  10.069  0.9376 -1.0506  0.4971
 3306TIP3    H231334   3.242   4.045   9.948 -1.1856  0.2791 -1.4474
 3307TIP3   OH231335   5.258   1.365   5.663 -0.2185 -0.2954 -0.0876
 3307TIP3    H131336   5.170   1.388   5.692  0.7222 -0.1596  3.0807
 3307TIP3    H231337   5.306   1.448   5.666  0.2366 -0.5257 -0.8948
 3308TIP3   OH231338   4.659   1.765   2.433 -0.3709 -0.2436  0.7497
 3308TIP3    H131339   4.564   1.779   2.431 -0.3785 -0.0221  1.9400
 3308TIP3    H231340   4.672   1.702   2.504  0.2778 -1.1830 -0.1792
 3309TIP3   OH231341   0.986   4.715   0.613 -0.3365 -0.0448  0.2853
 3309TIP3    H131342   0.916   4.730   0.677  0.3034  1.3026  0.7032
 3309TIP3    H231343   0.951   4.751   0.532 -0.3377  0.1306  0.3634
 3310TIP3   OH231344   2.684   6.128  10.505  0.0556 -0.4608  0.0377
 3310TIP3    H131345   2.725   6.074  10.573 -0.9403  0.6549  1.5917
 3310TIP3    H231346   2.593   6.137  10.534  0.1369  1.8621 -0.2600
 3311TIP3   OH231347   6.530   1.397   1.578  0.0434 -0.4364 -0.5302
 3311TIP3    H131348   6.490   1.373   1.662 -0.2765  2.0737  0.1161
 3311TIP3    H231349   6.623   1.402   1.597  0.0237 -0.3562 -0.4504
 3312TIP3   OH231350   0.600   1.534  11.629  0.8449  0.1383  0.2256
 3312TIP3    H131351   0.642   1.453  11.660  0.5797 -0.4217 -0.8335
 3312TIP3    H231352   0.668   1.578  11.577  1.3354  1.1485  1.6441
 3313TIP3   OH231353   3.630   2.701  11.261  0.6028 -0.1702 -0.0524
 3313TIP3    H131354   3.717   2.691  11.299  1.2834  1.6030 -1.0487
 3313TIP3    H231355   3.584   2.621  11.286  1.8369 -0.2445  2.2486
 3314TIP3   OH231356   4.225   2.772   2.271  0.7042 -0.2633 -0.3278
 3314TIP3    H131357   4.207   2.861   2.302  2.0076 -0.3689  0.8343
 3314TIP3    H231358   4.216   2.778   2.176 -1.7265  0.4917 -0.1281
 3315TIP3   OH231359   3.354   6.451   0.294 -0.4794  0.4336 -0.1018
 3315TIP3    H131360   3.310   6.366   0.302 -1.6489  0.9770 -0.6138
 3315TIP3    H231361   3.289   6.508   0.254  0.8226  1.1710 -1.2434
 3316TIP3   OH231362   1.198   0.675   2.343 -0.5407  0.6705 -0.3110
 3316TIP3    H131363   1.155   0.643   2.264  1.3045 -0.8381 -0.7513
 3316TIP3    H231364   1.153   0.630   2.415 -1.0492  0.6982 -0.6107
 3317TIP3   OH231365   5.172   0.757   5.991  0.2676  0.7475 -0.1950
 3317TIP3    H131366   5.124   0.694   6.045 -1.2726 -0.5635 -2.8885
 3317TIP3    H231367   5.255   0.770   6.039  0.0346 -2.1712  1.2778
 3318TIP3   OH231368   0.714   2.559  16.576 -0.0897 -0.4054  0.1209
 3318TIP3    H131369   0.680   2.515  16.653 -0.9365  1.1406  0.6819
 3318TIP3    H231370   0.641   2.560  16.514 -0.0874  0.2025  0.1215
 3319TIP3   OH231371   0.178   1.455  13.483  0.1801  0.5646  0.6944
 3319TIP3    H131372   0.221   1.533  13.448  0.3591 -0.3601 -1.2778
 3319TIP3    H231373   0.185   1.390  13.414  1.0540 -1.6267  2.6955
 3320TIP3   OH231374   4.936   5.468  13.194  0.3238  0.3224  0.0468
 3320TIP3    H131375   5.013   5.422  13.162 -0.0843  0.8997 -1.9249
 3320TIP3    H231376   4.868   5.401  13.197  0.5294  0.1248  0.3727
 3321TIP3   OH231377   1.988   0.180   4.339 -0.2580  0.0826  0.8743
 3321TIP3    H131378   2.066   0.234   4.328 -0.1624 -0.1602  0.2856
 3321TIP3    H231379   2.000   0.137   4.424 -0.4338  1.1253  1.4454
 3322TIP3   OH231380   0.378   5.551  12.882  0.3177  0.0569 -0.3708
 3322TIP3    H131381   0.436   5.626  12.895 -0.0478  0.4031 -0.7400
 3322TIP3    H231382   0.293   5.589  12.861  0.6122 -0.4364 -2.6933
 3323TIP3   OH231383   2.006   0.252   0.274  0.6920 -0.0338  0.0334
 3323TIP3    H131384   1.986   0.176   0.219  1.9466 -0.3210 -0.0579
 3323TIP3    H231385   1.925   0.303   0.273  0.6232 -0.0741 -2.0082
 3324TIP3   OH231386   0.015   6.098   5.236 -0.2402  0.4841 -0.2962
 3324TIP3    H131387  -0.063   6.116   5.289 -0.3433  0.2554 -0.3644
 3324TIP3    H231388   0.088   6.126   5.290 -0.3554  0.4370 -0.1133
 3325TIP3   OH231389   2.962   1.430   5.679 -0.4582 -0.6690 -0.3508
 3325TIP3    H131390   3.014   1.474   5.747 -1.4597 -0.1048  0.0732
 3325TIP3    H231391   3.027   1.399   5.616  0.4405 -0.5518  0.4831
 3326TIP3   OH231392   6.171   4.492   2.237  0.3281 -0.4899  0.0184
 3326TIP3    H131393   6.126   4.568   2.201  1.0148 -0.3425 -0.5635
 3326TIP3    H231394   6.153   4.494   2.331 -0.8375 -0.4228 -0.1988
 3327TIP3   OH231395   3.856   1.548  13.259 -0.1250 -0.2962 -0.0316
 3327TIP3    H131396   3.869   1.492  13.335  1.7674  0.7611  0.5067
 3327TIP3    H231397   3.767   1.582  13.268  0.2905  0.3875  2.1485
 3328TIP3   OH231398   3.434   1.187  16.875 -0.2416  0.5039 -0.3822
 3328TIP3    H131399   3.377   1.142  16.813 -0.8646  0.5510  0.1365
 3328TIP3    H231400   3.484   1.117  16.917  0.9926  0.5555 -1.6979
 3329TIP3   OH231401   3.839   2.310   4.742  0.5933  0.3971  0.5463
 3329TIP3    H131402   3.753   2.352   4.747  1.1011  1.3209  2.6140
 3329TIP3    H231403   3.863   2.316   4.650 -0.6961  1.9095  0.2615
 3330TIP3   OH231404   1.847   0.920  16.219  0.0187  0.1068  0.0131
 3330TIP3    H131405   1.857   1.012  16.197  2.1875  0.2822  1.4123
 3330TIP3    H231406   1.818   0.879  16.138 -0.1005  1.8752 -0.8871
 3331TIP3   OH231407   3.340   4.572  15.411  0.1284  0.0953  0.1426
 3331TIP3    H131408   3.257   4.579  15.460  0.7303 -0.0569  1.2101
 3331TIP3    H231409   3.317   4.524  15.331 -0.5425 -1.2418  1.1052
 3332TIP3   OH231410   3.271   4.664  12.442  0.2094 -0.1298  0.2686
 3332TIP3    H131411   3.350   4.710  12.416  0.4096 -0.5166  0.1845
 3332TIP3    H231412   3.204   4.696  12.382  0.4392 -0.2582 -0.0624
 3333TIP3   OH231413   2.913   0.315   4.026 -0.2630  0.2518  0.5664
 3333TIP3    H131414   2.922   0.224   3.996 -0.6775  0.2996  0.2914
 3333TIP3    H231415   2.991   0.359   3.991  0.0623 -0.0472  0.9026
 3334TIP3   OH231416   2.591   4.214  13.872 -0.0599 -0.2920 -0.2316
 3334TIP3    H131417   2.681   4.219  13.904  0.0877  0.6347 -0.7591
 3334TIP3    H231418   2.543   4.276  13.926 -0.7240 -1.8347  1.0491
 3335TIP3   OH231419   4.238   0.117   4.690 -0.4573 -0.3659  0.0262
 3335TIP3    H131420   4.166   0.173   4.719  0.4324  0.7098  0.2402
 3335TIP3    H231421   4.314   0.149   4.738  0.1470 -1.5835 -0.0743
 3336TIP3   OH231422   0.680   1.775  16.311  0.0527 -0.2204 -0.4488
 3336TIP3    H131423   0.708   1.806  16.398  1.3297 -2.2428 -0.0495
 3336TIP3    H231424   0.594   1.738  16.326 -0.3511  0.7146 -0.3780
 3337TIP3   OH231425   2.141   1.633  17.041  0.2126  0.9446  0.6993
 3337TIP3    H131426   2.226   1.675  17.023  0.7901 -0.5208 -0.1408
 3337TIP3    H231427   2.163   1.542  17.061 -1.2893  0.0262 -1.4567
 3338TIP3   OH231428   0.619   0.338   4.284 -0.3354 -0.0533 -0.2347
 3338TIP3    H131429   0.624   0.314   4.376  0.8098  0.0282 -0.2621
 3338TIP3    H231430   0.666   0.268   4.238 -1.0780 -0.2093 -0.7913
 3339TIP3   OH231431   1.746   0.627  13.031 -0.3001  0.7337 -0.2163
 3339TIP3    H131432   1.685   0.686  12.985  1.2899  2.0290 -0.7554
 3339TIP3    H231433   1.762   0.670  13.115 -1.7898 -0.7263  0.8751
 3340TIP3   OH231434   1.012   1.217   2.314  0.5230 -0.1373 -0.1507
 3340TIP3    H131435   1.041   1.150   2.252  2.0293  0.2496  0.0954
 3340TIP3    H231436   1.089   1.235   2.368 -0.1727  0.9935  0.5017
 3341TIP3   OH231437   5.133   4.988  15.886 -0.5014  0.2285  0.2874
 3341TIP3    H131438   5.065   5.030  15.833 -0.0273  1.2370  0.4511
 3341TIP3    H231439   5.148   4.903  15.844 -1.1949  0.3911 -0.2957
 3342TIP3   OH231440   5.842   3.143   6.106 -0.3037 -0.0409  0.1732
 3342TIP3    H131441   5.786   3.198   6.161 -0.4208  0.7055 -0.6640
 3342TIP3    H231442   5.927   3.144   6.149  0.1415  2.1219 -0.6160
 3343TIP3   OH231443   3.221   4.341  12.995 -0.4671  0.5602  0.8420
 3343TIP3    H131444   3.248   4.268  12.940 -0.6344  0.2786  1.1370
 3343TIP3    H231445   3.301   4.370  13.038 -0.5846 -0.1483  1.5638
 3344TIP3   OH231446   0.528   2.689  11.712  0.1582 -0.1065  0.1414
 3344TIP3    H131447   0.529   2.596  11.735  0.1411  0.0175  0.6625
 3344TIP3    H231448   0.454   2.725  11.762  1.3657  0.5747  1.5131
 3345TIP3   OH231449   0.549   1.407   3.433  0.4440  0.3092  0.1007
 3345TIP3    H131450   0.483   1.463   3.473 -0.7285 -0.7759 -0.2415
 3345TIP3    H231451   0.499   1.336   3.392  1.6701  0.5487 -1.9669
 3346TIP3   OH231452   3.240   0.610   3.182 -0.5951  0.4391  0.2548
 3346TIP3    H131453   3.188   0.530   3.170  0.2244  0.0432 -0.9173
 3346TIP3    H231454   3.253   0.643   3.093 -0.1492  1.3726  0.6612
 3347TIP3   OH231455   1.303   1.512  16.366  0.6579  0.2469  0.0289
 3347TIP3    H131456   1.227   1.457  16.345  1.2582 -0.2735 -0.8736
 3347TIP3    H231457   1.280   1.555  16.448  0.7387 -2.5180  1.6591
 3348TIP3   OH231458   3.184   3.480  16.202 -0.6233  0.0790 -0.3520
 3348TIP3    H131459   3.158   3.522  16.120 -0.1723 -2.3038 -1.8082
 3348TIP3    H231460   3.279   3.475  16.197 -0.7004 -1.6643 -0.5548
 3349TIP3   OH231461   4.699   1.071   5.331 -0.6630 -0.0852 -0.0241
 3349TIP3    H131462   4.711   1.147   5.274  1.5123 -2.0183 -2.4233
 3349TIP3    H231463   4.708   1.106   5.420 -1.8790  2.7212 -0.8967
 3350TIP3   OH231464   3.321   2.462   0.785  0.0157  0.7507 -0.3802
 3350TIP3    H131465   3.324   2.481   0.691 -0.6195  0.2001 -0.5197
 3350TIP3    H231466   3.408   2.426   0.804 -0.0703  0.2559 -0.8924
 3351TIP3   OH231467   4.756   1.660   2.674 -0.2724 -0.6574 -0.3278
 3351TIP3    H131468   4.852   1.657   2.678 -0.0842 -0.4365 -3.0114
 3351TIP3    H231469   4.727   1.593   2.737  1.5724 -0.0721  1.2443
 3352TIP3   OH231470   6.332   2.419   0.317  0.6051  0.2635  0.1153
 3352TIP3    H131471   6.329   2.497   0.373  1.4039 -0.1584  0.7773
 3352TIP3    H231472   6.413   2.428   0.268  1.0516 -0.4732  0.6969
 3353TIP3   OH231473   0.670   5.535  14.332 -0.3724  0.5526  0.4535
 3353TIP3    H131474   0.621   5.472  14.278 -1.1345 -0.0745  1.8081
 3353TIP3    H231475   0.636   5.620  14.305 -0.0923  0.3291 -0.6712
 3354TIP3   OH231476   2.722   4.332   0.627  0.0708  0.0302 -0.0725
 3354TIP3    H131477   2.628   4.338   0.643 -0.1094  1.9077 -1.4322
 3354TIP3    H231478   2.730   4.333   0.532  1.4870  1.8472  0.0005
 3355TIP3   OH231479   6.667   2.324   5.791 -0.2312  0.0684 -0.2058
 3355TIP3    H131480   6.608   2.399   5.805  0.8844  0.6232  2.0289
 3355TIP3    H231481   6.633   2.281   5.713 -2.9469  0.9643  0.3834
 3356TIP3   OH231482   4.858   3.874  15.594  0.3481 -0.0485 -0.2993
 3356TIP3    H131483   4.782   3.855  15.649  0.1366  1.9843  0.2026
 3356TIP3    H231484   4.829   3.850  15.506 -0.9828  0.8401 -0.1458
 3357TIP3   OH231485   3.008   3.506  12.794 -0.0194  0.2384  0.4752
 3357TIP3    H131486   3.033   3.502  12.701  0.7701  2.1967  0.5418
 3357TIP3    H231487   3.091   3.501  12.841 -0.2532  1.0090  0.9844
 3358TIP3   OH231488   0.763   3.411   2.470  0.2300  0.7516  0.1259
 3358TIP3    H131489   0.706   3.461   2.412  0.0870  0.1066 -0.3013
 3358TIP3    H231490   0.826   3.475   2.502 -1.1163  1.6244  1.1319
 3359TIP3   OH231491   2.179   1.121   0.091  0.4987  0.2077  0.8608
 3359TIP3    H131492   2.098   1.083   0.124  0.3614  0.0578  0.3553
 3359TIP3    H231493   2.217   1.052   0.036 -1.2480  1.7809 -2.5639
 3360TIP3   OH231494   0.374   2.966   3.620  0.6098  0.1740 -0.0989
 3360TIP3    H131495   0.332   3.052   3.616 -4.1810 -1.7875  1.1784
 3360TIP3    H231496   0.387   2.941   3.529 -1.3468  0.8745 -0.6156
 3361TIP3   OH231497   0.379   5.888  16.016 -0.3085  0.3883 -0.3357
 3361TIP3    H131498   0.285   5.871  16.006 -0.3936  0.1746  0.7460
 3361TIP3    H231499   0.422   5.813  15.974 -0.6062  0.5400 -0.9290
 3362TIP3   OH231500   4.858   1.894  12.714 -0.1876  0.5177  0.1836
 3362TIP3    H131501   4.926   1.833  12.743  0.2583  1.0285  0.2234
 3362TIP3    H231502   4.897   1.981  12.725 -0.1633  0.7526 -1.5611
 3363TIP3   OH231503   2.880   4.515  13.795 -0.2764 -0.1470 -0.0858
 3363TIP3    H131504   2.837   4.446  13.846 -0.4256  0.1595  0.2120
 3363TIP3    H231505   2.962   4.533  13.843 -1.3224  1.5264  1.2232
 3364TIP3   OH231506   0.862   3.333  12.649 -0.1716 -0.7992 -0.2038
 3364TIP3    H131507   0.828   3.246  12.627  0.0326 -1.0031  0.2689
 3364TIP3    H231508   0.793   3.372  12.702 -0.5277 -0.4309 -0.9286
 3365TIP3   OH231509   3.170   2.691   3.832 -0.3096  0.0644 -0.2077
 3365TIP3    H131510   3.265   2.695   3.828 -0.1806  0.5212  1.9562
 3365TIP3    H231511   3.143   2.780   3.855 -0.9991 -0.6464  2.0288
 3366TIP3   OH231512   5.015   1.584  16.710  0.2960 -0.2644  0.5353
 3366TIP3    H131513   5.048   1.516  16.652  0.8719  1.5156 -1.3271
 3366TIP3    H231514   5.086   1.598  16.773  0.9240 -0.1552 -0.1828
 3367TIP3   OH231515   1.740   0.019  16.634  0.7944 -0.0662 -0.6992
 3367TIP3    H131516   1.758  -0.074  16.622  1.6407  0.2174 -1.8139
 3367TIP3    H231517   1.659   0.021  16.684  1.7921 -1.4031  1.0824
 3368TIP3   OH231518   0.454   6.155  15.506 -0.4899 -0.3190 -0.3461
 3368TIP3    H131519   0.451   6.249  15.490  0.8740 -0.4650 -1.6250
 3368TIP3    H231520   0.418   6.115  15.426  1.3496 -0.9165 -0.9366
 3369TIP3   OH231521   0.105   4.381  12.310 -0.4615 -0.5453 -0.4508
 3369TIP3    H131522   0.061   4.327  12.244  0.0705 -0.6249 -0.7499
 3369TIP3    H231523   0.185   4.411  12.267  0.0109 -0.7924  0.2360
 3370TIP3   OH231524   0.812   1.605   4.409  0.4432  0.0097 -0.2169
 3370TIP3    H131525   0.757   1.561   4.345 -2.4679  1.9050  0.7983
 3370TIP3    H231526   0.793   1.562   4.492 -0.6541  1.5351  0.3736
 3371TIP3   OH231527   3.508   3.875   4.139 -0.2798  0.3254 -0.2722
 3371TIP3    H131528   3.430   3.886   4.084  0.2256  1.2567 -0.8372
 3371TIP3    H231529   3.541   3.788   4.117  0.2652  0.9180 -1.9377
 3372TIP3   OH231530   2.364   4.873  17.282 -0.0547 -0.3119 -0.1054
 3372TIP3    H131531   2.314   4.793  17.266 -1.9157  0.7859 -0.1166
 3372TIP3    H231532   2.354   4.924  17.202  1.8792 -0.4373 -0.4483
 3373TIP3   OH231533   1.864   2.224  10.765  0.0562 -0.2738  0.7029
 3373TIP3    H131534   1.952   2.202  10.735 -0.3321  0.8675 -1.5287
 3373TIP3    H231535   1.806   2.184  10.701 -0.8897  1.3768  0.4563
 3374TIP3   OH231536   0.629   2.392   0.363  0.0898 -0.1866 -0.0140
 3374TIP3    H131537   0.711   2.431   0.334 -0.4941  1.1573  0.0767
 3374TIP3    H231538   0.562   2.433   0.308 -0.9019  1.4151  2.2398
 3375TIP3   OH231539   1.905   2.799   3.184  0.9987 -0.9514 -0.4152
 3375TIP3    H131540   1.819   2.761   3.199 -0.1751  1.5656 -0.2343
 3375TIP3    H231541   1.938   2.754   3.106 -1.9837  0.2464 -2.5572
 3376TIP3   OH231542   1.706   4.041   2.494 -0.7740  0.1634  0.3956
 3376TIP3    H131543   1.681   3.967   2.549 -0.8094  0.0085  0.1749
 3376TIP3    H231544   1.793   4.020   2.463 -0.1627  0.9205  1.5298
 3377TIP3   OH231545   1.272   5.994   2.918  0.7459 -0.2218  0.7995
 3377TIP3    H131546   1.200   5.976   2.978  1.0431 -0.6690  1.0351
 3377TIP3    H231547   1.337   5.927   2.939  0.5490 -0.8494 -0.5283
 3378TIP3   OH231548   2.559   6.321   2.575 -0.8500 -0.5208 -0.0137
 3378TIP3    H131549   2.615   6.244   2.591 -0.0046  0.2249  0.7514
 3378TIP3    H231550   2.492   6.290   2.514  0.4392 -1.4511 -1.0299
 3379TIP3   OH231551   1.701   2.596  13.017  0.4926 -0.3001  0.1713
 3379TIP3    H131552   1.790   2.570  12.994  1.0424 -0.6199  2.3513
 3379TIP3    H231553   1.700   2.595  13.113 -2.1744 -1.4384  0.2457
 3380TIP3   OH231554   4.270   4.025  14.773  0.0146 -0.0059 -0.0793
 3380TIP3    H131555   4.294   4.112  14.804 -0.0048 -0.3490  0.9299
 3380TIP3    H231556   4.349   3.973  14.784 -0.2991 -0.3923  0.4088
 3381TIP3   OH231557   2.612   5.486  12.215  0.1026 -0.3276  0.3876
 3381TIP3    H131558   2.606   5.391  12.223  0.1507 -0.5269 -1.4424
 3381TIP3    H231559   2.696   5.509  12.254 -1.1717 -0.5908  3.6509
 3382TIP3   OH231560   3.975   4.904  16.362  0.0670 -0.0704  0.0703
 3382TIP3    H131561   4.048   4.884  16.304 -0.6354 -1.3054 -0.4341
 3382TIP3    H231562   3.987   4.846  16.437 -0.1639  0.0175  0.1775
 3383TIP3   OH231563   4.982   3.538   6.746  0.3794  0.1712 -0.3865
 3383TIP3    H131564   4.966   3.601   6.676  1.6489 -0.3902 -1.2136
 3383TIP3    H231565   4.910   3.475   6.737 -1.2319  1.7302  0.8109
 3384TIP3   OH231566   1.044   0.337  15.340 -0.1733 -0.3576 -0.0200
 3384TIP3    H131567   1.037   0.248  15.306  0.1479 -1.2279  2.0513
 3384TIP3    H231568   1.131   0.367  15.311  0.3947 -1.3454  0.6136
 3385TIP3   OH231569   6.387   4.437   2.795  0.0978  0.0538  0.2319
 3385TIP3    H131570   6.393   4.530   2.817 -0.7864  0.1636  0.0224
 3385TIP3    H231571   6.310   4.406   2.843  2.4056 -1.4616  3.3817
 3386TIP3   OH231572   0.991   0.073   1.021  0.2240 -0.2309 -0.3942
 3386TIP3    H131573   0.986  -0.022   1.015  0.0972 -0.3874  1.5393
 3386TIP3    H231574   0.905   0.104   0.990 -0.3345 -0.8504  0.5083
 3387TIP3   OH231575   6.655   5.997   0.190  0.7119 -0.2791  0.2352
 3387TIP3    H131576   6.562   5.999   0.169  0.2523 -1.7239  1.9038
 3387TIP3    H231577   6.696   6.056   0.126 -1.3532  0.5316 -0.4071
 3388TIP3   OH231578   3.270   6.505  14.197 -0.6728  0.3127  0.1281
 3388TIP3    H131579   3.278   6.552  14.114  1.1503 -0.3143 -0.1149
 3388TIP3    H231580   3.246   6.416  14.171  0.3711 -0.0039  0.2196
 3389TIP3   OH231581   4.949   5.164   1.307  0.0953 -0.6652 -0.1875
 3389TIP3    H131582   5.016   5.117   1.356  0.3239 -0.5463 -0.3833
 3389TIP3    H231583   4.987   5.176   1.220 -0.9705 -2.3922 -0.9426
 3390TIP3   OH231584   5.939   0.880  15.571 -0.2001  0.1006  0.1301
 3390TIP3    H131585   5.891   0.799  15.556  0.6469 -0.5311  0.8117
 3390TIP3    H231586   5.928   0.898  15.664 -0.6832  0.9774 -0.0795
 3391TIP3   OH231587   0.780   6.477   5.987 -0.1691 -0.3160  0.5230
 3391TIP3    H131588   0.752   6.561   6.024 -0.8033 -0.2676 -0.0580
 3391TIP3    H231589   0.745   6.411   6.048 -1.9922 -0.2791 -0.4477
 3392TIP3   OH231590   5.661   1.918  12.277  0.9017  0.0886  0.5329
 3392TIP3    H131591   5.686   1.827  12.292  1.3121 -0.0377 -0.7424
 3392TIP3    H231592   5.740   1.968  12.296  1.2995 -0.0340 -0.6967
 3393TIP3   OH231593   3.362   1.105   3.236  0.0840  0.1726  0.4726
 3393TIP3    H131594   3.297   1.062   3.180 -0.9395 -0.1086  1.8241
 3393TIP3    H231595   3.373   1.045   3.310  0.2341  1.2472  1.3392
 3394TIP3   OH231596   6.253   0.421  15.772 -0.1782 -0.4011  0.2768
 3394TIP3    H131597   6.208   0.338  15.754 -0.4885 -0.0905 -0.4155
 3394TIP3    H231598   6.215   0.483  15.709  0.4543  0.1288  0.4091
 3395TIP3   OH231599   4.373   1.175   5.416 -0.0911 -0.0681 -0.5188
 3395TIP3    H131600   4.429   1.098   5.407 -0.4739 -0.2378 -1.6173
 3395TIP3    H231601   4.425   1.236   5.468  1.2008 -0.1592 -1.6402
 3396TIP3   OH231602   4.098   5.271  13.654 -0.1681 -0.1892  0.4621
 3396TIP3    H131603   4.031   5.250  13.719 -0.1858 -1.4146  0.0636
 3396TIP3    H231604   4.142   5.349  13.690 -0.9681 -0.1202  1.3349
 3397TIP3   OH231605   2.359   3.472  14.756 -0.2345 -0.3728  0.1339
 3397TIP3    H131606   2.294   3.531  14.794  0.9856 -0.5646  2.8323
 3397TIP3    H231607   2.440   3.492  14.805  1.2084 -1.5774 -1.6199
 3398TIP3   OH231608   4.383   6.688   1.185 -0.2088  0.4139 -0.4423
 3398TIP3    H131609   4.444   6.727   1.122 -1.6319  0.1990 -2.0323
 3398TIP3    H231610   4.435   6.622   1.231  1.2987  1.6885 -0.2223
 3399TIP3   OH231611   1.392   1.073  16.588 -0.2482 -0.4979  0.0684
 3399TIP3    H131612   1.340   1.003  16.629 -0.0242 -1.2480 -0.8891
 3399TIP3    H231613   1.328   1.122  16.536 -0.9081  1.5932  2.6194
 3400TIP3   OH231614   0.536   0.878  13.908  0.4380  0.0724  0.0757
 3400TIP3    H131615   0.569   0.880  13.998  0.0758 -0.7862  0.2364
 3400TIP3    H231616   0.614   0.893  13.854  0.6563  0.5982  0.5293
 3401TIP3   OH231617   4.862   2.615   2.359 -0.6003 -0.6678 -0.7833
 3401TIP3    H131618   4.866   2.647   2.449 -0.5693 -0.3932 -0.8842
 3401TIP3    H231619   4.938   2.557   2.351 -0.3487 -0.3419 -0.7702
 3402TIP3   OH231620   4.775   0.811  12.041 -1.0023  0.1599  0.4976
 3402TIP3    H131621   4.768   0.905  12.057  1.5192  0.3208  1.0071
 3402TIP3    H231622   4.866   0.797  12.015 -1.5883 -2.0029 -0.7238
 3403TIP3   OH231623   4.546   5.634  14.553  0.2932 -0.6865  0.3421
 3403TIP3    H131624   4.512   5.548  14.528 -3.5816  1.1305 -1.5799
 3403TIP3    H231625   4.548   5.633  14.648 -1.0834 -2.4402  0.3962
 3404TIP3   OH231626   0.735   3.322  14.162 -0.2902  0.4057  0.0741
 3404TIP3    H131627   0.674   3.255  14.132 -0.9747  0.5965  0.9886
 3404TIP3    H231628   0.680   3.392  14.194  0.4239  1.3330 -0.6748
 3405TIP3   OH231629   1.005   5.192  17.032 -0.7289  0.1285  0.7165
 3405TIP3    H131630   0.969   5.263  16.979 -0.5614  0.3771  0.9327
 3405TIP3    H231631   1.007   5.117  16.973 -1.2607  0.2013  0.5955
 3406TIP3   OH231632   2.244   0.378   3.203 -0.1593  0.3035 -0.1753
 3406TIP3    H131633   2.252   0.457   3.258  1.1388  0.4805 -0.5864
 3406TIP3    H231634   2.222   0.411   3.116 -1.6303  0.0583  0.0759
 3407TIP3   OH231635   3.386   4.713   4.831  0.2099  0.6251  0.0826
 3407TIP3    H131636   3.294   4.697   4.853  0.0599 -0.1051 -0.9819
 3407TIP3    H231637   3.389   4.805   4.804 -0.5105  0.2838 -1.2330
 3408TIP3   OH231638   1.941   2.425   0.522 -0.2088  0.2866  0.1783
 3408TIP3    H131639   1.937   2.356   0.455  0.9471 -0.1527  0.5499
 3408TIP3    H231640   1.885   2.392   0.592 -2.0232  1.0758 -0.8172
 3409TIP3   OH231641   0.907   4.790   5.997  0.6734  0.0570  0.0203
 3409TIP3    H131642   0.995   4.754   5.988  0.6418 -0.1519  0.5429
 3409TIP3    H231643   0.853   4.734   5.942  0.6391 -0.6594  0.7609
 3410TIP3   OH231644   5.379   1.288  13.304  0.3828 -0.5570 -0.6543
 3410TIP3    H131645   5.471   1.262  13.303  0.1368 -1.4306 -1.0142
 3410TIP3    H231646   5.354   1.283  13.396  1.3987  2.3107 -0.1221
 3411TIP3   OH231647   3.328   3.062  11.131 -0.3830  0.0287  0.4335
 3411TIP3    H131648   3.297   2.999  11.065 -0.4586  1.0902 -0.5871
 3411TIP3    H231649   3.274   3.045  11.208 -0.2716 -1.2669  0.2518
 3412TIP3   OH231650   6.221   1.894  14.204 -0.4133 -0.0404  0.3552
 3412TIP3    H131651   6.145   1.843  14.233 -0.5175 -1.2918 -1.8148
 3412TIP3    H231652   6.296   1.847  14.239 -0.5777  0.6626  1.7164
 3413TIP3   OH231653   1.483   1.867  14.902  0.3151  0.5612 -0.2124
 3413TIP3    H131654   1.466   1.785  14.855 -0.3140  0.4803  0.1425
 3413TIP3    H231655   1.398   1.892  14.937  0.5598  1.2359 -0.1010
 3414TIP3   OH231656   6.692   4.566   0.059 -0.0330  0.3152  0.3201
 3414TIP3    H131657   6.695   4.504  -0.014  0.3796  0.7725 -0.0583
 3414TIP3    H231658   6.768   4.623   0.045 -0.6530  1.1764  0.4288
 3415TIP3   OH231659   3.952   5.274   4.034  0.5838  0.9443 -0.1674
 3415TIP3    H131660   3.904   5.303   4.111 -1.5005 -1.4497 -0.4554
 3415TIP3    H231661   4.016   5.212   4.067 -0.1673  0.0793 -0.3013
 3416TIP3   OH231662   3.441   5.407  14.317 -0.0324 -0.1725 -0.7739
 3416TIP3    H131663   3.453   5.312  14.321 -3.0264 -0.6166  0.2426
 3416TIP3    H231664   3.371   5.419  14.253 -1.2620  1.1266  0.7532
 3417TIP3   OH231665   3.506   3.871  16.455 -0.3576  0.3470 -0.7875
 3417TIP3    H131666   3.455   3.800  16.416 -0.9460  0.4927 -0.3043
 3417TIP3    H231667   3.563   3.902  16.385  0.6508 -1.2762 -0.7156
 3418TIP3   OH231668   6.024   1.540  15.670  0.1566 -0.1871  0.3157
 3418TIP3    H131669   5.957   1.484  15.709  0.2574 -1.9973 -1.9758
 3418TIP3    H231670   6.100   1.529  15.727 -0.2893 -1.1892  0.7355
 3419TIP3   OH231671   3.566   1.688  13.457 -0.4406 -0.3404  0.2555
 3419TIP3    H131672   3.567   1.701  13.362 -1.6385  0.8499  0.3791
 3419TIP3    H231673   3.623   1.756  13.491 -0.9023 -0.0454  0.4490
 3420TIP3   OH231674   5.687   1.887   6.092  0.0905 -0.5312  0.5614
 3420TIP3    H131675   5.610   1.887   6.149 -0.1538 -1.4649  0.2520
 3420TIP3    H231676   5.748   1.947   6.135 -0.3476 -0.6965  1.4419
 3421TIP3   OH231677   4.084   5.780   2.291 -0.3641 -0.0143 -0.4743
 3421TIP3    H131678   4.089   5.797   2.385  1.6008 -0.1885 -0.4949
 3421TIP3    H231679   4.013   5.835   2.260 -0.1551  1.0846  0.9078
 3422TIP3   OH231680   3.632   2.140  15.921 -0.7933 -0.2640 -0.1756
 3422TIP3    H131681   3.693   2.204  15.885 -0.9875  0.0266  0.0036
 3422TIP3    H231682   3.668   2.055  15.896 -0.1760 -0.1034  0.1548
 3423TIP3   OH231683   6.249   1.510   0.256  0.8286  0.1655 -0.3686
 3423TIP3    H131684   6.332   1.550   0.230  1.0960 -0.2828 -0.2155
 3423TIP3    H231685   6.222   1.560   0.334  0.8781  0.4061 -0.5050
 3424TIP3   OH231686   3.910   4.235  13.262  0.2904 -0.2414 -0.1411
 3424TIP3    H131687   3.849   4.306  13.240 -0.0513 -0.6306 -0.4663
 3424TIP3    H231688   3.901   4.225  13.357 -0.8660 -0.9295 -0.3001
 3425TIP3   OH231689   6.241   4.395   0.859 -0.0765  0.1578  0.2623
 3425TIP3    H131690   6.299   4.464   0.890 -1.8990  2.7675 -1.6652
 3425TIP3    H231691   6.208   4.428   0.776 -1.9389 -2.5952 -0.2095
 3426TIP3   OH231692   5.494   3.531   3.060  0.5072  0.0807  0.1837
 3426TIP3    H131693   5.401   3.554   3.052  0.4473  0.2546  1.2254
 3426TIP3    H231694   5.497   3.438   3.038 -0.4355 -0.7180  2.9725
 3427TIP3   OH231695   2.450   1.950   5.956 -0.2334 -0.2464  0.0836
 3427TIP3    H131696   2.445   1.858   5.931  0.2049 -0.0959 -0.5917
 3427TIP3    H231697   2.389   1.995   5.897  0.8851  0.1253 -0.8356
 3428TIP3   OH231698   2.655   2.381  13.439 -0.2446  0.5976 -0.6829
 3428TIP3    H131699   2.730   2.321  13.448 -0.4484  0.4244 -0.1276
 3428TIP3    H231700   2.585   2.340  13.490 -0.0325  1.9014  0.7417
 3429TIP3   OH231701   6.193   4.869   1.609  0.0959 -0.2994 -0.0402
 3429TIP3    H131702   6.200   4.774   1.598  0.0763 -0.2803 -0.2317
 3429TIP3    H231703   6.249   4.889   1.684 -0.0158 -0.4809  0.0933
 3430TIP3   OH231704   6.771   6.045   4.645 -0.4274 -1.0437 -0.6515
 3430TIP3    H131705   6.796   6.032   4.553 -1.0462 -1.3067 -0.7885
 3430TIP3    H231706   6.790   6.137   4.662  0.3176 -1.1595 -0.8448
 3431TIP3   OH231707   2.883   2.343   5.510  0.4030 -0.3407  0.3208
 3431TIP3    H131708   2.965   2.369   5.553  1.4063 -1.4232 -0.8598
 3431TIP3    H231709   2.856   2.264   5.557 -0.2348  0.2831  1.0178
 3432TIP3   OH231710   2.465   4.491  14.429  0.7213 -0.1344 -0.2234
 3432TIP3    H131711   2.547   4.526  14.394  1.0449  0.7274  1.2787
 3432TIP3    H231712   2.487   4.462  14.518 -0.4649 -0.4742 -0.0169
 3433TIP3   OH231713   5.128   3.110  13.022 -0.0520 -0.0458  0.6775
 3433TIP3    H131714   5.158   3.145  13.106 -0.7553  0.9262  0.5347
 3433TIP3    H231715   5.100   3.186  12.972 -0.8181 -0.7272  0.0300
 3434TIP3   OH231716   1.532   6.030   5.343 -0.2599  0.0610 -0.0838
 3434TIP3    H131717   1.504   6.122   5.337  0.2125  0.3141  1.3630
 3434TIP3    H231718   1.501   5.991   5.261 -0.1449  1.5959 -0.8967
 3435TIP3   OH231719   0.264   5.808  10.769  0.3416  0.2479  1.0993
 3435TIP3    H131720   0.272   5.744  10.698 -1.3355 -1.2187  2.1596
 3435TIP3    H231721   0.336   5.869  10.754  1.1351 -1.0550 -0.7968
 3436TIP3   OH231722   4.979   1.215   1.690 -0.0658 -0.3310  0.0753
 3436TIP3    H131723   5.068   1.224   1.655  0.4367  2.4862  1.7278
 3436TIP3    H231724   4.968   1.121   1.704  2.5281 -0.8041 -0.5083
 3437TIP3   OH231725   2.591   0.730   4.087 -0.4789 -0.0828  0.4166
 3437TIP3    H131726   2.520   0.670   4.110 -1.3907  1.1695  0.9951
 3437TIP3    H231727   2.636   0.687   4.015 -1.1667 -1.4081  0.7474
 3438TIP3   OH231728   4.613   4.767  15.604  0.1963 -0.2787 -0.0811
 3438TIP3    H131729   4.707   4.781  15.609  0.0583  0.6331  0.2851
 3438TIP3    H231730   4.598   4.684  15.649  0.7088  0.1186  0.8471
 3439TIP3   OH231731   0.626   5.910  11.661 -0.1747  0.0603  0.2552
 3439TIP3    H131732   0.533   5.892  11.650  0.3546 -3.4085  0.2957
 3439TIP3    H231733   0.634   5.948  11.748 -1.5848  1.5158 -0.1906
 3440TIP3   OH231734   1.010   5.751   3.236 -0.1946 -0.3694  0.5100
 3440TIP3    H131735   0.932   5.714   3.195 -2.0083  2.0607  1.5456
 3440TIP3    H231736   1.013   5.711   3.323  0.1029 -0.9030  0.2641
 3441TIP3   OH231737   0.936   2.655  11.769  0.5347  0.2500  0.4520
 3441TIP3    H131738   0.893   2.736  11.742 -0.5829 -0.2881  0.5642
 3441TIP3    H231739   0.995   2.635  11.696 -0.2549  0.3929 -0.2469
 3442TIP3   OH231740   3.113   4.881  13.210 -0.3279  0.1508  0.1449
 3442TIP3    H131741   3.103   4.905  13.302 -1.9168 -0.2641  0.1108
 3442TIP3    H231742   3.085   4.790  13.206 -1.4859  0.5365 -0.9515
 3443TIP3   OH231743   5.236   1.304   1.569  0.4963 -0.3449 -0.0865
 3443TIP3    H131744   5.207   1.338   1.653  1.8108  0.6963 -0.0168
 3443TIP3    H231745   5.261   1.382   1.519 -0.5218 -0.9197 -1.5685
 3444TIP3   OH231746   6.210   2.775   3.993  0.3984  0.1317  0.0603
 3444TIP3    H131747   6.265   2.852   3.984 -1.8173  1.5697 -3.0262
 3444TIP3    H231748   6.227   2.723   3.914 -2.9164  1.0215 -1.4575
 3445TIP3   OH231749   5.249   0.899   1.039 -0.7745 -0.6615 -0.2630
 3445TIP3    H131750   5.233   0.964   1.108 -1.0988 -0.6129 -0.3827
 3445TIP3    H231751   5.344   0.898   1.029 -0.7992  0.3746 -0.8014
 3446TIP3   OH231752   0.521   4.271  11.823 -0.1053  1.0266 -0.1718
 3446TIP3    H131753   0.476   4.207  11.878 -0.3305 -0.4704 -2.0036
 3446TIP3    H231754   0.461   4.346  11.820 -0.0421  1.2139  1.6226
 3447TIP3   OH231755   0.345   2.467   4.706 -0.6141  0.3368 -0.3365
 3447TIP3    H131756   0.286   2.482   4.632 -0.2018  1.8133 -0.3975
 3447TIP3    H231757   0.305   2.514   4.779 -0.0706  0.4620 -0.1105
 3448TIP3   OH231758   1.609   2.111   5.470  0.7596 -0.5512 -0.0987
 3448TIP3    H131759   1.670   2.090   5.399  1.3597 -1.5942  0.7050
 3448TIP3    H231760   1.579   2.027   5.502 -0.1509 -0.0657  0.3495
 3449TIP3   OH231761   4.072   4.851  11.058  0.3940  0.2033  0.4109
 3449TIP3    H131762   3.999   4.790  11.048  1.0113 -0.7486  1.5039
 3449TIP3    H231763   4.111   4.856  10.971  1.0950 -1.9784  0.5491
 3450TIP3   OH231764   3.521   5.337  14.777  0.3507  0.2537  0.6814
 3450TIP3    H131765   3.510   5.259  14.722  0.7421  0.8579 -0.2830
 3450TIP3    H231766   3.509   5.410  14.716 -2.7090  1.0394  2.0325
 3451TIP3   OH231767   4.394   5.646  14.877  0.4163 -0.1223 -0.0200
 3451TIP3    H131768   4.311   5.655  14.831 -0.0655 -0.3343  0.7846
 3451TIP3    H231769   4.388   5.562  14.921  1.1907 -0.2779 -0.1985
 3452TIP3   OH231770   2.752   1.956   4.260  0.1320  0.7313 -0.5563
 3452TIP3    H131771   2.776   1.899   4.188  1.3219  1.5897 -0.8710
 3452TIP3    H231772   2.662   1.930   4.283 -0.8659  1.4059 -3.3077
 3453TIP3   OH231773   5.278   4.995  11.266  0.0309 -0.0944  0.4042
 3453TIP3    H131774   5.337   4.930  11.228  0.1319 -0.5074  1.2394
 3453TIP3    H231775   5.331   5.074  11.275 -0.0594  0.0810 -0.5090
 3454TIP3   OH231776   0.751   0.253  15.123  0.7377 -0.4094  0.4422
 3454TIP3    H131777   0.829   0.283  15.077 -0.2707  0.4369 -0.8217
 3454TIP3    H231778   0.698   0.333  15.134  0.4971 -0.7701  2.2177
 3455TIP3   OH231779   3.241   1.777   2.959 -0.5512 -0.3929  0.0834
 3455TIP3    H131780   3.182   1.757   2.887  0.6026 -0.4626 -0.8618
 3455TIP3    H231781   3.223   1.869   2.980 -0.4234 -0.1791 -0.7332
 3456TIP3   OH231782   2.255   5.288   0.790  0.8163 -0.2908 -0.4263
 3456TIP3    H131783   2.327   5.241   0.748 -0.4940 -0.9122 -2.1341
 3456TIP3    H231784   2.206   5.326   0.717 -0.0021  1.0055  0.7513
 3457TIP3   OH231785   0.129   5.039   0.901  0.2370  0.6677  0.5713
 3457TIP3    H131786   0.130   4.946   0.879 -3.4085  0.3182  1.2942
 3457TIP3    H231787   0.187   5.047   0.977  0.4871 -1.0316  0.5893
 3458TIP3   OH231788   5.786   1.247  14.578 -0.2906  0.2569  0.2144
 3458TIP3    H131789   5.849   1.219  14.644  0.3515 -0.0994 -0.5302
 3458TIP3    H231790   5.710   1.277  14.628  0.4623  0.6965  1.1311
 3459TIP3   OH231791   0.434   6.554   1.859 -0.3058 -0.2574  0.0581
 3459TIP3    H131792   0.412   6.536   1.951 -0.0927  2.6081  0.7807
 3459TIP3    H231793   0.358   6.602   1.825  0.1440 -0.1762 -0.8655
 3460TIP3   OH231794   4.473   0.404   1.518  0.5758 -0.1614 -0.6295
 3460TIP3    H131795   4.383   0.377   1.500  0.6970 -0.4782 -0.7651
 3460TIP3    H231796   4.467   0.497   1.539 -0.0095 -0.5519  1.0690
 3461TIP3   OH231797   0.217   2.109  11.931  0.4422 -0.0480 -0.0020
 3461TIP3    H131798   0.137   2.087  11.884 -0.3828  0.5866  1.0560
 3461TIP3    H231799   0.257   2.178  11.878 -0.6490  0.8987  0.3458
 3462TIP3   OH231800   2.552   4.602  15.545  0.6007  0.4326 -0.0803
 3462TIP3    H131801   2.499   4.666  15.497 -2.3774 -0.5503  1.5688
 3462TIP3    H231802   2.532   4.620  15.637  1.5069 -1.3730  0.5158
 3463TIP3   OH231803   2.905   3.434   5.541 -0.4393  0.3565 -0.0053
 3463TIP3    H131804   2.894   3.397   5.628  0.2268 -2.9076 -1.1794
 3463TIP3    H231805   2.948   3.518   5.556 -1.6104  0.5538  2.8387
 3464TIP3   OH231806   2.446   3.930   6.445  0.0627  0.1291 -0.2082
 3464TIP3    H131807   2.479   3.973   6.366 -1.8491  1.7771 -0.1732
 3464TIP3    H231808   2.351   3.933   6.436 -0.1745 -0.7290  1.6271
 3465TIP3   OH231809   1.781   3.458  11.461 -0.1551 -0.6232 -0.3216
 3465TIP3    H131810   1.815   3.432  11.547  0.7774 -1.3602 -0.8874
 3465TIP3    H231811   1.710   3.397  11.444  1.0155 -1.8661 -0.9592
 3466TIP3   OH231812   1.414   6.649   1.726 -0.4910  0.4875 -0.2854
 3466TIP3    H131813   1.363   6.693   1.794 -0.8645 -0.1835 -0.1299
 3466TIP3    H231814   1.350   6.617   1.664 -0.2985 -0.7099  0.1172
 3467TIP3   OH231815   4.784   5.607   3.984 -0.1884  0.0537 -0.0499
 3467TIP3    H131816   4.715   5.550   3.951  0.3163  0.5036 -2.0010
 3467TIP3    H231817   4.789   5.678   3.921  2.4989 -0.3119 -0.3780
 3468TIP3   OH231818   6.307   1.136   5.158  0.0688 -0.9031  0.3142
 3468TIP3    H131819   6.350   1.078   5.095 -1.7590 -0.3560 -1.5559
 3468TIP3    H231820   6.379   1.183   5.201  1.4032 -1.5938 -1.0618
 3469TIP3   OH231821   3.807   3.276   1.998 -0.0003  1.0498 -0.0628
 3469TIP3    H131822   3.732   3.235   2.040  0.7889 -0.6875 -0.3015
 3469TIP3    H231823   3.774   3.301   1.911  0.1515 -1.4466 -0.9099
 3470TIP3   OH231824   6.319   4.351  17.017  0.5088  0.4145 -0.1458
 3470TIP3    H131825   6.341   4.259  17.030  0.5317  0.1348 -1.8795
 3470TIP3    H231826   6.236   4.362  17.062  0.6264 -0.3894  0.2941
 3471TIP3   OH231827   3.052   1.725   1.407  0.1271  0.1360  0.0384
 3471TIP3    H131828   3.101   1.693   1.331 -0.3745 -1.8976  0.5158
 3471TIP3    H231829   2.963   1.692   1.394 -0.5255  1.6171  0.4579
 3472TIP3   OH231830   0.202   5.432   4.110 -0.2315 -0.2148 -0.1662
 3472TIP3    H131831   0.272   5.469   4.057  0.5499 -0.4432  0.6714
 3472TIP3    H231832   0.211   5.476   4.195 -2.0357  0.8184 -0.4714
 3473TIP3   OH231833   0.402   0.502   4.577  0.0116  0.2199 -0.0002
 3473TIP3    H131834   0.432   0.567   4.513  0.4013 -0.4267 -0.4861
 3473TIP3    H231835   0.470   0.436   4.578  1.1309  1.2536  2.7217
 3474TIP3   OH231836   0.911   2.073  12.793  0.9647  0.2515 -0.4296
 3474TIP3    H131837   0.855   2.001  12.768  0.6640  0.4941 -0.4534
 3474TIP3    H231838   0.909   2.133  12.719  3.2135 -0.8782 -1.4968
 3475TIP3   OH231839   5.485   3.059   0.412 -0.4403 -0.2358  0.3742
 3475TIP3    H131840   5.566   3.105   0.437  0.2699 -1.4231  0.3338
 3475TIP3    H231841   5.416   3.124   0.425  0.1816  0.0001  2.9932
 3476TIP3   OH231842   2.633   1.325   0.987  0.6071 -0.0000 -0.7545
 3476TIP3    H131843   2.544   1.347   0.961  0.2136 -1.0589 -0.3517
 3476TIP3    H231844   2.623   1.264   1.060  1.5466 -3.0687 -2.9455
 3477TIP3   OH231845   4.566   4.586  13.900  0.1912  0.4019  0.7663
 3477TIP3    H131846   4.544   4.666  13.947  1.1399  0.4062  1.2454
 3477TIP3    H231847   4.635   4.546  13.953 -0.8182 -1.1425  0.9535
 3478TIP3   OH231848   3.907   5.748   5.053  1.1541  0.8015 -0.6565
 3478TIP3    H131849   3.963   5.822   5.079  1.4007  0.3584  0.1131
 3478TIP3    H231850   3.909   5.689   5.129  0.9146  0.0311 -1.2386
 3479TIP3   OH231851   4.382   4.079   0.186  0.1658 -0.0913  0.2475
 3479TIP3    H131852   4.347   3.996   0.156  3.2277 -1.9443  1.2685
 3479TIP3    H231853   4.373   4.138   0.112 -2.8408 -0.9869 -0.2379
 3480TIP3   OH231854   4.676   6.413  12.520  0.5692  0.1382 -0.8623
 3480TIP3    H131855   4.662   6.371  12.436  0.8108 -0.8515 -0.4251
 3480TIP3    H231856   4.625   6.493  12.516 -1.0754 -0.8901 -1.1871
 3481TIP3   OH231857   2.033   1.141  12.497  0.5321 -0.3706 -0.4208
 3481TIP3    H131858   1.986   1.204  12.552 -1.9674 -0.7482 -1.9452
 3481TIP3    H231859   2.112   1.120  12.546 -0.3359  1.2066  1.8045
 3482TIP3   OH231860   2.963   3.833  14.408 -0.5875 -0.0378 -0.0578
 3482TIP3    H131861   2.894   3.900  14.412  0.1489  1.0588 -3.1533
 3482TIP3    H231862   2.956   3.796  14.319  3.5783  1.0667 -1.0601
 3483TIP3   OH231863   4.249   0.416  13.886  0.3067  0.4417  0.5265
 3483TIP3    H131864   4.303   0.345  13.921  0.2596  1.1811  2.2045
 3483TIP3    H231865   4.176   0.424  13.947 -2.0063 -0.7831 -1.8905
 3484TIP3   OH231866   4.801   1.505  15.873 -0.1329  0.1491 -0.7111
 3484TIP3    H131867   4.862   1.558  15.924  0.7644 -1.7822  0.3381
 3484TIP3    H231868   4.847   1.489  15.790  0.7775 -1.1317 -0.0017
 3485TIP3   OH231869   2.523   1.165  16.960 -0.0753  0.2098  0.1490
 3485TIP3    H131870   2.494   1.154  17.051  0.4765  1.1186  0.4431
 3485TIP3    H231871   2.462   1.111  16.909 -0.2415 -0.4976  1.0765
 3486TIP3   OH231872   3.233   5.973   2.533 -1.2716 -0.0093  0.1325
 3486TIP3    H131873   3.222   5.885   2.568 -1.1715  0.7457  2.1738
 3486TIP3    H231874   3.328   5.981   2.520 -1.3076 -0.2797 -0.3521
 3487TIP3   OH231875   5.654   6.308  13.029  0.4466 -0.0785  0.0576
 3487TIP3    H131876   5.706   6.299  12.950 -1.1432 -0.4647 -0.9949
 3487TIP3    H231877   5.706   6.264  13.097  1.8235  0.2364 -0.7499
 3488TIP3   OH231878   0.162   2.622   0.321  0.1178  0.0592 -0.1588
 3488TIP3    H131879   0.197   2.681   0.387 -1.6318  0.4621  0.4609
 3488TIP3    H231880   0.204   2.650   0.239  0.7150  0.9280  0.4259
 3489TIP3   OH231881   2.915   3.268  13.715  0.2836  0.0949  0.0799
 3489TIP3    H131882   2.870   3.353  13.709  2.0984  1.1894  0.9192
 3489TIP3    H231883   2.876   3.226  13.791 -0.3925  0.3248 -0.1301
 3490TIP3   OH231884   1.334   0.686   3.050  0.0202 -0.6135 -0.2088
 3490TIP3    H131885   1.277   0.636   2.992  0.7873 -1.7435 -0.0114
 3490TIP3    H231886   1.411   0.705   2.997 -0.2016  0.2798 -0.2397
 3491TIP3   OH231887   5.683   5.827  15.398  0.0565  0.1685 -0.1952
 3491TIP3    H131888   5.643   5.790  15.319  0.1539  2.8016 -1.5957
 3491TIP3    H231889   5.609   5.855  15.452 -0.0094  0.7213 -0.5699
 3492TIP3   OH231890   2.798   4.734   6.099  0.2691 -0.1383  0.2087
 3492TIP3    H131891   2.818   4.671   6.168  0.0050 -1.5974 -1.0070
 3492TIP3    H231892   2.715   4.773   6.127  0.8828  0.3718  1.4238
 3493TIP3   OH231893   3.145   4.886   1.010  0.0115 -0.6064  0.9042
 3493TIP3    H131894   3.177   4.799   1.032  0.3233 -0.0223  2.9913
 3493TIP3    H231895   3.140   4.932   1.094 -1.4115  0.9725  0.0347
 3494TIP3   OH231896   0.667   2.936   5.520  0.2073  0.5061 -0.4404
 3494TIP3    H131897   0.666   2.840   5.520  1.4404  0.4186  1.8116
 3494TIP3    H231898   0.741   2.959   5.463  2.3145 -0.1108  1.8368
 3495TIP3   OH231899   1.268   6.474   5.385 -0.1597  0.7697 -0.0119
 3495TIP3    H131900   1.232   6.541   5.444  1.2432  1.2601  0.3234
 3495TIP3    H231901   1.286   6.521   5.303 -1.7869  0.1635 -0.7679
 3496TIP3   OH231902   0.128   4.259   5.209 -0.1975 -0.1484 -0.1489
 3496TIP3    H131903   0.217   4.258   5.174 -0.8621 -0.3650 -1.9588
 3496TIP3    H231904   0.114   4.172   5.246 -0.3225 -0.8238 -1.7241
 3497TIP3   OH231905   5.457   6.749  13.163 -0.2718  0.4752 -0.2202
 3497TIP3    H131906   5.466   6.797  13.246  1.4531  2.7119 -1.5595
 3497TIP3    H231907   5.516   6.675  13.172  0.0038  0.7757  0.5314
 3498TIP3   OH231908   3.771   3.320  16.591  0.2610 -0.1602  0.7860
 3498TIP3    H131909   3.710   3.393  16.582  0.8661  0.1919 -0.7373
 3498TIP3    H231910   3.757   3.288  16.680 -1.4096  0.5593  0.8260
 3499TIP3   OH231911   5.621   5.778   0.768 -0.5159  0.5571 -0.5382
 3499TIP3    H131912   5.621   5.770   0.863 -2.0605 -0.8036 -0.6147
 3499TIP3    H231913   5.590   5.867   0.752 -4.0730 -0.3744  0.2741
 3500TIP3   OH231914   3.729   2.862  15.693 -0.6194 -0.6446  0.0677
 3500TIP3    H131915   3.686   2.917  15.758 -0.8500  1.5168 -1.8228
 3500TIP3    H231916   3.657   2.820  15.645 -0.4689 -1.2361  0.3408
 3501TIP3   OH231917   5.623   3.598  13.111 -0.3276 -0.1450  0.0157
 3501TIP3    H131918   5.605   3.509  13.139  0.0381  0.2675  1.6558
 3501TIP3    H231919   5.622   3.649  13.192  1.0297  1.0833 -0.7069
 3502TIP3   OH231920   6.219   4.133  11.792 -0.0473 -0.4284 -0.0043
 3502TIP3    H131921   6.177   4.070  11.734  0.8477  0.2267 -1.4247
 3502TIP3    H231922   6.310   4.104  11.797  0.5496  1.0768 -1.2298
 3503TIP3   OH231923   4.371   3.132   4.376  0.3721 -0.0580  0.0613
 3503TIP3    H131924   4.402   3.102   4.290  1.2875  0.3143  0.2464
 3503TIP3    H231925   4.316   3.208   4.357  1.6086  0.8169 -0.1309
 3504TIP3   OH231926   4.101   0.561   5.312  0.0346 -0.0161 -0.2052
 3504TIP3    H131927   4.057   0.637   5.351  0.3638  0.2877 -0.4202
 3504TIP3    H231928   4.145   0.519   5.386 -0.8209 -0.4653  0.0518
 3505TIP3   OH231929   3.913   0.037   0.318 -0.7021 -0.4014  0.0018
 3505TIP3    H131930   3.981   0.077   0.264 -1.0146 -1.8541 -1.5549
 3505TIP3    H231931   3.920   0.081   0.403 -1.3865  3.3367 -1.6767
 3506TIP3   OH231932   4.244   0.142   1.327 -0.0704  0.5736  1.1859
 3506TIP3    H131933   4.304   0.067   1.320  1.1155  1.5587  0.2133
 3506TIP3    H231934   4.217   0.159   1.237  1.0132  2.3197  1.1377
 3507TIP3   OH231935   5.593   1.088   6.186  0.6492  0.1527 -0.5061
 3507TIP3    H131936   5.628   1.080   6.275  0.7563  1.0850 -0.4555
 3507TIP3    H231937   5.537   1.011   6.175 -0.6331  0.8223  0.9600
 3508TIP3   OH231938   1.110   6.192  15.313 -0.2885  0.4798  0.2703
 3508TIP3    H131939   1.102   6.279  15.276  2.0565  0.3661 -0.6541
 3508TIP3    H231940   1.203   6.169  15.303 -0.7023 -1.8740  1.0425
 3509TIP3   OH231941   5.551   1.639  13.539 -0.6192 -1.2821  0.6220
 3509TIP3    H131942   5.486   1.708  13.551  0.5107 -0.5974  3.7809
 3509TIP3    H231943   5.530   1.574  13.607  1.1177 -1.7307  0.7773
 3510TIP3   OH231944   2.806   3.028  12.667  0.4117 -0.7770  0.4497
 3510TIP3    H131945   2.721   2.992  12.645  0.6562 -1.0364 -0.1072
 3510TIP3    H231946   2.868   2.960  12.642  0.8596 -0.1047 -0.3234
 3511TIP3   OH231947   0.830   6.503   5.534  0.2215 -0.4872 -0.1067
 3511TIP3    H131948   0.876   6.429   5.573 -0.9488 -2.0010 -1.4534
 3511TIP3    H231949   0.808   6.474   5.445 -3.1002  0.2022  0.3510
 3512TIP3   OH231950   0.028   5.363   5.347  0.0835 -0.2479  0.0849
 3512TIP3    H131951  -0.026   5.401   5.416  0.7887  0.5186  0.2230
 3512TIP3    H231952  -0.005   5.273   5.337 -0.3575 -0.1985  1.0529
 3513TIP3   OH231953   6.583   1.415  16.015 -0.2678 -0.1200 -0.0418
 3513TIP3    H131954   6.672   1.447  16.003  0.4975 -2.2726 -0.6231
 3513TIP3    H231955   6.553   1.456  16.096  1.6907 -0.2222  0.7885
 3514TIP3   OH231956   0.226   4.711  15.521  0.1812 -0.7405 -0.6441
 3514TIP3    H131957   0.269   4.639  15.475 -1.4155 -0.9583 -1.8725
 3514TIP3    H231958   0.133   4.698  15.505 -0.1923  1.2652 -0.3673
 3515TIP3   OH231959   0.899   2.005   4.142 -0.0811 -0.2203 -0.0407
 3515TIP3    H131960   0.966   1.972   4.083  0.2056 -0.0275  0.1773
 3515TIP3    H231961   0.825   1.945   4.130  0.3844 -0.8723  0.2604
 3516TIP3   OH231962   0.115   1.641  12.523 -0.7272  0.4241  0.0620
 3516TIP3    H131963   0.130   1.643  12.618  0.1425 -1.8620  0.0241
 3516TIP3    H231964   0.065   1.562  12.508 -0.3600  0.4514 -1.4599
 3517TIP3   OH231965   1.688   4.379   3.631  0.3332  0.1207 -0.5703
 3517TIP3    H131966   1.654   4.301   3.674 -1.8075  0.4056 -1.6049
 3517TIP3    H231967   1.702   4.353   3.540  1.3125  0.4747 -0.5273
 3518TIP3   OH231968   3.016   2.476   3.233 -0.0184  0.3165 -0.0423
 3518TIP3    H131969   2.998   2.454   3.325 -0.3620  1.6231  0.2352
 3518TIP3    H231970   3.004   2.571   3.229  1.7105  0.5324 -1.0639
 3519TIP3   OH231971   1.543   2.498   5.201 -0.2219 -0.4291  0.0427
 3519TIP3    H131972   1.577   2.545   5.277 -0.8807  0.0999  0.0224
 3519TIP3    H231973   1.464   2.455   5.234 -1.2156  0.8171 -0.6188
 3520TIP3   OH231974   4.356   1.116  14.346  0.3434 -0.2403 -0.1283
 3520TIP3    H131975   4.290   1.103  14.278  0.0900 -1.3664  0.3183
 3520TIP3    H231976   4.428   1.058  14.322 -0.5852 -2.2477  1.6193
 3521TIP3   OH231977   1.058   6.320  10.721  0.2746  0.3845 -0.2654
 3521TIP3    H131978   1.113   6.294  10.795 -0.4194 -0.3700  0.0105
 3521TIP3    H231979   1.115   6.372  10.665  0.3363  2.5242  1.6695
 3522TIP3   OH231980   0.033   2.554  13.801 -0.2662 -0.2173 -0.1511
 3522TIP3    H131981  -0.012   2.598  13.729 -0.4091  0.0149  0.0835
 3522TIP3    H231982  -0.035   2.534  13.864  0.1024  1.0669  0.6869
 3523TIP3   OH231983   2.766   1.947  13.034 -0.2947 -0.2189 -0.2308
 3523TIP3    H131984   2.724   1.957  13.119 -0.4215 -0.5428 -0.2531
 3523TIP3    H231985   2.815   2.028  13.022 -0.9660  0.2010 -0.2351
 3524TIP3   OH231986   6.548   4.226   1.341  0.4516 -0.0484 -0.1389
 3524TIP3    H131987   6.574   4.249   1.252 -1.2287  1.5865 -0.2731
 3524TIP3    H231988   6.479   4.160   1.329  0.2402  0.1556 -0.0418
 3525TIP3   OH231989   3.171   6.234  14.155  0.7532  0.5039  0.1484
 3525TIP3    H131990   3.106   6.200  14.216 -1.3224  0.2260 -2.0826
 3525TIP3    H231991   3.166   6.176  14.079  0.7363  2.7893 -1.7048
 3526TIP3   OH231992   1.210   5.987   1.048 -0.1461 -0.5146 -0.3935
 3526TIP3    H131993   1.250   5.922   0.990  2.3524 -0.0183  0.6172
 3526TIP3    H231994   1.248   5.967   1.134  0.7669  2.2450 -0.0582
 3527TIP3   OH231995   2.985   5.711   5.066  0.1270  0.3354  0.3090
 3527TIP3    H131996   3.026   5.705   4.980  0.8997  0.9961  0.6202
 3527TIP3    H231997   3.028   5.785   5.108 -0.0367 -0.1574  1.3754
 3528TIP3   OH231998   4.856   4.947   5.136  0.0642 -0.3411  0.4542
 3528TIP3    H131999   4.762   4.940   5.151  0.1033  0.4573  1.0831
 3528TIP3    H232000   4.866   5.028   5.085  0.4279 -0.3639  0.4883
 3529TIP3   OH232001   4.511   3.476  14.480 -0.7438 -0.0840  0.8050
 3529TIP3    H132002   4.567   3.399  14.489  0.6701  1.0598  2.6579
 3529TIP3    H232003   4.569   3.550  14.500 -1.0413  1.9140 -4.2529
 3530TIP3   OH232004   6.024   2.776   4.228  0.1703 -0.2401  0.0700
 3530TIP3    H132005   5.964   2.793   4.155 -0.3200 -0.3651  0.4399
 3530TIP3    H232006   6.108   2.757   4.186 -0.1681 -0.5588 -0.4729
 3531TIP3   OH232007   3.517   1.647  16.313  0.1515 -0.7079 -0.1543
 3531TIP3    H132008   3.596   1.595  16.332  0.3102 -0.3954  0.0418
 3531TIP3    H232009   3.474   1.658  16.397  0.9086  0.7621  0.0793
 3532TIP3   OH232010   2.508   3.573  17.294 -0.0291  0.0920 -0.3664
 3532TIP3    H132011   2.436   3.519  17.328 -0.0248 -0.3899 -1.0874
 3532TIP3    H232012   2.505   3.558  17.199  2.0539 -1.2400 -0.2776
 3533TIP3   OH232013   3.671   6.469   3.844  0.8460 -0.0045  0.5311
 3533TIP3    H132014   3.577   6.451   3.847  0.4266  1.6518 -0.8419
 3533TIP3    H232015   3.702   6.425   3.765  0.5744  1.8557 -0.6828
 3534TIP3   OH232016   2.609   5.749   4.174  0.1534 -0.0016  0.0014
 3534TIP3    H132017   2.517   5.732   4.192  0.0938 -0.0556 -0.3447
 3534TIP3    H232018   2.642   5.791   4.253  0.1886 -1.2667  0.6885
 3535TIP3   OH232019   2.195   5.054   3.917 -0.2578  0.1808  0.2893
 3535TIP3    H132020   2.224   4.964   3.899  0.0838  0.3875 -0.2379
 3535TIP3    H232021   2.107   5.044   3.954 -0.9573 -0.3165 -1.3710
 3536TIP3   OH232022   0.924   0.913   3.458 -0.1121 -0.6314 -0.4348
 3536TIP3    H132023   0.898   0.862   3.534 -0.0696 -1.7301 -1.1372
 3536TIP3    H232024   1.020   0.913   3.461 -0.1134 -0.4917 -0.3763
 3537TIP3   OH232025   4.103   6.570  14.957  0.2958 -0.4729  0.2099
 3537TIP3    H132026   4.131   6.479  14.970 -2.3929 -1.5547 -0.7916
 3537TIP3    H232027   4.074   6.599  15.043 -2.5640 -2.0636 -0.0813
 3538TIP3   OH232028   2.730   0.958  13.418 -1.0143  0.4664  0.3635
 3538TIP3    H132029   2.656   0.987  13.365 -0.6986  0.7432  0.0691
 3538TIP3    H232030   2.800   1.020  13.398  0.5091 -1.8405 -2.1547
 3539TIP3   OH232031   4.589   1.460  13.447  0.2806 -0.4431  0.3346
 3539TIP3    H132032   4.561   1.453  13.356  1.6606 -0.0249 -0.1512
 3539TIP3    H232033   4.658   1.527  13.445 -0.1668  0.0994  1.8090
 3540TIP3   OH232034   6.198   2.419  12.771  0.1332 -0.0069 -0.4130
 3540TIP3    H132035   6.287   2.435  12.739  0.0737  2.7498  0.5165
 3540TIP3    H232036   6.209   2.355  12.842  1.3177 -0.0396 -0.6076
 3541TIP3   OH232037   4.478   5.645   0.859  0.5155  0.4070 -0.4890
 3541TIP3    H132038   4.413   5.632   0.790 -0.0659  1.0328 -0.0796
 3541TIP3    H232039   4.561   5.655   0.812  0.8355 -3.0537 -0.9118
 3542TIP3   OH232040   2.720   3.653   2.412  0.5048  0.3217 -0.0162
 3542TIP3    H132041   2.738   3.559   2.407 -2.9381 -0.5432  1.4858
 3542TIP3    H232042   2.770   3.683   2.488  1.0648 -0.4330 -0.0744
 3543TIP3   OH232043   2.166   0.022  16.540 -0.1474 -0.9936  0.2824
 3543TIP3    H132044   2.151  -0.039  16.468 -0.9754 -0.7559  0.2343
 3543TIP3    H232045   2.140  -0.026  16.619 -0.6271 -0.7760  0.2634
 3544TIP3   OH232046   4.622   0.148   2.796 -0.1736 -0.1974 -0.3560
 3544TIP3    H132047   4.620   0.057   2.825  0.0695 -0.4517 -1.1351
 3544TIP3    H232048   4.566   0.194   2.859 -1.3985 -1.1144 -0.7300
 3545TIP3   OH232049   5.871   1.027   0.200  0.6077 -0.2114 -0.2551
 3545TIP3    H132050   5.792   0.980   0.225 -0.9553  0.6071 -3.1826
 3545TIP3    H232051   5.846   1.119   0.200  1.7721  0.1231 -0.5524
 3546TIP3   OH232052   3.464   5.467   1.677  0.2928 -0.9553  0.0790
 3546TIP3    H132053   3.502   5.404   1.738  2.9578  0.0531 -0.3651
 3546TIP3    H232054   3.503   5.444   1.592  1.0338  0.9664 -0.1584
 3547TIP3   OH232055   4.455   5.885  12.879  0.2087  0.2367  0.0702
 3547TIP3    H132056   4.498   5.898  12.794  1.1173 -1.9290  0.1426
 3547TIP3    H232057   4.462   5.791  12.896 -0.2999  0.5522  2.3790
 3548TIP3   OH232058   4.993   1.240  10.637 -0.0682  0.2341 -0.8482
 3548TIP3    H132059   4.942   1.275  10.564  0.3583  1.8182 -0.4055
 3548TIP3    H232060   5.073   1.292  10.639 -0.6624  1.2001  1.6100
 3549TIP3   OH232061   3.387   2.307  15.874  0.1834  0.0575 -0.0128
 3549TIP3    H132062   3.417   2.391  15.909 -0.5788 -0.7862  2.9958
 3549TIP3    H232063   3.463   2.250  15.883  0.7910  0.4187 -2.3217
 3550TIP3   OH232064   0.972   5.655  12.866  0.1344  0.3487  0.4792
 3550TIP3    H132065   0.974   5.600  12.944  1.4353 -1.9622 -1.0807
 3550TIP3    H232066   0.901   5.618  12.813  1.1389  0.0119 -0.6694
 3551TIP3   OH232067   6.308   5.021  15.385  0.1904 -0.1753 -0.1242
 3551TIP3    H132068   6.219   5.010  15.354  0.8050 -0.4332 -1.9349
 3551TIP3    H232069   6.302   5.088  15.454 -1.4321 -0.5270  0.1107
 3552TIP3   OH232070   1.875   3.100   5.332  0.3602  0.0016 -0.2772
 3552TIP3    H132071   1.903   3.107   5.424 -1.0477  1.6783  0.0794
 3552TIP3    H232072   1.956   3.107   5.282  0.9920  0.7561  0.7945
 3553TIP3   OH232073   0.332   4.381  12.980  0.3007  0.1659  0.2297
 3553TIP3    H132074   0.267   4.311  12.982 -3.7997  3.5066 -0.9606
 3553TIP3    H232075   0.364   4.382  12.890 -2.0070  1.5336 -0.6689
 3554TIP3   OH232076   1.952   3.655  11.727  0.0471 -0.3862 -0.4925
 3554TIP3    H132077   1.945   3.691  11.638  0.5895  0.4288 -0.2126
 3554TIP3    H232078   1.938   3.561  11.715 -2.6675  0.0068 -1.0783
 3555TIP3   OH232079   6.039   6.179   4.316  0.3925  0.6300 -0.0767
 3555TIP3    H132080   5.978   6.228   4.371  0.8086  0.9759  0.0808
 3555TIP3    H232081   6.030   6.220   4.229  2.0569  2.2329  0.4423
 3556TIP3   OH232082   3.229   5.727   2.655  0.6162 -0.2192  0.3455
 3556TIP3    H132083   3.220   5.776   2.737  0.4541  0.9081 -0.3186
 3556TIP3    H232084   3.155   5.666   2.656  2.0487 -2.0726  2.2091
 3557TIP3   OH232085   4.080   6.202  12.717  0.4641 -0.3101 -0.1938
 3557TIP3    H132086   4.018   6.263  12.758 -0.9488 -1.2422 -0.8757
 3557TIP3    H232087   4.096   6.135  12.783  1.0219  0.1080  0.1020
 3558TIP3   OH232088   3.567   1.817   0.612 -0.3662  1.1020  0.7198
 3558TIP3    H132089   3.563   1.913   0.618  1.1243  1.2174  0.3191
 3558TIP3    H232090   3.513   1.796   0.536  0.2895  1.7372  0.0633
 3559TIP3   OH232091   2.493   3.451   6.646  0.2093  0.0996 -0.3423
 3559TIP3    H132092   2.509   3.503   6.724  0.9496  3.1982 -2.3811
 3559TIP3    H232093   2.411   3.486   6.610 -1.0466 -2.4356 -0.1650
 3560TIP3   OH232094   1.808   2.476   2.948 -0.1798 -0.2615 -0.6998
 3560TIP3    H132095   1.812   2.567   2.918 -0.8808 -0.1565 -0.5003
 3560TIP3    H232096   1.895   2.458   2.983 -0.0022  0.2966 -0.8490
 3561TIP3   OH232097   1.777   2.489  12.561 -0.1780  0.2179 -0.1394
 3561TIP3    H132098   1.805   2.417  12.504  0.6867  1.2173 -1.0161
 3561TIP3    H232099   1.682   2.480  12.565 -0.0355 -1.3685  0.3295
 3562TIP3   OH232100   2.574   3.816  13.836 -0.3981 -0.7214 -0.5381
 3562TIP3    H132101   2.644   3.752  13.848 -0.7039 -0.5974  2.6928
 3562TIP3    H232102   2.496   3.764  13.819 -0.6354 -1.2897  2.0229
 3563TIP3   OH232103   3.972   0.864  12.156  0.2649 -0.0834 -0.0166
 3563TIP3    H132104   3.999   0.892  12.243  0.3157 -0.8328  0.2204
 3563TIP3    H232105   3.879   0.842  12.164  0.2200  0.0383 -0.1973
 3564TIP3   OH232106   1.630   0.146   2.262  0.1027  0.8673 -0.4641
 3564TIP3    H132107   1.541   0.129   2.290  0.5647 -0.6832  0.1414
 3564TIP3    H232108   1.620   0.195   2.180 -1.3087 -0.1169 -0.9134
 3565TIP3   OH232109   2.472   2.380   5.961  0.0050  0.8081  0.8688
 3565TIP3    H132110   2.425   2.440   5.902 -0.4937 -0.6770 -0.3292
 3565TIP3    H232111   2.428   2.390   6.045 -0.8975  1.1908  0.3686
 3566TIP3   OH232112   2.256   4.582  15.526 -0.6645  0.0062  0.6674
 3566TIP3    H132113   2.247   4.677  15.538  1.2395  0.0846  1.7957
 3566TIP3    H232114   2.307   4.574  15.445 -2.0102 -0.1325 -0.1976
 3567TIP3   OH232115   5.212   0.485  11.845 -0.3328  0.1759  0.0848
 3567TIP3    H132116   5.163   0.520  11.771  1.1164  0.9196 -0.5824
 3567TIP3    H232117   5.151   0.428  11.891 -1.0260 -1.0363 -2.2106
 3568TIP3   OH232118   4.954   1.731  13.171  0.0640 -0.5635  0.0854
 3568TIP3    H132119   4.996   1.696  13.250 -0.9364 -1.6939  0.1605
 3568TIP3    H232120   4.881   1.783  13.203  1.1456  1.0912 -0.0524
 3569TIP3   OH232121   1.485   5.443   2.775  0.4310  0.2445 -0.0306
 3569TIP3    H132122   1.395   5.472   2.785  0.2372 -0.6729  1.0086
 3569TIP3    H232123   1.516   5.487   2.695 -1.3114 -0.4216 -1.1151
 3570TIP3   OH232124   5.454   0.979  12.578  0.3440  0.1301 -0.6473
 3570TIP3    H132125   5.431   0.895  12.619  1.6193  0.0113 -0.1359
 3570TIP3    H232126   5.522   0.956  12.514  0.9542  0.8192 -0.2565
 3571TIP3   OH232127   6.277   5.091   1.463 -0.3238 -0.3158  0.0053
 3571TIP3    H132128   6.329   5.130   1.533 -0.4806  1.0303 -0.5974
 3571TIP3    H232129   6.259   5.002   1.493  0.8971 -0.2618  0.9774
 3572TIP3   OH232130   6.190   4.092   0.011 -0.5112  0.3818 -0.1645
 3572TIP3    H132131   6.121   4.050  -0.042 -0.1837 -2.4385  1.4497
 3572TIP3    H232132   6.245   4.137  -0.053 -2.5728  0.8525 -1.7184
 3573TIP3   OH232133   4.072   5.529   6.186 -0.6295 -0.0024  0.6707
 3573TIP3    H132134   4.054   5.454   6.129 -0.3029 -0.4594  1.1580
 3573TIP3    H232135   4.069   5.493   6.275  0.1241  0.4355  0.8863
 3574TIP3   OH232136   1.638   6.158   2.768  0.1282 -0.7020 -0.0901
 3574TIP3    H132137   1.672   6.156   2.857 -0.2079 -0.0489  0.0607
 3574TIP3    H232138   1.559   6.212   2.774 -0.2910 -1.2362 -0.6475
 3575TIP3   OH232139   4.965   4.617  16.810 -0.2314 -0.5539 -0.0049
 3575TIP3    H132140   4.972   4.706  16.778  0.0780  0.1958  1.9711
 3575TIP3    H232141   5.051   4.600  16.851 -0.3333 -1.7015 -0.2312
 3576TIP3   OH232142   1.540   5.668   4.023 -0.2978 -0.0804 -0.5894
 3576TIP3    H132143   1.530   5.574   4.041 -1.7622  0.1195 -0.1955
 3576TIP3    H232144   1.505   5.679   3.934  0.1609  0.0449 -0.7551
 3577TIP3   OH232145   1.603   6.159  12.546  0.0338  0.5994 -0.4158
 3577TIP3    H132146   1.586   6.188  12.636  1.9391 -0.2165  0.2807
 3577TIP3    H232147   1.518   6.132  12.512 -0.7453  1.0469  1.0974
 3578TIP3   OH232148   5.232   2.712  16.619 -0.5292  0.3872  0.0066
 3578TIP3    H132149   5.169   2.721  16.690 -1.3205 -0.6614 -0.5476
 3578TIP3    H232150   5.207   2.632  16.574 -0.6791  1.5234 -2.0727
 3579TIP3   OH232151   3.497   5.013   5.839 -0.4600 -0.2529  0.7648
 3579TIP3    H132152   3.404   5.005   5.860 -0.7054 -0.8413 -0.4705
 3579TIP3    H232153   3.541   4.974   5.915 -1.2816 -1.5056  0.6279
 3580TIP3   OH232154   0.303   1.550  16.521  0.3792 -0.2814 -0.0800
 3580TIP3    H132155   0.361   1.583  16.589  0.1771  0.7259 -0.3859
 3580TIP3    H232156   0.323   1.456  16.515  1.0407 -0.1921  0.7180
 3581TIP3   OH232157   1.163   1.913  12.691  0.3996 -0.4665 -0.3189
 3581TIP3    H132158   1.096   1.964  12.737  1.2800  1.8029 -1.3876
 3581TIP3    H232159   1.240   1.969  12.692  1.9941 -2.5773 -0.0633
 3582TIP3   OH232160   6.666   3.425  15.530 -0.6016 -0.2478 -0.4306
 3582TIP3    H132161   6.668   3.332  15.510 -0.4974 -0.0845 -1.2026
 3582TIP3    H232162   6.758   3.449  15.542 -0.6135 -0.2036 -0.4277
 3583TIP3   OH232163   5.549   3.479   2.432  0.8031  0.1748 -0.1646
 3583TIP3    H132164   5.502   3.494   2.350  4.0989  0.6609 -2.1550
 3583TIP3    H232165   5.593   3.562   2.450 -0.8066  0.5073  2.9125
 3584TIP3   OH232166   5.820   2.120   5.892 -0.6049 -0.1317 -0.6407
 3584TIP3    H132167   5.762   2.195   5.877 -0.3645  0.0204 -0.8092
 3584TIP3    H232168   5.840   2.123   5.985  2.8423  2.5489 -1.2850
 3585TIP3   OH232169   0.693   1.123  16.517  0.0501 -0.6963  0.3933
 3585TIP3    H132170   0.642   1.184  16.571 -0.3629 -0.7757  0.1033
 3585TIP3    H232171   0.637   1.046  16.509  0.2445 -0.8086  0.1206
 3586TIP3   OH232172   1.510   5.979   1.660  0.6434 -0.2317 -0.0712
 3586TIP3    H132173   1.463   6.049   1.706  2.3055  0.6324  0.3808
 3586TIP3    H232174   1.510   5.906   1.722  1.1308  0.2504  0.5051
 3587TIP3   OH232175   1.892   2.339  11.024 -0.0980 -0.2745  0.2629
 3587TIP3    H132176   1.837   2.306  10.953 -0.3430 -0.2664  0.4452
 3587TIP3    H232177   1.908   2.431  11.001 -1.3608  0.1299  0.9276
 3588TIP3   OH232178   1.576   6.262  11.572 -0.1982  0.3685  0.1549
 3588TIP3    H132179   1.501   6.311  11.606 -1.5088 -2.0776  1.0523
 3588TIP3    H232180   1.615   6.221  11.649  0.1585 -0.8570 -0.6445
 3589TIP3   OH232181   6.698   1.710  15.436 -0.1738 -0.3797  0.7019
 3589TIP3    H132182   6.617   1.677  15.476 -0.3834 -0.0888  0.5271
 3589TIP3    H232183   6.743   1.632  15.405 -0.0787 -0.5985  1.3791
 3590TIP3   OH232184   4.399   5.600   4.426 -0.2599  0.4816 -0.1985
 3590TIP3    H132185   4.477   5.654   4.410 -0.0361  0.6518  1.3645
 3590TIP3    H232186   4.398   5.586   4.520 -2.4850  1.0078 -0.0959
 3591TIP3   OH232187   6.103   2.250   5.380 -0.3974  0.3480  0.5327
 3591TIP3    H132188   6.041   2.281   5.445  0.3938  3.1907  0.0552
 3591TIP3    H232189   6.168   2.200   5.430  0.1020  2.3158  1.9667
 3592TIP3   OH232190   4.508   1.999  11.840  0.9207  0.0846  0.6385
 3592TIP3    H132191   4.541   2.035  11.923 -0.1960  0.7264  0.8271
 3592TIP3    H232192   4.463   2.072  11.798  0.6910 -0.4735 -0.1167
 3593TIP3   OH232193   6.516   4.166  15.108  0.3841  0.1698 -0.1869
 3593TIP3    H132194   6.577   4.099  15.076  0.2933 -0.3547  0.6898
 3593TIP3    H232195   6.454   4.179  15.036  2.5788  2.1198 -1.8900
 3594TIP3   OH232196   6.638   5.928   4.031  0.2390  0.5757 -0.1953
 3594TIP3    H132197   6.698   5.869   4.077 -0.5458 -0.4669 -0.4630
 3594TIP3    H232198   6.663   5.920   3.939 -1.3729 -1.2230 -0.5413
 3595TIP3   OH232199   5.313   4.395   0.913 -0.5490  0.4438 -0.4524
 3595TIP3    H132200   5.275   4.482   0.920  0.0107  0.6072  0.8748
 3595TIP3    H232201   5.272   4.344   0.983  0.6349  0.2451  0.1297
 3596TIP3   OH232202   4.778   5.825   3.517 -0.1740 -0.3953 -0.1282
 3596TIP3    H132203   4.707   5.768   3.486  0.7726 -1.9709  0.4529
 3596TIP3    H232204   4.734   5.897   3.562 -1.4480 -0.1058 -1.7333
 3597TIP3   OH232205   5.557   4.852  13.901  0.2462  0.3640 -0.3419
 3597TIP3    H132206   5.545   4.790  13.974  3.6303  0.2426  0.2906
 3597TIP3    H232207   5.532   4.802  13.823 -1.3075 -0.2605  0.5062
 3598TIP3   OH232208   0.395   0.456  12.484 -0.0763  0.4980  0.0035
 3598TIP3    H132209   0.455   0.411  12.544 -1.2456  0.0213  0.8511
 3598TIP3    H232210   0.357   0.527  12.536 -0.8318  0.3140 -0.2846
 3599TIP3   OH232211   5.250   1.976  12.221 -0.4774 -0.1790 -0.5752
 3599TIP3    H132212   5.159   1.961  12.247 -0.0858  0.2101  1.1984
 3599TIP3    H232213   5.250   1.967  12.126 -2.2990 -0.5125 -0.5830
 3600TIP3   OH232214   0.668   4.325  12.591  0.4155 -0.0678  0.7448
 3600TIP3    H132215   0.745   4.379  12.572 -0.7043  0.8387 -1.5344
 3600TIP3    H232216   0.704   4.246  12.632  2.7787 -0.4978 -1.9052
 3601TIP3   OH232217   5.074   4.132   3.674 -0.1142  0.0342 -0.1378
 3601TIP3    H132218   5.096   4.040   3.685 -3.4274 -0.9807 -0.7893
 3601TIP3    H232219   5.030   4.157   3.756  0.4906  0.9798 -0.0796
 3602TIP3   OH232220   1.723   1.792  12.742 -0.3535 -0.0627  0.2035
 3602TIP3    H132221   1.693   1.702  12.746 -1.1503  0.2131  0.5339
 3602TIP3    H232222   1.818   1.786  12.750 -0.3093 -0.9331 -0.8092
 3603TIP3   OH232223   2.125   5.283  11.437  0.2402  0.2482  0.2285
 3603TIP3    H132224   2.079   5.214  11.389 -0.8478  1.3381 -0.3682
 3603TIP3    H232225   2.155   5.343  11.369 -0.1137  1.1110  0.8123
 3604TIP3   OH232226   5.690   0.267  14.428  0.0706  0.6648  0.5126
 3604TIP3    H132227   5.782   0.292  14.440  0.1349  0.6583  0.0558
 3604TIP3    H232228   5.685   0.238  14.337  0.0199 -1.0305  1.0236
 3605TIP3   OH232229   4.052   4.699  11.599  0.0796  0.0965 -0.4461
 3605TIP3    H132230   4.051   4.697  11.503  2.6971 -1.6162 -0.5522
 3605TIP3    H232231   4.036   4.608  11.624 -1.3279  0.6596  0.8213
 3606TIP3   OH232232   3.531   6.079   3.200  0.3037 -0.0078 -0.6424
 3606TIP3    H132233   3.440   6.100   3.221  1.0058  1.2953  1.3660
 3606TIP3    H232234   3.533   5.983   3.199 -0.3161 -0.2655  3.6109
 3607TIP3   OH232235   0.143   5.565   1.329 -0.5461  0.1625 -0.9662
 3607TIP3    H132236   0.173   5.646   1.288  0.4549 -0.5710 -1.7653
 3607TIP3    H232237   0.180   5.496   1.273 -1.6168 -0.8315 -0.4765
 3608TIP3   OH232238   5.862   6.592  13.508  0.0686  0.2868  0.1038
 3608TIP3    H132239   5.873   6.497  13.506 -0.3468  0.2151  0.8344
 3608TIP3    H232240   5.905   6.623  13.428  1.0556 -0.4264  0.3347
 3609TIP3   OH232241   4.904   4.507   0.921 -0.1431 -0.0674 -0.2177
 3609TIP3    H132242   4.996   4.535   0.914  0.7784 -2.1061  2.0962
 3609TIP3    H232243   4.854   4.588   0.916  1.7888  1.1413 -1.3313
 3610TIP3   OH232244   6.247   4.732  15.180  0.2820  0.7497 -0.3568
 3610TIP3    H132245   6.283   4.657  15.132 -1.3098 -1.3052  1.4735
 3610TIP3    H232246   6.291   4.808  15.141  1.6058 -1.0457 -2.6513
 3611TIP3   OH232247   3.295   4.622  16.626 -0.1019  0.0412 -0.3372
 3611TIP3    H132248   3.379   4.596  16.663 -0.6795 -2.7438 -0.7146
 3611TIP3    H232249   3.232   4.608  16.697 -0.3699  1.4301 -0.2755
 3612TIP3   OH232250   2.785   0.243   5.618  0.1400  0.3073 -0.6684
 3612TIP3    H132251   2.841   0.234   5.695 -1.1148  1.2910  0.4161
 3612TIP3    H232252   2.820   0.319   5.571  1.7849 -1.1537 -1.8867
 3613TIP3   OH232253   1.817   5.791  13.769 -0.1997 -0.1976  0.0566
 3613TIP3    H132254   1.858   5.735  13.703 -0.2591 -0.4577  0.2384
 3613TIP3    H232255   1.820   5.740  13.850  2.1003  1.0607  0.8496
 3614TIP3   OH232256   2.881   2.512  14.818 -0.5711  0.1875  0.3326
 3614TIP3    H132257   2.847   2.574  14.883 -2.3256 -0.2329 -0.1388
 3614TIP3    H232258   2.843   2.428  14.843  0.9146 -0.5131  0.3192
 3615TIP3   OH232259   4.834   6.032  10.847  0.2286 -0.4298 -0.1946
 3615TIP3    H132260   4.921   6.067  10.831  0.4995 -0.7388  0.5644
 3615TIP3    H232261   4.809   6.067  10.932  0.7073 -2.4362  0.8209
 3616TIP3   OH232262   2.740   1.187   0.751 -0.2882  0.5972 -0.4545
 3616TIP3    H132263   2.703   1.252   0.811  0.3578  1.4237 -0.9173
 3616TIP3    H232264   2.799   1.135   0.807  0.4119  1.4439 -0.3632
 3617TIP3   OH232265   1.490   4.383   5.811  0.1382  0.0607  0.3836
 3617TIP3    H132266   1.514   4.408   5.900  1.9828  0.1512 -0.0853
 3617TIP3    H232267   1.475   4.288   5.815  1.3391 -0.1411  0.6090
 3618TIP3   OH232268   1.349   3.522   0.198  0.1910  0.4853  0.3614
 3618TIP3    H132269   1.299   3.603   0.209 -2.5513 -0.8140 -1.4236
 3618TIP3    H232270   1.431   3.549   0.158 -1.5379  2.2521 -2.2703
 3619TIP3   OH232271   3.275   0.843   6.275  0.1553 -0.4766 -0.3090
 3619TIP3    H132272   3.341   0.912   6.265  0.4636 -1.0395 -2.8415
 3619TIP3    H232273   3.315   0.766   6.236 -1.5831 -1.1313 -0.8768
 3620TIP3   OH232274   4.960   1.895  12.309 -0.0333  0.1926 -0.4628
 3620TIP3    H132275   4.915   1.897  12.225  0.5087 -0.2239 -0.7616
 3620TIP3    H232276   4.926   1.972  12.356 -1.6799 -0.5484 -0.3568
 3621TIP3   OH232277   0.912   3.650   0.520 -0.1075  0.5480  0.0271
 3621TIP3    H132278   0.937   3.739   0.495  2.0903 -0.2211 -0.7727
 3621TIP3    H232279   0.838   3.630   0.463 -1.2136  2.1342  0.8234
 3622TIP3   OH232280   0.571   5.775  15.828  0.0240 -0.0270  0.2008
 3622TIP3    H132281   0.578   5.868  15.849  1.6982 -0.1328  0.2427
 3622TIP3    H232282   0.657   5.739  15.848  0.0469 -1.1888 -1.6850
 3623TIP3   OH232283   0.753   3.066  14.477 -0.0724  0.6635  0.1939
 3623TIP3    H132284   0.750   2.983  14.429 -0.2612  1.2550 -0.8419
 3623TIP3    H232285   0.664   3.077  14.510 -0.2837  0.8812 -0.4292
 3624TIP3   OH232286   0.885   5.170  16.683  0.0821 -0.1550  0.0067
 3624TIP3    H132287   0.932   5.093  16.715 -0.3924  0.1355  1.4635
 3624TIP3    H232288   0.945   5.243  16.696 -0.2443  0.0165  0.5880
 3625TIP3   OH232289   5.716   6.766   1.323 -0.4378  1.0824 -0.3433
 3625TIP3    H132290   5.769   6.807   1.255 -0.2729  0.2294 -0.7459
 3625TIP3    H232291   5.780   6.737   1.388 -0.4438  0.5175 -0.5796
 3626TIP3   OH232292   3.326   4.288   1.940  0.2988 -0.6595 -0.7252
 3626TIP3    H132293   3.244   4.337   1.928 -0.3303 -1.5023  0.0005
 3626TIP3    H232294   3.335   4.238   1.859  0.0027 -0.6908 -0.7421
 3627TIP3   OH232295   5.348   6.218   3.596 -0.6631 -0.2267  0.6368
 3627TIP3    H132296   5.415   6.180   3.652  0.1749  1.6033  0.9234
 3627TIP3    H232297   5.360   6.312   3.603 -1.7862  0.1029 -1.1174
 3628TIP3   OH232298   6.134   6.285   4.951  0.2037 -0.1339 -0.2564
 3628TIP3    H132299   6.118   6.358   5.011 -1.1322  0.6008 -1.4392
 3628TIP3    H232300   6.176   6.326   4.876 -0.5660 -0.5625 -0.9361
 3629TIP3   OH232301   0.636   0.565   1.084 -0.6118  0.0214  0.4391
 3629TIP3    H132302   0.688   0.535   1.010 -1.6660 -0.4979 -0.1197
 3629TIP3    H232303   0.643   0.661   1.081  0.1923 -0.0397  0.3017
 3630TIP3   OH232304   4.308   2.928   4.607  0.3630 -0.2597  0.1233
 3630TIP3    H132305   4.385   2.928   4.665  0.4907 -2.2724  0.0169
 3630TIP3    H232306   4.337   2.975   4.529  1.0009  0.2771  0.6685
 3631TIP3   OH232307   4.896   2.065  16.843  0.0664 -0.1618  0.4813
 3631TIP3    H132308   4.883   2.096  16.933  1.8733  0.2063  0.6396
 3631TIP3    H232309   4.881   2.142  16.788  0.6585  0.0391  0.5975
 3632TIP3   OH232310   0.053   0.021   1.232  0.7018  0.6869 -0.2396
 3632TIP3    H132311   0.106   0.085   1.279  0.9496  0.6505 -0.4692
 3632TIP3    H232312  -0.034   0.027   1.273  1.0810  0.2048  0.6537
 3633TIP3   OH232313   2.824   5.422   1.436  0.4185  0.1590  0.0721
 3633TIP3    H132314   2.856   5.502   1.477  1.3803 -0.8380  1.3568
 3633TIP3    H232315   2.729   5.427   1.445  0.3513  1.7439 -1.0582
 3634TIP3   OH232316   1.126   0.554   2.897 -0.4978  0.2335 -0.2516
 3634TIP3    H132317   1.067   0.536   2.971 -0.5444 -0.4935 -0.4556
 3634TIP3    H232318   1.076   0.529   2.820 -0.7291  1.6974 -0.6060
 3635TIP3   OH232319   1.657   4.699  10.976  0.1420  0.4145  0.1253
 3635TIP3    H132320   1.714   4.776  10.976  2.1613 -0.9818  0.8127
 3635TIP3    H232321   1.645   4.677  10.884  0.1233  1.1257 -0.0483
 3636TIP3   OH232322   3.802   2.328  12.843  0.1360 -0.6013  0.0712
 3636TIP3    H132323   3.883   2.330  12.894  1.6600 -2.3503 -2.0508
 3636TIP3    H232324   3.798   2.414  12.801 -0.1691  0.1805  1.6331
 3637TIP3   OH232325   2.165   3.325   4.421  0.3461 -0.0295 -0.3230
 3637TIP3    H132326   2.231   3.295   4.484 -0.3650  0.9724  0.9722
 3637TIP3    H232327   2.152   3.418   4.443 -0.4705  0.1534 -1.4744
 3638TIP3   OH232328   0.480   5.384  15.142 -0.0536 -0.7038 -0.2288
 3638TIP3    H132329   0.517   5.341  15.220 -3.6589 -3.9027  0.0165
 3638TIP3    H232330   0.539   5.360  15.071  1.0223 -1.3364  0.8405
 3639TIP3   OH232331   3.235   6.546  12.457 -0.1754 -0.2207  0.0774
 3639TIP3    H132332   3.151   6.588  12.437 -1.8650 -3.7115 -0.9687
 3639TIP3    H232333   3.285   6.553  12.376 -0.2737  0.1453  0.0486
 3640TIP3   OH232334   2.144   5.460   0.594  0.0913  0.2737 -0.3600
 3640TIP3    H132335   2.225   5.489   0.554  1.4500  0.4825  2.3304
 3640TIP3    H232336   2.091   5.540   0.602  0.6939  0.6347  0.1389
 3641TIP3   OH232337   5.930   1.966   3.787  0.1364 -0.4210 -0.1541
 3641TIP3    H132338   5.983   2.022   3.730 -1.4406  1.6403  0.2489
 3641TIP3    H232339   5.874   2.028   3.836 -1.1197 -2.3248  0.9703
 3642TIP3   OH232340   5.085   0.657  11.006  0.2055  0.4715 -0.2171
 3642TIP3    H132341   5.163   0.683  11.055  0.9397 -0.2641 -0.9578
 3642TIP3    H232342   5.042   0.592  11.062  1.6583 -1.2393 -0.9820
 3643TIP3   OH232343   5.294   1.028  13.994  0.1652 -0.9815 -0.1875
 3643TIP3    H132344   5.299   0.952  14.052 -0.6102 -0.5630  0.4368
 3643TIP3    H232345   5.300   1.103  14.052 -1.8792 -0.5298 -0.4859
 3644TIP3   OH232346   2.844   3.177   2.150 -0.1840  0.0334  0.0424
 3644TIP3    H132347   2.871   3.226   2.072 -1.2436  0.1524 -0.2595
 3644TIP3    H232348   2.791   3.106   2.117 -0.2857 -0.1714  0.6338
 3645TIP3   OH232349   2.079   5.596   5.923  0.4727  0.3613  0.0499
 3645TIP3    H132350   2.037   5.514   5.900 -1.0651  1.7058 -2.3228
 3645TIP3    H232351   2.007   5.659   5.931  1.6303  1.6280  1.3475
 3646TIP3   OH232352   0.117   3.755  14.424 -0.2906  0.2223 -0.2978
 3646TIP3    H132353   0.168   3.836  14.421 -0.9097  0.6159 -0.7153
 3646TIP3    H232354   0.130   3.716  14.337 -0.7541  0.3760 -0.4442
 3647TIP3   OH232355   0.256   5.777  17.213 -0.3991 -0.4970  0.5922
 3647TIP3    H132356   0.307   5.698  17.230 -0.9203 -0.9600  0.0695
 3647TIP3    H232357   0.169   5.757  17.247 -0.6941 -0.3766 -0.0757
 3648TIP3   OH232358   2.728   3.320  12.659 -0.0120  0.5170 -0.2457
 3648TIP3    H132359   2.761   3.239  12.698  1.5774  0.9535 -0.5891
 3648TIP3    H232360   2.658   3.349  12.718  0.9985  0.1206  1.2082
 3649TIP3   OH232361   1.728   5.736   2.846  0.3784 -0.2392 -0.0105
 3649TIP3    H132362   1.808   5.697   2.884  0.6296 -0.2657 -0.5599
 3649TIP3    H232363   1.738   5.725   2.752 -0.0042  0.2903 -0.1193
 3650TIP3   OH232364   0.288   1.443  15.501 -0.9693 -0.4544  0.2876
 3650TIP3    H132365   0.274   1.449  15.407 -0.1531 -1.8031  0.0680
 3650TIP3    H232366   0.200   1.430  15.537 -1.4746  1.4179 -0.1171
 3651TIP3   OH232367   5.407   0.743   0.434 -0.3814 -0.5565  0.3189
 3651TIP3    H132368   5.318   0.773   0.446  0.3315  1.4071  0.9747
 3651TIP3    H232369   5.413   0.722   0.341 -0.7508  2.0936 -0.3683
 3652TIP3   OH232370   4.161   2.649  13.952  0.8867  0.1717 -0.4415
 3652TIP3    H132371   4.182   2.718  14.015 -1.3298 -0.4898  1.1567
 3652TIP3    H232372   4.241   2.596  13.947  1.4637  0.8372  1.0559
 3653TIP3   OH232373   6.421   0.854   3.114 -0.2849 -0.1218  0.0178
 3653TIP3    H132374   6.342   0.853   3.169 -0.7190  1.6356 -0.5141
 3653TIP3    H232375   6.414   0.775   3.062 -1.3315 -0.3676  0.4904
 3654TIP3   OH232376   1.239   1.812  17.087 -0.0248  0.4304  0.1545
 3654TIP3    H132377   1.298   1.739  17.105 -0.1055  0.3989  0.2961
 3654TIP3    H232378   1.209   1.841  17.174  0.3592  0.9260  0.1261
 3655TIP3   OH232379   4.390   1.992  16.820 -0.3684  0.1007 -0.5331
 3655TIP3    H132380   4.467   2.033  16.781  1.4735 -0.6858  2.0111
 3655TIP3    H232381   4.343   2.064  16.862  1.2769  0.1412  1.4038
 3656TIP3   OH232382   2.789   1.854   1.210  0.0249  0.0254  0.7945
 3656TIP3    H132383   2.876   1.892   1.201  0.3456 -0.8427  0.1340
 3656TIP3    H232384   2.766   1.824   1.122 -1.8112  2.0423  0.4935
 3657TIP3   OH232385   1.614   5.734   4.280 -0.3650 -0.2033  0.6300
 3657TIP3    H132386   1.533   5.722   4.330 -1.4079  2.6243 -0.2208
 3657TIP3    H232387   1.588   5.717   4.189 -0.1093  0.9431  0.3248
 3658TIP3   OH232388   1.999   4.085   1.402 -0.3068 -0.2264  0.4105
 3658TIP3    H132389   2.030   4.158   1.455  0.8745 -0.9362  0.7307
 3658TIP3    H232390   1.923   4.051   1.450 -1.2049  1.0811 -0.0167
 3659TIP3   OH232391   1.342   2.355  13.182 -0.0704 -0.5746  0.2470
 3659TIP3    H132392   1.408   2.389  13.242 -0.3644  0.4620 -0.0021
 3659TIP3    H232393   1.368   2.388  13.096 -1.3661  0.5843  0.2674
 3660TIP3   OH232394   2.614   1.105   5.681  0.1109  0.8644  0.1405
 3660TIP3    H132395   2.637   1.018   5.713  0.1094  0.9988  0.5165
 3660TIP3    H232396   2.684   1.162   5.714  0.6271  0.8573 -0.8998
 3661TIP3   OH232397   5.948   1.969   3.357  0.1398  0.5417  0.4417
 3661TIP3    H132398   5.993   1.906   3.301  0.1855  0.7770  0.2127
 3661TIP3    H232399   5.856   1.961   3.332  0.2364  1.0845 -0.1028
 3662TIP3   OH232400   1.220   6.415  16.520  0.1408 -0.0325 -0.1427
 3662TIP3    H132401   1.173   6.395  16.439 -0.3586 -1.5921  0.4801
 3662TIP3    H232402   1.296   6.358  16.519 -1.0412 -1.7836  1.4604
 3663TIP3   OH232403   6.470   6.728  12.260 -0.0156  0.2753 -0.0461
 3663TIP3    H132404   6.551   6.764  12.223 -0.5772  0.1341 -1.4917
 3663TIP3    H232405   6.462   6.769  12.346  2.0046 -0.3404  0.4721
 3664TIP3   OH232406   6.187   2.552  16.702 -0.4102  0.1818 -0.6052
 3664TIP3    H132407   6.262   2.609  16.685  0.4102 -0.9749 -0.9528
 3664TIP3    H232408   6.222   2.463  16.695 -1.4985 -0.3784  0.6790
 3665TIP3   OH232409   1.680   2.970   1.916 -0.0070 -0.4421  0.1183
 3665TIP3    H132410   1.646   2.933   1.998 -1.3499 -0.3451 -0.3772
 3665TIP3    H232411   1.678   2.897   1.854 -0.2179 -0.1952 -0.1680
 3666TIP3   OH232412   4.505   1.718  11.921 -0.2145 -0.0067  0.8052
 3666TIP3    H132413   4.557   1.748  11.995  1.3336 -0.0453 -0.2250
 3666TIP3    H232414   4.517   1.786  11.854 -1.5170 -0.0074  0.5399
 3667TIP3   OH232415   1.342   0.201   2.379 -0.5377 -0.1797 -0.3705
 3667TIP3    H132416   1.339   0.161   2.466 -0.4832  0.0518 -0.2617
 3667TIP3    H232417   1.261   0.172   2.337 -1.1552  0.6672  0.1831
 3668TIP3   OH232418   1.296   3.816  15.786  0.1340  0.3418  0.0386
 3668TIP3    H132419   1.371   3.788  15.839 -1.0387 -2.2926  0.4650
 3668TIP3    H232420   1.306   3.766  15.705  0.6398  2.5863 -1.3758
 3669TIP3   OH232421   4.574   2.058  13.643 -0.2597 -0.3190 -0.0617
 3669TIP3    H132422   4.510   2.116  13.603 -1.8081 -2.1269 -0.3186
 3669TIP3    H232423   4.523   1.997  13.696  1.1774 -2.1189 -0.6344
 3670TIP3   OH232424   4.583   4.456  10.781 -0.1178 -0.2022  0.2231
 3670TIP3    H132425   4.488   4.449  10.779 -0.2964  1.3794  1.0174
 3670TIP3    H232426   4.599   4.550  10.776  1.2721 -0.1988  3.0179
 3671TIP3   OH232427   2.050   6.695   1.320  0.1376 -0.2154 -0.6067
 3671TIP3    H132428   1.957   6.672   1.313 -0.2297  0.4981  1.3907
 3671TIP3    H232429   2.052   6.790   1.306  0.2997  0.0621  1.1618
 3672TIP3   OH232430   4.293   3.447  11.276 -0.2521  0.3737 -0.4374
 3672TIP3    H132431   4.204   3.412  11.274 -0.7800  1.5891  0.3145
 3672TIP3    H232432   4.326   3.434  11.188 -0.6029 -1.4839 -0.3260
 3673TIP3   OH232433   6.237   3.225  14.119 -0.3600  0.2751  0.4186
 3673TIP3    H132434   6.142   3.218  14.118 -0.2931 -1.1616  1.1421
 3673TIP3    H232435   6.255   3.318  14.136 -1.6110  0.7107 -0.5589
 3674TIP3   OH232436   2.507   6.273   5.278 -0.8654 -0.6095 -0.0371
 3674TIP3    H132437   2.534   6.201   5.222 -0.6634 -0.5578 -0.0073
 3674TIP3    H232438   2.543   6.252   5.364 -1.6954 -0.9992  0.2274
 3675TIP3   OH232439   2.785   6.019  14.596  0.1530 -0.4475 -0.8659
 3675TIP3    H132440   2.768   6.061  14.511 -1.2518 -0.6446 -0.6993
 3675TIP3    H232441   2.733   6.068  14.659 -0.3960 -1.5294 -0.4425
 3676TIP3   OH232442   2.018   5.056   1.487  0.5502  0.3347 -0.1561
 3676TIP3    H132443   2.106   5.050   1.451  0.2631  2.1154 -1.3142
 3676TIP3    H232444   1.965   5.090   1.414 -0.9613 -0.0920  0.7035
 3677TIP3   OH232445   0.085   2.864  14.594 -0.2500  0.0571 -0.2354
 3677TIP3    H132446   0.025   2.906  14.532  0.0946 -1.7392 -1.8909
 3677TIP3    H232447   0.165   2.849  14.543 -0.6117 -3.2334 -0.0597
 3678TIP3   OH232448   4.965   0.518   5.752  0.3440 -0.0957  0.3226
 3678TIP3    H132449   4.894   0.534   5.814  1.1849  1.3938  0.9577
 3678TIP3    H232450   4.923   0.473   5.679 -1.7152  2.4968 -0.2397
 3679TIP3   OH232451   6.235   0.680   4.167 -0.0736 -0.1433  0.2191
 3679TIP3    H132452   6.161   0.739   4.159 -0.5130 -0.2365  2.6654
 3679TIP3    H232453   6.223   0.616   4.097 -1.3139  0.8667 -0.5194
 3680TIP3   OH232454   5.852   0.319  16.440  0.0407 -0.8265 -0.7714
 3680TIP3    H132455   5.836   0.394  16.382 -2.7027 -0.4479  0.2811
 3680TIP3    H232456   5.947   0.314  16.448  0.4105  0.7931 -3.0819
 3681TIP3   OH232457   2.005   3.448  16.477 -0.5059  0.2201  0.5167
 3681TIP3    H132458   1.948   3.371  16.485  1.4995 -1.3085  1.0167
 3681TIP3    H232459   2.029   3.470  16.567  0.1477  0.4504  0.2916
 3682TIP3   OH232460   0.730   1.998  17.303  0.1183 -0.0452 -0.0573
 3682TIP3    H132461   0.807   2.044  17.337  0.6511  1.2306 -2.7393
 3682TIP3    H232462   0.655   2.042  17.343  0.7061 -0.6265  1.7731
 3683TIP3   OH232463   6.081   2.648   5.938  0.1409  0.3587  0.1524
 3683TIP3    H132464   6.163   2.644   5.888  1.2010  0.1302  1.8547
 3683TIP3    H232465   6.108   2.662   6.028 -1.7277  0.4960  0.7324
 3684TIP3   OH232466   4.493   5.702  16.913  0.0519 -0.0974  0.0388
 3684TIP3    H132467   4.511   5.619  16.955 -0.3409  0.2464  0.9218
 3684TIP3    H232468   4.576   5.750  16.915  0.4487 -0.6998 -1.0602
 3685TIP3   OH232469   4.465   0.821  13.267 -0.4111  0.3464  0.3607
 3685TIP3    H132470   4.383   0.868  13.276 -2.4836 -2.2936 -2.4908
 3685TIP3    H232471   4.444   0.730  13.290  1.6493 -0.4368 -0.5220
 3686TIP3   OH232472   6.584   5.166   6.241 -0.3678  0.0796 -0.0728
 3686TIP3    H132473   6.636   5.185   6.318  1.1833 -1.8166 -0.5779
 3686TIP3    H232474   6.534   5.088   6.263  0.0067 -0.4197 -0.9253
 3687TIP3   OH232475   1.108   4.098  14.587 -0.2406  0.5735  0.2722
 3687TIP3    H132476   1.189   4.090  14.537  0.7484 -3.1060  2.1869
 3687TIP3    H232477   1.135   4.098  14.678 -2.3519 -1.5484  0.9990
 3688TIP3   OH232478   3.264   4.859   4.553  0.5753 -0.0076 -0.5755
 3688TIP3    H132479   3.201   4.799   4.513 -1.8810  1.5037  0.7463
 3688TIP3    H232480   3.249   4.943   4.509  0.8726  0.6508  0.5300
 3689TIP3   OH232481   3.347   1.605  17.138 -0.4509  0.3202 -0.2200
 3689TIP3    H132482   3.279   1.549  17.176 -0.6198 -0.1120 -1.1268
 3689TIP3    H232483   3.330   1.691  17.176 -1.6410  0.2711 -0.5847
 3690TIP3   OH232484   3.584   6.780  11.336 -0.1782  0.4028  0.1773
 3690TIP3    H132485   3.529   6.808  11.262 -0.2429  3.4895  1.2480
 3690TIP3    H232486   3.580   6.685  11.334 -4.0130  0.4262 -0.9812
 3691TIP3   OH232487   5.284   2.044  14.746  0.5906  0.2192 -0.4904
 3691TIP3    H132488   5.290   2.110  14.677 -0.6665  0.1165 -0.7339
 3691TIP3    H232489   5.312   2.088  14.826 -0.3056  1.0885 -0.6356
 3692TIP3   OH232490   1.577   5.486  14.766  0.6963  0.1478  0.7331
 3692TIP3    H132491   1.591   5.539  14.688 -0.3774 -0.4123  0.1387
 3692TIP3    H232492   1.573   5.549  14.838  4.0211  0.5242  0.7206
 3693TIP3   OH232493   6.323   2.630   4.225  0.2804  0.1831  0.4492
 3693TIP3    H132494   6.334   2.542   4.187  0.1694  0.0812  0.6498
 3693TIP3    H232495   6.285   2.682   4.155  1.4155  0.3711 -0.0471
 3694TIP3   OH232496   4.881   4.164   2.992 -0.0477  0.4676  0.6240
 3694TIP3    H132497   4.913   4.117   3.069  0.3939  1.5817  1.1496
 3694TIP3    H232498   4.817   4.226   3.027 -1.2285 -0.2731 -0.1530
 3695TIP3   OH232499   4.397   6.119   3.357  0.1408  0.4246 -0.2049
 3695TIP3    H132500   4.358   6.206   3.369  0.6760  0.4369  2.0355
 3695TIP3    H232501   4.357   6.085   3.278 -2.1082  1.6680  0.3072
 3696TIP3   OH232502   2.601   3.391  13.817  0.2739 -0.3322  0.1832
 3696TIP3    H132503   2.623   3.357  13.730 -0.1332  0.3279 -0.1835
 3696TIP3    H232504   2.654   3.471  13.825  0.4611 -0.4975  0.6262
 3697TIP3   OH232505   2.740   0.252   2.433 -0.1249 -0.2883 -0.1335
 3697TIP3    H132506   2.776   0.339   2.418 -1.0066  0.1252  0.1155
 3697TIP3    H232507   2.675   0.240   2.364 -0.0807 -0.7094 -0.1045
 3698TIP3   OH232508   2.501   4.008   2.890  0.3741 -0.2435 -0.2810
 3698TIP3    H132509   2.532   3.925   2.854 -1.1287 -0.0043 -2.2539
 3698TIP3    H232510   2.579   4.063   2.894  1.2662 -1.4871  0.4402
 3699TIP3   OH232511   6.389   3.702   1.813  0.0323  0.1113  0.1504
 3699TIP3    H132512   6.434   3.783   1.787  0.4568  0.3686  1.5716
 3699TIP3    H232513   6.434   3.675   1.893  0.9073 -2.3970 -1.0779
 3700TIP3   OH232514   4.893   0.851  10.914  0.3255  0.3940 -0.1411
 3700TIP3    H132515   4.962   0.794  10.946  2.2754  2.9422  0.5498
 3700TIP3    H232516   4.929   0.889  10.834 -1.4424 -0.2557 -1.2972
 3701TIP3   OH232517   0.085   4.562  12.938 -0.1593 -0.3030  0.1569
 3701TIP3    H132518   0.162   4.579  12.884 -0.5117  0.4321 -0.1354
 3701TIP3    H232519   0.089   4.469  12.959  0.9088 -0.2337  0.3076
 3702TIP3   OH232520   2.082   5.394  11.673  0.4299  0.2541 -0.4767
 3702TIP3    H132521   2.159   5.355  11.714 -0.7737 -0.7202  0.9535
 3702TIP3    H232522   2.064   5.338  11.597  0.5274 -0.1372 -0.2143
 3703TIP3   OH232523   0.738   3.203  15.242 -0.6989 -0.0320  0.0034
 3703TIP3    H132524   0.773   3.180  15.156  1.1649  1.3474  0.3003
 3703TIP3    H232525   0.663   3.258  15.224  0.2003  0.9781 -0.7995
 3704TIP3   OH232526   6.547   1.051  15.870 -0.0457 -0.5473  0.2890
 3704TIP3    H132527   6.533   0.961  15.897  0.0456 -0.5409  0.3584
 3704TIP3    H232528   6.635   1.072  15.900  0.0664 -0.5488 -0.0370
 3705TIP3   OH232529   4.798   3.343  16.084 -0.3627 -0.5149  0.1852
 3705TIP3    H132530   4.825   3.402  16.154 -0.1590 -0.7139  0.2747
 3705TIP3    H232531   4.812   3.393  16.003  1.2134 -0.9489  0.1488
 3706TIP3   OH232532   5.003   0.929   5.551 -0.2747 -0.1224  0.2170
 3706TIP3    H132533   5.043   0.845   5.571 -1.2695 -0.5745  0.3982
 3706TIP3    H232534   5.068   0.994   5.578 -0.3434 -0.7838  2.1296
 3707TIP3   OH232535   0.997   4.517   1.304 -0.4049 -0.0824  0.1704
 3707TIP3    H132536   0.982   4.436   1.352 -0.5873  0.0067  0.2641
 3707TIP3    H232537   1.082   4.547   1.336 -0.1918 -0.3959 -0.0927
 3708TIP3   OH232538   2.145   2.985  15.957  0.2696  0.6901 -0.4272
 3708TIP3    H132539   2.239   3.000  15.941  0.2375  0.3841 -0.9098
 3708TIP3    H232540   2.101   3.032  15.886  0.0635  0.6912 -0.2980
 3709TIP3   OH232541   0.636   2.099  12.148  0.1148 -0.0534  0.2594
 3709TIP3    H132542   0.709   2.160  12.163  1.1808 -1.7847  2.8080
 3709TIP3    H232543   0.678   2.013  12.141 -1.6056 -0.9589  0.6575
 3710TIP3   OH232544   6.771   1.194   3.408 -0.2915 -0.1950  0.4844
 3710TIP3    H132545   6.690   1.195   3.356  1.1897 -1.4041 -2.0367
 3710TIP3    H232546   6.840   1.213   3.345  1.7273 -2.5443  1.8122
 3711TIP3   OH232547   4.464   3.016   4.141 -0.6057 -0.0432  0.0443
 3711TIP3    H132548   4.554   2.985   4.129 -0.1630 -0.3711  3.2301
 3711TIP3    H232549   4.412   2.963   4.082  1.2577  0.0786 -1.8024
 3712TIP3   OH232550   3.550   2.803  14.516  0.3105  0.0760 -0.2193
 3712TIP3    H132551   3.613   2.748  14.470 -0.4715 -0.4115 -0.7076
 3712TIP3    H232552   3.603   2.876  14.549  1.2988 -0.7981  0.1841
 3713TIP3   OH232553   2.028   3.505  15.017  0.1481  0.1564 -0.3764
 3713TIP3    H132554   2.056   3.534  14.930  0.9668 -0.8424 -0.4620
 3713TIP3    H232555   1.940   3.542  15.027  0.1453  0.5131 -1.5152
 3714TIP3   OH232556   0.066   2.670  15.884 -0.0965  0.0756 -0.6453
 3714TIP3    H132557   0.135   2.685  15.948  1.4367 -2.1879 -1.6080
 3714TIP3    H232558  -0.014   2.662  15.935  1.0737 -1.6771  1.0670
 3715TIP3   OH232559   3.378   3.206  13.096 -0.1005  0.2108 -0.1474
 3715TIP3    H132560   3.401   3.115  13.076 -0.3987  0.2179 -0.5276
 3715TIP3    H232561   3.299   3.223  13.044 -1.7031 -0.1875  2.0546
 3716TIP3   OH232562   4.034   5.052   6.010  0.3695  0.5041  0.4266
 3716TIP3    H132563   3.968   5.027   6.075  1.5874  0.4690  1.7177
 3716TIP3    H232564   4.030   4.983   5.944 -0.7605  0.4233  0.5584
 3717TIP3   OH232565   4.138   1.449  11.380 -0.8735  0.0991 -0.2136
 3717TIP3    H132566   4.156   1.449  11.474 -0.6038  0.2247 -0.2642
 3717TIP3    H232567   4.146   1.541  11.354  2.2524 -0.2713 -0.9619
 3718TIP3   OH232568   1.914   1.058  11.359 -0.0189  0.1809  0.7957
 3718TIP3    H132569   2.002   1.048  11.323 -0.8161  0.1138 -1.3145
 3718TIP3    H232570   1.921   1.128  11.423  1.5147  0.3656  0.4609
 3719TIP3   OH232571   6.007   4.207   2.440 -0.2285 -0.1743  0.0590
 3719TIP3    H132572   6.029   4.116   2.461 -2.1412 -0.7577 -0.2528
 3719TIP3    H232573   5.920   4.220   2.477  0.0896  1.6374  0.3070
 3720TIP3   OH232574   4.203   5.764   0.150  0.0542  0.5278 -0.2062
 3720TIP3    H132575   4.141   5.837   0.153  0.4557  0.8520  0.3928
 3720TIP3    H232576   4.246   5.773   0.065 -0.0014  0.9085 -0.1981
 3721TIP3   OH232577   0.884   0.257   0.745  0.0740  0.3947 -0.0467
 3721TIP3    H132578   0.827   0.217   0.811  2.2585 -0.7272  1.2739
 3721TIP3    H232579   0.848   0.228   0.662  0.0781 -2.3525  0.8072
 3722TIP3   OH232580   5.321   4.085   1.448 -0.0225 -0.6674 -0.5126
 3722TIP3    H132581   5.261   4.136   1.503  0.3048 -2.0763  1.2501
 3722TIP3    H232582   5.378   4.151   1.408 -0.6757  0.4617  0.3614
 3723TIP3   OH232583   6.572   2.002   0.464 -0.4738  0.0941 -0.1013
 3723TIP3    H132584   6.634   2.045   0.523  1.1776  1.1968 -2.4665
 3723TIP3    H232585   6.626   1.939   0.415 -2.0544 -1.7666  0.4250
 3724TIP3   OH232586   2.724   2.973   5.166  1.1991 -0.1237  0.1028
 3724TIP3    H132587   2.657   3.030   5.128  2.2088  0.5759 -0.6831
 3724TIP3    H232588   2.675   2.915   5.224 -0.1910 -0.1644 -1.0449
 3725TIP3   OH232589   1.196   2.288  10.501 -0.1512 -0.4508  0.0876
 3725TIP3    H132590   1.212   2.379  10.478  0.0916 -0.3887  0.4890
 3725TIP3    H232591   1.148   2.292  10.584  1.1098 -0.6977  0.8650
 3726TIP3   OH232592   1.870   2.757   2.366  0.1338  0.0268  0.1397
 3726TIP3    H132593   1.871   2.839   2.417  0.3937  1.7596 -2.4385
 3726TIP3    H232594   1.953   2.715   2.386 -0.4875 -0.2317  2.3882
 3727TIP3   OH232595   5.068   0.883   6.324 -0.0587 -0.4717  0.1279
 3727TIP3    H132596   5.022   0.815   6.373  0.1201 -0.8318 -0.2034
 3727TIP3    H232597   5.160   0.865   6.339 -0.0097  0.0492  0.5130
 3728TIP3   OH232598   2.360   5.304   1.902  0.5822  0.0647  0.0446
 3728TIP3    H132599   2.340   5.394   1.878 -0.1573 -0.3819 -1.0782
 3728TIP3    H232600   2.297   5.251   1.854  1.3514 -1.0932  0.2594
 3729TIP3   OH232601   1.153   1.293  13.726 -0.2088 -0.2654  0.2185
 3729TIP3    H132602   1.196   1.375  13.701  3.2297 -1.3298  1.9773
 3729TIP3    H232603   1.125   1.255  13.644  1.8906  0.8032 -1.0825
 3730TIP3   OH232604   2.089   1.264   1.128  0.1226  0.3059 -0.6783
 3730TIP3    H132605   2.039   1.326   1.074  2.8230  1.5684 -1.9832
 3730TIP3    H232606   2.059   1.178   1.099 -1.4302  0.9818 -1.2078
 3731TIP3   OH232607   0.500   0.265  12.680  0.3435 -0.0655  0.6149
 3731TIP3    H132608   0.445   0.273  12.758  1.3420  0.6680  1.2662
 3731TIP3    H232609   0.567   0.201  12.705  3.3821  3.3308  2.0944
 3732TIP3   OH232610   1.119   3.671   2.095  0.3095 -0.2849  0.1294
 3732TIP3    H132611   1.075   3.597   2.136 -1.7860 -0.9394 -2.9113
 3732TIP3    H232612   1.205   3.638   2.072  1.1588 -0.2000  2.8735
 3733TIP3   OH232613   4.791   1.950  12.109 -0.4732 -0.0631  0.2444
 3733TIP3    H132614   4.723   2.011  12.137 -0.0274  1.3875 -1.6229
 3733TIP3    H232615   4.837   1.996  12.039  0.3335 -2.3075 -0.7876
 3734TIP3   OH232616   2.554   3.605   5.090 -0.5857  0.0605  0.0422
 3734TIP3    H132617   2.529   3.513   5.101 -2.3114  0.4076 -0.6855
 3734TIP3    H232618   2.546   3.643   5.177 -0.6953 -0.2950  0.1875
 3735TIP3   OH232619   6.001   2.299   2.438 -0.4535 -0.2735  0.3928
 3735TIP3    H132620   6.031   2.235   2.373  0.8792 -0.0015  0.6990
 3735TIP3    H232621   6.007   2.383   2.393 -2.1718 -0.3382  0.0008
 3736TIP3   OH232622   5.901   4.779  13.377  0.1032  0.5707  0.1758
 3736TIP3    H132623   5.863   4.744  13.458 -0.9864  1.5029  0.0957
 3736TIP3    H232624   5.859   4.731  13.307  2.2573 -1.4212  0.1323
 3737TIP3   OH232625   1.422   2.910   4.965  0.1354 -0.1442  0.2649
 3737TIP3    H132626   1.380   2.877   5.044 -0.3721 -2.3884 -0.8293
 3737TIP3    H232627   1.504   2.861   4.958  1.1485  1.4643  0.3997
 3738TIP3   OH232628   0.813   5.071   0.344  0.3093 -0.3435 -0.6468
 3738TIP3    H132629   0.892   5.024   0.315  0.3965 -0.2873 -0.4983
 3738TIP3    H232630   0.744   5.005   0.340  0.5969 -0.7261  0.4057
 3739TIP3   OH232631   3.099   6.163  17.019  0.2393  0.1363  0.2665
 3739TIP3    H132632   3.104   6.258  17.025 -0.2968  0.3136 -1.6907
 3739TIP3    H232633   3.187   6.133  17.041  0.8421  1.1973 -0.6202
 3740TIP3   OH232634   6.764   4.517   1.163  0.1780 -0.0983  0.3216
 3740TIP3    H132635   6.838   4.464   1.192  1.2418  1.0681 -0.1606
 3740TIP3    H232636   6.799   4.569   1.090 -2.0345 -1.9751 -2.2764
 3741TIP3   OH232637   2.238   6.229  12.148  0.5976  0.1160  0.2301
 3741TIP3    H132638   2.147   6.246  12.125  0.4849  0.2558  0.7638
 3741TIP3    H232639   2.273   6.181  12.073  0.1651  0.3071 -0.1000
 3742TIP3   OH232640   0.718   5.642   0.747  0.1562  0.7890  0.1729
 3742TIP3    H132641   0.656   5.620   0.817 -0.0559  3.5558  0.9932
 3742TIP3    H232642   0.689   5.591   0.672 -1.7438  0.3246  1.1594
 3743TIP3   OH232643   3.981   6.262  12.457 -0.6143 -0.3009  0.1366
 3743TIP3    H132644   3.890   6.243  12.483 -0.2489 -0.8022  1.1055
 3743TIP3    H232645   4.029   6.264  12.540  0.3317 -0.4196 -0.3984
 3744TIP3   OH232646   3.696   2.334  13.153 -0.3402 -0.3151 -0.3041
 3744TIP3    H132647   3.749   2.394  13.099 -0.8061 -0.6268 -1.1325
 3744TIP3    H232648   3.759   2.297  13.215  0.6857 -1.4684 -1.9318
 3745TIP3   OH232649   0.555   0.778  15.083 -0.5011  0.3510 -0.0403
 3745TIP3    H132650   0.646   0.795  15.059 -0.8377  1.6821 -0.4362
 3745TIP3    H232651   0.560   0.709  15.150  0.8647  1.1603  0.7136
 3746TIP3   OH232652   6.314   1.022   2.337 -0.5854  0.2105  0.5821
 3746TIP3    H132653   6.220   1.001   2.338 -0.4022 -0.6682  0.6419
 3746TIP3    H232654   6.321   1.098   2.280 -1.1739 -0.5839 -0.5851
 3747TIP3   OH232655   6.213   1.446   5.151  0.2974 -0.3404  0.2390
 3747TIP3    H132656   6.281   1.505   5.185  1.0436 -0.5778 -0.8069
 3747TIP3    H232657   6.261   1.375   5.108 -0.6029 -1.2656  0.7093
 3748TIP3   OH232658   0.284   1.473   6.177 -0.5921 -0.0072 -0.0794
 3748TIP3    H132659   0.355   1.411   6.193 -0.5096 -0.1621 -0.9941
 3748TIP3    H232660   0.315   1.528   6.104 -0.6969  1.0568  0.6513
 3749TIP3   OH232661   1.540   2.396   0.332  0.6843  0.6806 -0.0722
 3749TIP3    H132662   1.598   2.384   0.257  0.3455 -1.2569 -0.0848
 3749TIP3    H232663   1.505   2.485   0.322  2.9874  1.6053 -0.4893
 3750TIP3   OH232664   3.698   6.666  14.728  0.5779 -0.3990  0.1219
 3750TIP3    H132665   3.668   6.700  14.812  1.6311 -0.1277  0.4062
 3750TIP3    H232666   3.745   6.739  14.688  0.9172 -0.8277 -0.2747
 3751TIP3   OH232667   4.076   3.660   1.507  0.2963 -0.1426 -0.5188
 3751TIP3    H132668   4.103   3.623   1.591 -1.7533 -2.3431 -0.7087
 3751TIP3    H232669   3.981   3.672   1.515  0.3606  1.6947 -1.8118
 3752TIP3   OH232670   6.460   1.408  15.446  0.2904 -0.0933 -0.0274
 3752TIP3    H132671   6.456   1.504  15.455  1.3880 -0.0603  0.3614
 3752TIP3    H232672   6.389   1.376  15.501 -1.1541  0.5318 -1.4523
 3753TIP3   OH232673   4.468   2.155   2.619 -0.1678  0.1638 -0.2876
 3753TIP3    H132674   4.412   2.168   2.543 -0.0187 -1.3556 -0.6844
 3753TIP3    H232675   4.415   2.104   2.680  0.3370 -0.1924 -0.1397
 3754TIP3   OH232676   3.429   2.560  14.557 -0.0227  0.0041  0.7369
 3754TIP3    H132677   3.468   2.647  14.564 -0.4281  0.2738 -0.1583
 3754TIP3    H232678   3.380   2.562  14.474  2.8729 -2.2311 -1.2320
 3755TIP3   OH232679   2.878   6.596   1.112  0.0512  0.0831 -0.3930
 3755TIP3    H132680   2.800   6.629   1.156  0.6536  0.7891  0.1898
 3755TIP3    H232681   2.894   6.659   1.041  0.9805  0.8688  0.4783
 3756TIP3   OH232682   0.131   2.115   4.940 -0.1369 -0.0686 -0.1974
 3756TIP3    H132683   0.131   2.092   5.033  0.2258  0.3296 -0.0980
 3756TIP3    H232684   0.218   2.091   4.909 -0.5673 -1.0695 -0.6563
 3757TIP3   OH232685   1.032   3.335   2.790  0.1461 -0.1351 -0.2963
 3757TIP3    H132686   1.026   3.430   2.778 -0.2611 -0.3051 -1.6143
 3757TIP3    H232687   0.941   3.306   2.790  0.2754 -0.5396 -0.0000
 3758TIP3   OH232688   6.223   2.933  11.522  0.3739  0.1563  0.3989
 3758TIP3    H132689   6.269   3.015  11.500 -0.6472  1.3874  2.5041
 3758TIP3    H232690   6.176   2.910  11.442  1.5842  0.9793 -0.6027
 3759TIP3   OH232691   3.664   5.031   4.039  0.7066  0.6706  0.3402
 3759TIP3    H132692   3.730   5.019   4.108  2.0583 -0.4272 -1.0782
 3759TIP3    H232693   3.597   5.086   4.080  1.9252  0.8676  2.2128
 3760TIP3   OH232694   1.440   6.246  16.009 -0.1922 -0.6445 -0.4694
 3760TIP3    H132695   1.458   6.177  15.945 -0.8115 -1.0161 -0.2522
 3760TIP3    H232696   1.386   6.310  15.961  0.0149 -0.5247 -0.5442
 3761TIP3   OH232697   0.675   4.052   0.791 -0.6587  0.1094  0.4040
 3761TIP3    H132698   0.647   4.117   0.726 -1.2029  0.1939  0.7183
 3761TIP3    H232699   0.676   4.101   0.874 -2.5147 -0.6228  0.9072
 3762TIP3   OH232700   1.935   1.648  15.432 -0.1919  0.4910  0.2707
 3762TIP3    H132701   1.961   1.703  15.357 -0.1862 -1.5408 -1.3104
 3762TIP3    H232702   2.018   1.621  15.471 -0.0023 -1.3041 -1.2305
 3763TIP3   OH232703   0.836   6.596   4.180 -0.6179 -0.4265 -0.2395
 3763TIP3    H132704   0.906   6.658   4.160 -0.4826 -0.5487 -0.1502
 3763TIP3    H232705   0.756   6.645   4.166 -0.5383 -0.5514 -1.2388
 3764TIP3   OH232706   6.063   3.010  14.337  0.3453  0.5016  0.9594
 3764TIP3    H132707   6.001   2.936  14.341  1.5803 -0.5909  0.7457
 3764TIP3    H232708   6.046   3.051  14.252  1.3048 -1.1116 -0.0804
 3765TIP3   OH232709   2.443   0.037   2.669  0.0001 -0.2853  0.0643
 3765TIP3    H132710   2.437  -0.057   2.654 -0.7637 -0.0215 -1.4821
 3765TIP3    H232711   2.352   0.067   2.672  0.2452  0.5440 -0.4161
 3766TIP3   OH232712   4.545   3.009   6.438 -0.0790  0.2200 -1.2544
 3766TIP3    H132713   4.535   3.079   6.503  0.2322  0.7790 -1.7922
 3766TIP3    H232714   4.614   2.953   6.474 -0.1728  0.3190 -0.9185
 3767TIP3   OH232715   6.148   6.107   3.229 -0.2892 -0.2265 -0.9502
 3767TIP3    H132716   6.076   6.093   3.168 -1.0110  0.1036 -0.1748
 3767TIP3    H232717   6.189   6.189   3.199  1.2154 -1.5390 -2.7810
 3768TIP3   OH232718   1.129   3.687  15.968  0.3039 -0.1961  0.6759
 3768TIP3    H132719   1.196   3.718  15.907  1.6694 -0.5742  1.9262
 3768TIP3    H232720   1.083   3.617  15.922  1.7916 -0.9721  0.3268
 3769TIP3   OH232721   0.251   3.373   0.905 -0.6977 -0.6343  0.2932
 3769TIP3    H132722   0.214   3.321   0.976 -0.4062 -0.1319  0.8209
 3769TIP3    H232723   0.243   3.464   0.934 -1.2011 -0.3710 -0.6209
 3770TIP3   OH232724   1.183   5.250  16.091 -0.0917  0.1807  0.2795
 3770TIP3    H132725   1.141   5.298  16.020  1.0585  0.6043 -0.1222
 3770TIP3    H232726   1.244   5.190  16.047 -0.4098 -0.5755  0.8476
 3771TIP3   OH232727   0.490   0.928   4.804  0.1657  0.6131  0.0247
 3771TIP3    H132728   0.426   0.878   4.855 -2.2341  2.2402 -1.1639
 3771TIP3    H232729   0.544   0.862   4.762 -0.2827 -0.8464  1.5901
 3772TIP3   OH232730   0.473   4.835  13.959  0.2781 -0.0859 -0.2552
 3772TIP3    H132731   0.399   4.837  14.020 -0.5312  3.1507 -1.1472
 3772TIP3    H232732   0.441   4.784  13.884 -0.6518  0.3057 -0.1420
 3773TIP3   OH232733   3.027   5.002  14.667 -0.2859 -0.2928  0.7916
 3773TIP3    H132734   3.009   4.988  14.760 -1.2197 -0.6991  0.5617
 3773TIP3    H232735   2.956   4.956  14.622  1.0425 -1.4479 -0.1650
 3774TIP3   OH232736   5.233   3.283  11.832  0.2529 -0.6508  0.1838
 3774TIP3    H132737   5.226   3.377  11.845 -0.3431 -0.7541  0.6520
 3774TIP3    H232738   5.253   3.247  11.918  0.2943 -0.9697  0.0433
 3775TIP3   OH232739   0.766   2.311  16.125 -0.3866  0.6194  0.1148
 3775TIP3    H132740   0.834   2.254  16.160 -2.1985 -1.8553 -0.1107
 3775TIP3    H232741   0.801   2.400  16.135  3.5703 -0.5315 -1.5626
 3776TIP3   OH232742   2.092   2.598  11.576 -0.0687  0.8429 -0.3407
 3776TIP3    H132743   2.014   2.629  11.530 -0.5154  0.5137  0.1676
 3776TIP3    H232744   2.064   2.592  11.668  0.0707 -0.7466 -0.3639
 3777TIP3   OH232745   0.672   2.891  17.259  0.0507  0.0838  0.4729
 3777TIP3    H132746   0.700   2.945  17.185  0.2981 -0.9081 -0.1866
 3777TIP3    H232747   0.577   2.885  17.250  0.1674 -0.8071 -0.3377
 3778TIP3   OH232748   1.632   3.671  15.697  0.4195 -0.6142 -0.2530
 3778TIP3    H132749   1.621   3.698  15.788 -0.2472  2.3693 -1.1037
 3778TIP3    H232750   1.568   3.601  15.684 -1.4010  0.7417  0.9322
 3779TIP3   OH232751   6.131   6.687   4.721 -0.3895  0.1477 -0.0819
 3779TIP3    H132752   6.204   6.654   4.669  0.5453  1.7887  0.1527
 3779TIP3    H232753   6.057   6.632   4.694  0.4438 -0.1894 -1.8770
 3780TIP3   OH232754   4.442   1.275  14.079 -0.2394 -0.3721 -0.0023
 3780TIP3    H132755   4.356   1.306  14.050 -1.1113 -1.0668  1.7093
 3780TIP3    H232756   4.499   1.352  14.072 -1.7463  0.9914  1.7105
 3781TIP3   OH232757   2.100   2.137   2.046 -0.4611 -0.1146  0.0175
 3781TIP3    H132758   2.007   2.123   2.065 -0.2932 -0.0868  0.8922
 3781TIP3    H232759   2.102   2.165   1.954 -1.3379  0.1270  0.0681
 3782TIP3   OH232760   2.841   1.137   1.599  0.1276  0.4779 -0.0316
 3782TIP3    H132761   2.776   1.096   1.656  0.6703  0.6254  0.7099
 3782TIP3    H232762   2.919   1.146   1.654  0.0817  2.3467 -0.2052
 3783TIP3   OH232763   2.330   3.024   4.187  0.2574  0.8793 -0.0683
 3783TIP3    H132764   2.380   3.019   4.268  0.3290 -1.2582 -0.1911
 3783TIP3    H232765   2.249   3.070   4.211  0.6278  0.9753  1.0266
 3784TIP3   OH232766   2.150   0.684   3.855 -0.0535 -0.2679 -0.0795
 3784TIP3    H132767   2.157   0.610   3.915  2.5314 -0.0604 -0.0087
 3784TIP3    H232768   2.149   0.645   3.768  2.3697 -0.4596 -0.0957
 3785TIP3   OH232769   0.017   2.193  16.404  0.4626  0.6217  0.4130
 3785TIP3    H132770   0.083   2.146  16.352 -1.6720  0.3561 -2.3221
 3785TIP3    H232771   0.035   2.285  16.387  1.4237  0.6334  1.4460
 3786TIP3   OH232772   3.452   2.959   2.336  0.4043  0.3506 -0.2475
 3786TIP3    H132773   3.359   2.979   2.349  0.1225 -0.2954 -1.1386
 3786TIP3    H232774   3.470   2.987   2.246  0.0415 -2.9866 -1.5134
 3787TIP3   OH232775   5.150   5.724  12.140 -0.4007  0.1921 -0.2657
 3787TIP3    H132776   5.206   5.741  12.064 -0.5500  1.0576 -0.2001
 3787TIP3    H232777   5.083   5.664  12.107  0.6103 -0.9447 -0.3174
 3788TIP3   OH232778   5.551   4.457  15.937  0.0228  0.3028 -0.0118
 3788TIP3    H132779   5.581   4.525  15.996 -0.7703 -1.1359  2.1699
 3788TIP3    H232780   5.457   4.475  15.925  0.1244  0.4398 -0.6706
 3789TIP3   OH232781   0.928   4.090  15.641  0.2596 -0.0928  0.1757
 3789TIP3    H132782   0.876   4.147  15.698 -0.4580 -0.5088 -0.0494
 3789TIP3    H232783   1.010   4.078  15.688 -1.3330 -2.7915  2.6502
 3790TIP3   OH232784   4.548   3.440  16.621  0.7071  0.6229 -0.4044
 3790TIP3    H132785   4.521   3.522  16.579  1.2832  1.2319  0.3843
 3790TIP3    H232786   4.519   3.372  16.560  1.5245  1.4734 -1.7947
 3791TIP3   OH232787   6.483   3.242   5.203 -0.6383 -0.1916  0.0658
 3791TIP3    H132788   6.401   3.208   5.168 -1.0358  0.5512  0.2376
 3791TIP3    H232789   6.550   3.214   5.140 -1.3308  1.1316 -1.3263
 3792TIP3   OH232790   6.338   2.327   0.755 -0.0971  0.5357  0.5881
 3792TIP3    H132791   6.287   2.295   0.680 -1.2803  0.0968  1.5415
 3792TIP3    H232792   6.275   2.381   0.804 -0.1401 -1.2032  2.5974
 3793TIP3   OH232793   1.856   5.122  17.304  0.0237  0.4450  0.5384
 3793TIP3    H132794   1.858   5.116  17.208 -0.4037 -0.8187  0.5770
 3793TIP3    H232795   1.767   5.150  17.324 -0.1378 -0.0779  0.5787
 3794TIP3   OH232796   0.005   4.032  13.127 -0.2176  0.2424  0.0777
 3794TIP3    H132797  -0.053   4.016  13.052 -0.4578  1.1108  0.0717
 3794TIP3    H232798  -0.055   4.045  13.200 -0.0396  1.1521  0.0726
 3795TIP3   OH232799   3.457   2.069  14.942 -0.2255 -0.5471 -0.2914
 3795TIP3    H132800   3.401   2.033  14.873  0.1623  0.9107 -1.4284
 3795TIP3    H232801   3.535   2.101  14.895 -0.0192  0.6278  0.7882
 3796TIP3   OH232802   0.638   0.873   5.436 -0.0894 -0.5738 -0.7050
 3796TIP3    H132803   0.712   0.922   5.402 -0.8689  0.9815 -0.2300
 3796TIP3    H232804   0.580   0.862   5.360 -0.3690  0.1356 -0.6042
 3797TIP3   OH232805   2.469   0.811  14.336  0.0938 -0.3462 -0.4430
 3797TIP3    H132806   2.449   0.885  14.279  0.6425  0.5775  0.5482
 3797TIP3    H232807   2.427   0.831  14.419  0.0046 -1.2825 -0.2517
 3798TIP3   OH232808   3.257   3.338  11.239  0.0383 -0.2713 -0.2270
 3798TIP3    H132809   3.282   3.258  11.193  1.1223  0.2751 -0.6187
 3798TIP3    H232810   3.222   3.395  11.171 -2.3478 -0.9873  0.2940
 3799TIP3   OH232811   6.602   4.804   2.147 -0.4894  0.0179 -0.2933
 3799TIP3    H132812   6.544   4.733   2.175 -0.3154  0.5134  1.4558
 3799TIP3    H232813   6.645   4.770   2.069 -0.6810 -1.6551  0.2853
 3800TIP3   OH232814   5.911   0.528  12.526 -0.0463 -0.7768 -0.4502
 3800TIP3    H132815   5.820   0.559  12.523  0.2076  0.2334  1.1599
 3800TIP3    H232816   5.953   0.569  12.451 -0.9111 -1.2835 -1.2383
 3801TIP3   OH232817   6.514   3.131  13.166 -0.1621 -0.3907  0.3947
 3801TIP3    H132818   6.438   3.189  13.162 -0.4901 -0.8710 -0.6333
 3801TIP3    H232819   6.590   3.190  13.164 -0.4796  0.0026 -1.1947
 3802TIP3   OH232820   5.623   3.847   3.965 -0.1772 -0.7160 -0.1037
 3802TIP3    H132821   5.686   3.870   3.897  0.1954  1.6169  0.9474
 3802TIP3    H232822   5.592   3.931   3.999 -2.6402 -1.8020  0.5534
 3803TIP3   OH232823   2.155   2.359  12.362 -0.1474 -0.1656  0.2737
 3803TIP3    H132824   2.209   2.418  12.414 -0.6104 -0.2854  0.8987
 3803TIP3    H232825   2.065   2.378  12.390 -0.8941  2.6632 -3.3326
 3804TIP3   OH232826   3.947   2.386  16.408 -0.5590  0.4073 -0.0964
 3804TIP3    H132827   3.996   2.392  16.326  0.9380  0.4160  0.7530
 3804TIP3    H232828   3.957   2.294  16.434  0.4098  0.7733  0.8924
 3805TIP3   OH232829   0.781   6.695  11.208 -0.2824  0.2369  0.3309
 3805TIP3    H132830   0.713   6.682  11.274  0.9677 -1.4866  1.3585
 3805TIP3    H232831   0.780   6.615  11.156 -0.5259  1.1324 -1.0936
 3806TIP3   OH232832   1.008   3.696  14.572 -0.1862 -0.1965  0.4002
 3806TIP3    H132833   1.052   3.750  14.506 -0.4446 -1.1646 -0.5979
 3806TIP3    H232834   1.002   3.752  14.649  0.1021  0.9770 -0.4048
 3807TIP3   OH232835   0.053   6.438   5.995  0.4254 -0.2176 -0.2656
 3807TIP3    H132836   0.069   6.474   6.082  2.8108 -2.1994  0.2101
 3807TIP3    H232837   0.103   6.495   5.936  2.0767 -1.1205  0.1886
 3808TIP3   OH232838   5.466   0.763  11.849 -0.1238 -0.1575  0.4596
 3808TIP3    H132839   5.392   0.798  11.899 -1.0831  1.4328 -1.9260
 3808TIP3    H232840   5.533   0.831  11.855 -0.4180  0.2635 -0.7134
 3809TIP3   OH232841   4.046   4.238   5.907 -0.1494  0.0116 -0.0025
 3809TIP3    H132842   4.089   4.159   5.939 -2.2024 -1.3607 -0.4362
 3809TIP3    H232843   3.988   4.265   5.978  0.2070  0.9010 -0.0323
 3810TIP3   OH232844   0.273   1.097  11.509 -0.6627  0.4552 -0.0201
 3810TIP3    H132845   0.225   1.162  11.561 -0.6430  0.5527 -0.1241
 3810TIP3    H232846   0.214   1.022  11.506 -1.2697  0.9479 -1.0329
 3811TIP3   OH232847   6.766   5.265  14.570 -0.4785 -0.0354 -0.0566
 3811TIP3    H132848   6.700   5.226  14.513  0.2889 -1.1516 -0.2009
 3811TIP3    H232849   6.832   5.196  14.582 -0.4614  0.2625  1.9274
 3812TIP3   OH232850   3.642   5.608   2.660  0.1783 -0.4300 -0.3491
 3812TIP3    H132851   3.681   5.646   2.582  1.6255 -1.9000 -0.4098
 3812TIP3    H232852   3.548   5.618   2.648  0.4299  0.6802 -1.5692
 3813TIP3   OH232853   0.043   1.598  13.986 -0.4789 -0.3183  0.5285
 3813TIP3    H132854   0.073   1.589  13.895  0.0054 -0.2322  0.6795
 3813TIP3    H232855   0.011   1.688  13.992 -1.6766 -0.6918  0.1048
 3814TIP3   OH232856   3.665   2.875  12.679 -0.2472 -0.2650  0.2592
 3814TIP3    H132857   3.600   2.931  12.636  0.5237 -0.6500 -1.5061
 3814TIP3    H232858   3.613   2.810  12.726 -1.2000 -0.9939 -1.6723
 3815TIP3   OH232859   0.488   6.304  16.869  0.1279  0.8120  0.1921
 3815TIP3    H132860   0.550   6.376  16.858 -0.6144  1.2151 -1.6553
 3815TIP3    H232861   0.489   6.286  16.963  0.9453  2.6707  0.5815
 3816TIP3   OH232862   5.445   4.530  13.357  0.1345  0.1067 -0.2251
 3816TIP3    H132863   5.400   4.584  13.293  0.7366  0.9242  0.0312
 3816TIP3    H232864   5.475   4.591  13.424 -0.5377 -0.7396  0.8793
 3817TIP3   OH232865   3.610   6.043  16.703  0.3485  0.1383  0.2853
 3817TIP3    H132866   3.655   6.118  16.742 -0.3868 -0.3032  2.1019
 3817TIP3    H232867   3.599   6.066  16.611  2.0363  1.3132  0.3323
 3818TIP3   OH232868   5.801   3.755  12.354  0.2257 -0.4021  0.8810
 3818TIP3    H132869   5.735   3.686  12.365  0.5172 -1.0673 -1.0392
 3818TIP3    H232870   5.838   3.767  12.441 -1.0255 -1.4628  1.5960
 3819TIP3   OH232871   1.566   4.479   3.069 -0.4950  0.4924 -0.5464
 3819TIP3    H132872   1.578   4.529   2.988 -0.8469  1.5374  0.0352
 3819TIP3    H232873   1.618   4.399   3.055  1.0297  1.5232 -1.0435
 3820TIP3   OH232874   1.106   0.778  14.857  0.2656  0.2406 -0.4005
 3820TIP3    H132875   1.149   0.863  14.847 -1.1963  0.8466 -1.9161
 3820TIP3    H232876   1.151   0.722  14.793  0.4031  0.2026 -0.2719
 3821TIP3   OH232877   4.064   0.055  11.612 -0.5207  0.2993 -0.4839
 3821TIP3    H132878   4.104   0.051  11.525  0.5748 -1.1462  0.0515
 3821TIP3    H232879   3.983   0.104  11.598 -0.2434  0.3416 -2.2574
 3822TIP3   OH232880   0.599   6.531  10.722 -0.0414  0.4243  0.2136
 3822TIP3    H132881   0.599   6.613  10.771 -0.6410  0.7095 -0.2498
 3822TIP3    H232882   0.506   6.513  10.707  0.1447  0.9321 -1.7990
 3823TIP3   OH232883   6.711   0.727   3.031 -0.0026  0.7052 -0.1131
 3823TIP3    H132884   6.665   0.810   3.041  0.4009  0.7168  2.0442
 3823TIP3    H232885   6.662   0.681   2.962  1.6386  3.9120 -3.8083
 3824TIP3   OH232886   5.296   6.703   3.683 -0.0162  0.1907  0.5565
 3824TIP3    H132887   5.207   6.696   3.650  0.2430  1.4367 -0.4957
 3824TIP3    H232888   5.340   6.762   3.621  1.5136 -0.3255  1.0966
 3825TIP3   OH232889   1.649   3.334   4.629 -0.0815 -0.0190 -0.5822
 3825TIP3    H132890   1.587   3.394   4.670  0.9417 -0.8140  2.3963
 3825TIP3    H232891   1.623   3.248   4.660  0.3379 -0.8089 -2.3018
 3826TIP3   OH232892   2.763   1.811   0.663 -0.0600  0.7653 -0.1011
 3826TIP3    H132893   2.815   1.864   0.604 -0.8108 -0.4165 -1.8882
 3826TIP3    H232894   2.676   1.853   0.663  0.8559  3.1443  3.3959
 3827TIP3   OH232895   4.377   0.862   3.178 -0.5141 -1.1777 -0.1909
 3827TIP3    H132896   4.336   0.790   3.227 -0.8778  1.3493  3.6373
 3827TIP3    H232897   4.452   0.887   3.232  0.4459  0.4327 -2.1532
 3828TIP3   OH232898   0.689   3.178  11.890 -0.0761  0.3428 -0.3224
 3828TIP3    H132899   0.733   3.254  11.852 -1.0943  1.5506  0.7886
 3828TIP3    H232900   0.693   3.194  11.984 -0.4050 -0.9470 -0.0806
 3829TIP3   OH232901   3.669   5.545  15.684 -0.2559 -0.1057  0.0609
 3829TIP3    H132902   3.711   5.584  15.761  0.1427 -0.4326  0.0111
 3829TIP3    H232903   3.655   5.453  15.708 -0.9659 -0.0018  0.0815
 3830TIP3   OH232904   0.658   3.518   2.805  0.1630 -0.0648 -0.4262
 3830TIP3    H132905   0.578   3.467   2.794 -0.0497  0.3060 -0.6375
 3830TIP3    H232906   0.729   3.456   2.794 -0.0990 -0.4386 -0.0427
 3831TIP3   OH232907   0.057   2.809   2.301 -0.0159 -0.3419  0.1171
 3831TIP3    H132908   0.014   2.775   2.223  1.2249 -2.6466  0.3663
 3831TIP3    H232909   0.013   2.766   2.374 -2.0384  2.7254  0.9334
 3832TIP3   OH232910   6.464   6.098  14.969  0.4752 -0.9696 -0.3022
 3832TIP3    H132911   6.445   6.190  14.986  1.4138 -0.6265 -0.9960
 3832TIP3    H232912   6.541   6.079  15.023  2.3616 -0.3741 -2.5972
 3833TIP3   OH232913   0.169   5.775   2.283 -0.1741 -0.3207 -0.2950
 3833TIP3    H132914   0.191   5.862   2.250 -0.9930  0.5374  1.3388
 3833TIP3    H232915   0.240   5.753   2.343 -0.5384 -0.2752  0.1608
 3834TIP3   OH232916   4.716   6.070  17.156 -0.2060  0.8227  0.7259
 3834TIP3    H132917   4.790   6.056  17.216 -0.7961 -1.6825  0.9825
 3834TIP3    H232918   4.654   6.123  17.207 -0.0660 -0.0329  1.8257
 3835TIP3   OH232919   0.561   3.351  15.093  0.1365 -0.4132 -0.2113
 3835TIP3    H132920   0.482   3.348  15.039 -0.3873 -1.6184  0.5817
 3835TIP3    H232921   0.598   3.437  15.076 -0.2863 -0.5618 -2.0884
 3836TIP3   OH232922   0.268   5.398   1.551  0.4116  0.0525 -0.1888
 3836TIP3    H132923   0.216   5.366   1.624  0.7708 -0.1576 -0.0187
 3836TIP3    H232924   0.205   5.438   1.491  0.1511  0.4941  0.3785
 3837TIP3   OH232925   6.020   3.606  15.793 -0.1126  0.0884  0.0460
 3837TIP3    H132926   6.002   3.513  15.804  0.3260 -0.0716 -0.5183
 3837TIP3    H232927   6.116   3.612  15.792 -0.1288  0.4349 -0.6743
 3838TIP3   OH232928   2.007   2.046   4.710  0.2825  0.6127  0.0570
 3838TIP3    H132929   2.042   2.119   4.761  2.0424 -0.0253 -0.1703
 3838TIP3    H232930   2.032   1.968   4.759 -0.1901  0.0975 -0.5024
 3839TIP3   OH232931   6.329   6.238  16.548  0.1048  0.3179  0.3313
 3839TIP3    H132932   6.393   6.174  16.581  1.1061  0.1822 -1.6939
 3839TIP3    H232933   6.258   6.236  16.612  1.1619 -1.1160  1.5444
 3840TIP3   OH232934   6.259   0.621  13.589  0.0281 -0.6937  0.6425
 3840TIP3    H132935   6.352   0.638  13.575 -0.4873  0.7131 -1.4867
 3840TIP3    H232936   6.256   0.535  13.631  2.2737 -0.7632  0.7641
 3841TIP3   OH232937   4.261   1.142  15.825  0.4501  0.2956 -0.4285
 3841TIP3    H132938   4.247   1.083  15.752  0.8589 -0.2375 -0.0854
 3841TIP3    H232939   4.225   1.096  15.901 -0.6791  1.1700 -0.4009
 3842TIP3   OH232940   6.450   2.021  16.014 -0.2381 -0.0942 -0.0465
 3842TIP3    H132941   6.521   2.085  16.016  0.1934 -0.5745  0.2022
 3842TIP3    H232942   6.391   2.050  16.084 -1.0550  1.1435 -1.1937
 3843TIP3   OH232943   5.630   5.053  15.255  0.1266 -0.5560 -0.3907
 3843TIP3    H132944   5.634   5.115  15.328 -2.0426 -0.5858 -0.1763
 3843TIP3    H232945   5.700   5.081  15.196  1.5412 -0.1581  1.3751
 3844TIP3   OH232946   5.137   2.025  15.966  0.1255  0.4290 -0.5170
 3844TIP3    H132947   5.059   1.970  15.959 -0.1859  0.9963 -1.7289
 3844TIP3    H232948   5.204   1.977  15.917  0.0024  0.8390 -1.1042
 3845TIP3   OH232949   1.438   3.129   0.085 -0.2210  0.2836  0.4644
 3845TIP3    H132950   1.488   3.097   0.160  0.5390 -0.3798 -0.3093
 3845TIP3    H232951   1.501   3.180   0.034 -0.7524  0.7989  0.3135
 3846TIP3   OH232952   3.966   4.494   6.768  1.0022 -0.2047 -0.2302
 3846TIP3    H132953   4.046   4.444   6.752  0.6773 -0.8967  0.2866
 3846TIP3    H232954   3.993   4.565   6.826  1.5190  0.4014 -1.1796
 3847TIP3   OH232955   2.472   5.150   1.218 -0.2926 -0.0873 -0.5640
 3847TIP3    H132956   2.564   5.174   1.219 -0.4068  0.3670 -0.6601
 3847TIP3    H232957   2.431   5.214   1.159 -0.8929  0.5456  0.4999
 3848TIP3   OH232958   1.409   6.061   6.296  0.3534  0.0797  0.1839
 3848TIP3    H132959   1.503   6.073   6.310  0.0081  0.5413  2.6468
 3848TIP3    H232960   1.374   6.151   6.296 -0.0462 -0.0431 -1.4587
 3849TIP3   OH232961   1.819   4.421  14.515 -1.0098 -0.0408 -0.1957
 3849TIP3    H132962   1.758   4.482  14.557  0.0160  1.4674 -0.8050
 3849TIP3    H232963   1.901   4.469  14.511  0.0652 -1.7894  0.0126
 3850TIP3   OH232964   2.739   3.598  16.913  0.0906  0.0689 -0.0747
 3850TIP3    H132965   2.753   3.627  17.004 -0.5873  2.0129 -0.5318
 3850TIP3    H232966   2.824   3.612  16.871 -0.0207  0.7324 -0.0993
 3851TIP3   OH232967   3.328   5.754  11.942  0.5977 -0.1615 -0.9854
 3851TIP3    H132968   3.408   5.770  11.992 -1.2550  0.1461  2.1970
 3851TIP3    H232969   3.318   5.659  11.941  0.3440 -0.1519 -0.1609
 3852TIP3   OH232970   3.663   0.778   3.516  0.0962 -0.8338  0.1067
 3852TIP3    H132971   3.637   0.693   3.482  1.5281 -2.1040  1.9368
 3852TIP3    H232972   3.607   0.792   3.593 -1.3151  0.7482 -1.1337
 3853TIP3   OH232973   2.304   3.421   3.651 -0.4333  0.4116  0.1338
 3853TIP3    H132974   2.395   3.395   3.670 -0.6540 -1.1745 -0.8480
 3853TIP3    H232975   2.254   3.340   3.655 -1.6262  1.0861 -0.4788
 3854TIP3   OH232976   1.227   1.586  16.081  0.2430  0.6236  0.0762
 3854TIP3    H132977   1.233   1.565  16.175 -2.0158  0.5260  0.2661
 3854TIP3    H232978   1.220   1.682  16.079  3.3281  0.9522 -0.2857
 3855TIP3   OH232979   2.884   3.431  14.146  0.6378  0.1108  0.2171
 3855TIP3    H132980   2.955   3.479  14.187  0.0026  1.5125 -0.2630
 3855TIP3    H232981   2.831   3.498  14.103 -0.6130 -0.9584  0.0163
 3856TIP3   OH232982   4.847   2.141   4.415 -0.3953  0.4979 -0.4877
 3856TIP3    H132983   4.849   2.207   4.485 -0.3848 -0.3090  0.2873
 3856TIP3    H232984   4.879   2.061   4.457 -3.2522 -0.7970 -0.5595
 3857TIP3   OH232985   2.086   2.159  12.566  0.0012  0.5687  0.0576
 3857TIP3    H132986   2.172   2.140  12.605 -0.2793 -3.4585 -0.8318
 3857TIP3    H232987   2.106   2.181  12.475  0.1230 -1.5116 -0.4614
 3858TIP3   OH232988   4.765   2.864  15.665  0.5223  0.0014 -0.3665
 3858TIP3    H132989   4.741   2.956  15.680 -1.4204 -0.7477  1.6357
 3858TIP3    H232990   4.858   2.867  15.643  0.8716  2.3405  1.1206
 3859TIP3   OH232991   0.292   0.113   0.956 -0.1312 -0.0013  0.6046
 3859TIP3    H132992   0.320   0.164   0.880  0.8044 -0.8860  0.3403
 3859TIP3    H232993   0.309   0.171   1.031 -1.6018  1.1083  0.1371
 3860TIP3   OH232994   1.817   0.462   0.709  0.7373 -0.6031 -0.2499
 3860TIP3    H132995   1.726   0.436   0.714  0.7462 -0.5316  0.4025
 3860TIP3    H232996   1.835   0.472   0.616 -0.1399  0.1612 -0.3488
 3861TIP3   OH232997   1.901   3.864  16.905  0.4721  0.0886  0.5376
 3861TIP3    H132998   1.854   3.786  16.936  0.7220  0.0306  0.7776
 3861TIP3    H232999   1.982   3.829  16.868  2.2243  0.4271  3.7108
 3862TIP3   OH233000   3.582   2.203  14.236  0.8619 -0.0114  0.3845
 3862TIP3    H133001   3.511   2.172  14.293 -0.3870 -1.7010 -1.9118
 3862TIP3    H233002   3.537   2.258  14.172  1.9824  0.5347  0.0547
 3863TIP3   OH233003   0.315   6.403   5.307  0.4930  0.2376 -0.1175
 3863TIP3    H133004   0.365   6.453   5.372 -0.0867  0.7711 -0.0794
 3863TIP3    H233005   0.224   6.425   5.325 -0.0482 -2.7757  1.6132
 3864TIP3   OH233006   4.200   4.756   3.842  0.3699  0.1928  0.1795
 3864TIP3    H133007   4.206   4.736   3.936 -1.5226  1.5054  0.6426
 3864TIP3    H233008   4.120   4.712   3.814 -0.2429  1.5552 -0.2931
 3865TIP3   OH233009   1.038   6.153   0.874  0.2448 -0.1922 -0.1294
 3865TIP3    H133010   1.075   6.091   0.937  1.3336  0.6735  0.1254
 3865TIP3    H233011   1.102   6.156   0.803 -0.1497  0.0950 -0.4794
 3866TIP3   OH233012   6.036   4.978  12.759  0.8809 -0.0989 -0.1869
 3866TIP3    H133013   6.046   4.915  12.830  1.2284 -0.1602 -0.2895
 3866TIP3    H233014   6.082   5.056  12.789  0.1961  0.2127  0.0667
 3867TIP3   OH233015   2.010   6.191   4.625  0.2536 -0.2428  0.5006
 3867TIP3    H133016   2.092   6.236   4.606  1.3752 -2.7702 -1.0952
 3867TIP3    H233017   1.950   6.221   4.557  1.1588 -1.4386 -0.8912
 3868TIP3   OH233018   1.046   1.967  16.765  0.0483  0.0462 -0.2724
 3868TIP3    H133019   0.981   2.037  16.760 -0.4524 -0.4126 -0.2763
 3868TIP3    H233020   1.124   2.009  16.802 -1.3372 -0.1423  3.2346
 3869TIP3   OH233021   3.524   1.136  13.292  0.2067  0.1835  0.2138
 3869TIP3    H133022   3.440   1.113  13.330  0.0315 -0.8787 -0.7681
 3869TIP3    H233023   3.514   1.228  13.266 -1.0097 -0.2103 -0.8121
 3870TIP3   OH233024   5.320   1.950   0.834  0.0666  0.2403  0.2961
 3870TIP3    H133025   5.269   1.921   0.910  1.9605 -1.9297  0.8368
 3870TIP3    H233026   5.326   2.045   0.845 -3.2171  0.5674  0.5215
 3871TIP3   OH233027   4.936   0.872  13.084  0.1079 -0.6554  0.0313
 3871TIP3    H133028   5.005   0.875  13.018  1.3589  2.3301  1.2655
 3871TIP3    H233029   4.978   0.832  13.161  0.2631  0.4803  0.5516
 3872TIP3   OH233030   5.560   5.169   4.550  0.2161 -0.3742 -0.8358
 3872TIP3    H133031   5.639   5.221   4.565  0.3427 -0.5833 -0.7631
 3872TIP3    H233032   5.534   5.189   4.460 -0.5359  0.8831 -0.3667
 3873TIP3   OH233033   1.851   2.711   0.590 -0.1308 -0.1272  0.0930
 3873TIP3    H133034   1.869   2.635   0.534  0.7312  0.5344 -0.5650
 3873TIP3    H233035   1.835   2.674   0.676 -2.5020 -1.2629 -0.7467
 3874TIP3   OH233036   0.584   0.311   2.071 -0.5679 -0.6492  0.0137
 3874TIP3    H133037   0.644   0.288   2.000 -0.3528  1.5630 -0.6044
 3874TIP3    H233038   0.640   0.353   2.136 -1.0443 -1.1052  0.7300
 3875TIP3   OH233039   4.407   4.967   4.362  0.0298  0.0288  0.4194
 3875TIP3    H133040   4.400   4.872   4.352  0.8104 -0.0100  0.1982
 3875TIP3    H233041   4.395   5.002   4.274 -0.8650  0.1796  0.5936
 3876TIP3   OH233042   3.701   2.117   5.030  0.0611  0.6388  0.0139
 3876TIP3    H133043   3.791   2.144   5.046 -0.4400  1.6558  1.2907
 3876TIP3    H233044   3.647   2.185   5.073 -1.2779 -1.0627  1.1823
 3877TIP3   OH233045   2.055   0.111  15.924  0.0810  0.1906 -0.3524
 3877TIP3    H133046   2.105   0.191  15.905 -0.2044  0.4985  0.1623
 3877TIP3    H233047   1.965   0.133  15.900 -0.1522  0.3302  0.6028
 3878TIP3   OH233048   0.636   4.535   0.958 -0.2408  0.2536 -0.1173
 3878TIP3    H133049   0.673   4.560   1.043  2.1754  0.1498 -1.0474
 3878TIP3    H233050   0.654   4.610   0.901 -1.9291  0.3746 -0.5516
 3879TIP3   OH233051   4.521   5.408   2.656 -0.3332  0.0277  0.0392
 3879TIP3    H133052   4.577   5.331   2.667 -0.0841  0.0330 -1.0582
 3879TIP3    H233053   4.472   5.389   2.576 -0.2799  1.0054 -0.2274
 3880TIP3   OH233054   3.597   5.464  14.550  0.4799  0.4554  0.0608
 3880TIP3    H133055   3.544   5.414  14.489 -0.6084  1.4809  0.1177
 3880TIP3    H233056   3.629   5.538  14.499 -0.8222  1.5793  0.7831
 3881TIP3   OH233057   5.638   2.611   0.785 -0.0497  0.4847 -0.0578
 3881TIP3    H133058   5.590   2.622   0.703  0.7133  1.3047 -0.4073
 3881TIP3    H233059   5.710   2.675   0.780  0.3557  0.1324  0.9850
 3882TIP3   OH233060   5.500   0.301  16.218  0.0300 -0.6534 -0.2770
 3882TIP3    H133061   5.589   0.266  16.210  0.1192 -0.1906 -1.6638
 3882TIP3    H233062   5.445   0.239  16.170 -0.3127 -0.6361  0.0897
 3883TIP3   OH233063   3.031   2.729   4.579  0.3687  0.1648  0.1562
 3883TIP3    H133064   3.006   2.642   4.547 -0.2239  1.2352 -2.6102
 3883TIP3    H233065   3.113   2.748   4.533 -0.4260  1.7366 -0.6891
 3884TIP3   OH233066   1.399   0.706  14.451  0.4988  0.0814 -0.0335
 3884TIP3    H133067   1.476   0.763  14.456  1.2244 -0.8822  0.0220
 3884TIP3    H233068   1.434   0.620  14.428 -0.6461 -0.2087 -0.7656
 3885TIP3   OH233069   1.169   4.839  16.288 -0.3196 -0.0447  0.1582
 3885TIP3    H133070   1.207   4.827  16.201 -1.5646 -1.2772 -0.2582
 3885TIP3    H233071   1.244   4.858  16.344  0.6635 -0.4461 -0.9599
 3886TIP3   OH233072   5.007   0.744  11.679 -0.0577  1.0211 -0.7007
 3886TIP3    H133073   4.933   0.804  11.673 -0.6919  0.4075  0.6487
 3886TIP3    H233074   5.063   0.782  11.747 -0.8192 -0.2631  0.6799
 3887TIP3   OH233075   4.209   5.319   1.125 -0.0890 -0.2085 -0.4009
 3887TIP3    H133076   4.146   5.259   1.086  0.4389 -0.7394 -0.4666
 3887TIP3    H233077   4.241   5.371   1.052 -1.7975  1.3647 -0.0866
 3888TIP3   OH233078   0.339   5.409  10.942  0.1053  0.6364  0.1053
 3888TIP3    H133079   0.349   5.343  11.011  1.1826  0.7530  0.0698
 3888TIP3    H233080   0.254   5.389  10.902 -0.9550  1.1049  2.0152
 3889TIP3   OH233081   0.516   3.062  11.707 -0.1176  0.7301  0.3040
 3889TIP3    H133082   0.504   3.148  11.667  0.2125 -0.0723 -1.6555
 3889TIP3    H233083   0.560   3.080  11.790  2.4770  2.3206 -1.2636
 3890TIP3   OH233084   6.062   0.893  11.998 -0.1688  0.3759  0.1088
 3890TIP3    H133085   6.034   0.980  11.969 -0.6274  0.6122  1.2179
 3890TIP3    H233086   6.135   0.872  11.941 -1.2046  0.6960 -1.3836
 3891TIP3   OH233087   4.979   1.512  10.765 -0.6779  0.0640  0.2513
 3891TIP3    H133088   4.976   1.523  10.860  0.3605  0.4408  0.2642
 3891TIP3    H233089   5.067   1.476  10.748 -0.1085  1.7622 -0.6969
 3892TIP3   OH233090   1.486   2.381  17.201  0.6709 -0.1938 -0.3130
 3892TIP3    H133091   1.424   2.393  17.128  0.6803 -0.3599 -0.3484
 3892TIP3    H233092   1.519   2.469  17.218 -0.5605  0.1273  0.5843
 3893TIP3   OH233093   4.809   1.474  11.974  0.3076  0.1404 -0.4752
 3893TIP3    H133094   4.784   1.552  11.925  1.7758  0.3799 -0.8988
 3893TIP3    H233095   4.782   1.492  12.064 -2.4274 -0.3011 -1.1276
 3894TIP3   OH233096   0.905   2.413   0.964 -0.6200 -0.0226 -0.6329
 3894TIP3    H133097   0.935   2.340   0.910 -0.8366  0.3847 -1.3162
 3894TIP3    H233098   0.871   2.477   0.902 -2.7648 -0.3930  0.0918
 3895TIP3   OH233099   0.050   5.475  11.875  0.0113  0.0477  0.2001
 3895TIP3    H133100  -0.022   5.415  11.857 -1.9218  2.7245 -1.9524
 3895TIP3    H233101   0.124   5.440  11.826 -0.9219 -0.8243 -0.6203
 3896TIP3   OH233102   2.304   1.946   0.070  0.0264  0.2719  0.1825
 3896TIP3    H133103   2.298   1.943  -0.025  0.7559  1.3474  0.0818
 3896TIP3    H233104   2.383   1.996   0.088 -0.0881  0.0719  1.3606
 3897TIP3   OH233105   5.957   3.807  16.758  0.6239  0.1555 -0.3838
 3897TIP3    H133106   6.008   3.732  16.727 -2.0005 -1.2784 -1.5646
 3897TIP3    H233107   5.908   3.774  16.833 -2.1444 -0.1116 -2.1461
 3898TIP3   OH233108   5.117   6.749  14.450  0.0621  0.2173 -0.3538
 3898TIP3    H133109   5.033   6.710  14.426  0.1922  1.2652 -2.7626
 3898TIP3    H233110   5.105   6.843  14.439  0.9682  0.5776  1.3238
 3899TIP3   OH233111   4.315   1.486  14.731  0.0066 -0.8679  0.0074
 3899TIP3    H133112   4.316   1.529  14.817 -1.7275 -0.6712 -0.0247
 3899TIP3    H233113   4.230   1.510  14.694  0.6817 -1.0427 -1.7308
 3900TIP3   OH233114   2.822   0.758   4.743 -0.5738  0.5267 -0.9434
 3900TIP3    H133115   2.797   0.825   4.678 -1.8047  0.4657 -0.5640
 3900TIP3    H233116   2.797   0.797   4.827  1.4503  0.8099 -0.4264
 3901TIP3   OH233117   4.450   0.109  15.695  0.2776 -0.2132  0.2349
 3901TIP3    H133118   4.467   0.070  15.609  0.4357  0.5338 -0.0808
 3901TIP3    H233119   4.440   0.034  15.753  4.3773 -0.8599  0.4433
 3902TIP3   OH233120   5.227   1.056   5.698  0.3893 -0.3686 -0.3973
 3902TIP3    H133121   5.263   1.021   5.780 -0.2980 -0.7063 -0.2296
 3902TIP3    H233122   5.235   1.151   5.707 -1.7584 -0.2523  1.0902
 3903TIP3   OH233123   5.125   2.619  12.317 -0.2833  0.3031  0.0059
 3903TIP3    H133124   5.071   2.635  12.239  0.0272 -1.3459 -0.5895
 3903TIP3    H233125   5.179   2.697  12.324 -1.0963  0.9669 -0.7780
 3904TIP3   OH233126   3.522   4.854  13.264 -0.4814  0.7329  0.0865
 3904TIP3    H133127   3.611   4.871  13.293 -0.6600  0.7712  0.6140
 3904TIP3    H233128   3.467   4.907  13.321 -0.8416  0.7666 -0.2826
 3905TIP3   OH233129   0.269   1.314   0.666 -0.0654 -0.6832  0.0449
 3905TIP3    H133130   0.278   1.361   0.749 -0.2879 -1.0816  0.3018
 3905TIP3    H233131   0.210   1.369   0.614  0.5398 -0.1397 -0.0775
 3906TIP3   OH233132   6.529   4.114  11.905 -0.2822 -0.3292  0.4528
 3906TIP3    H133133   6.454   4.084  11.956  0.3230 -1.1036  0.8987
 3906TIP3    H233134   6.591   4.042  11.907  0.2096  0.0421 -0.4784
 3907TIP3   OH233135   0.492   0.921   5.187  0.0016  0.3090  0.8366
 3907TIP3    H133136   0.481   0.873   5.105  0.8782  0.1393  0.8093
 3907TIP3    H233137   0.572   0.972   5.174  1.4336 -1.3949  2.3585
 3908TIP3   OH233138   3.272   3.702   0.595 -0.4505 -0.1918 -0.6937
 3908TIP3    H133139   3.230   3.668   0.516  0.2238 -1.4922 -0.5230
 3908TIP3    H233140   3.205   3.696   0.662 -0.6485 -0.2569 -0.8950
 3909TIP3   OH233141   4.789   4.484   4.886 -0.1783  0.6340 -0.2445
 3909TIP3    H133142   4.734   4.470   4.963 -1.1552  0.6804 -0.9332
 3909TIP3    H233143   4.874   4.509   4.923 -0.2991 -0.4784  0.8436
 3910TIP3   OH233144   2.554   3.637  12.683  0.3389  0.0574 -0.3824
 3910TIP3    H133145   2.506   3.554  12.689 -1.2808  1.0328  1.1810
 3910TIP3    H233146   2.643   3.615  12.709 -0.0906 -1.1870  0.1142
 3911TIP3   OH233147   4.885   2.372  15.729  0.2762  0.0120 -0.4358
 3911TIP3    H133148   4.920   2.447  15.682  1.1441 -0.2521 -0.2303
 3911TIP3    H233149   4.886   2.301  15.666 -0.3874  0.1266 -0.5809
 3912TIP3   OH233150   3.310   0.737   2.906  1.1487  0.8285  0.8340
 3912TIP3    H133151   3.321   0.827   2.874  2.4410  0.3877 -0.0096
 3912TIP3    H233152   3.375   0.686   2.859 -0.5490 -0.8621  0.1792
 3913TIP3   OH233153   2.184   5.340  14.433 -0.4625  0.1143  0.3043
 3913TIP3    H133154   2.181   5.247  14.452  0.4614  0.2619  1.2563
 3913TIP3    H233155   2.095   5.371  14.450 -0.3266 -0.2623  1.8432
 3914TIP3   OH233156   5.983   1.240   5.642 -0.0889  0.1125 -0.6645
 3914TIP3    H133157   6.037   1.204   5.572  1.6261  2.6914 -0.7828
 3914TIP3    H233158   6.014   1.329   5.653 -0.6170 -0.0151  3.0969
 3915TIP3   OH233159   0.654   5.795   1.785  0.6678  0.5560 -0.5153
 3915TIP3    H133160   0.665   5.725   1.849 -0.1460 -0.6508 -1.6554
 3915TIP3    H233161   0.738   5.841   1.785  1.0985 -0.1895  0.4941
 3916TIP3   OH233162   6.254   4.097  10.356 -0.4935  0.2421  0.1383
 3916TIP3    H133163   6.274   4.003  10.362 -0.2292  0.2373 -0.7363
 3916TIP3    H233164   6.170   4.106  10.401 -0.6393 -0.4543  0.0155
 3917TIP3   OH233165   4.203   4.922  15.841  0.1273 -0.1456  0.1657
 3917TIP3    H133166   4.257   4.990  15.799  1.2258  0.7139  2.7420
 3917TIP3    H233167   4.261   4.846  15.846 -0.3936 -0.6174 -0.8701
 3918TIP3   OH233168   5.735   4.927   4.807  0.7271 -0.0966  0.1547
 3918TIP3    H133169   5.706   4.914   4.717 -2.1305  2.0402  0.6147
 3918TIP3    H233170   5.796   5.001   4.803 -0.4167  0.8731  0.0547
 3919TIP3   OH233171   6.648   6.699  11.404 -0.0937  0.7204 -0.3481
 3919TIP3    H133172   6.625   6.607  11.403 -0.1820  0.7238  0.6065
 3919TIP3    H233173   6.744   6.700  11.408 -0.1171  0.6631  0.2430
 3920TIP3   OH233174   0.168   4.757  11.317  0.9806  0.0067  0.2418
 3920TIP3    H133175   0.253   4.718  11.338  1.1235 -0.6201 -1.3454
 3920TIP3    H233176   0.157   4.740  11.224 -1.2419 -0.5999  0.5719
 3921TIP3   OH233177   3.781   0.996  16.863 -0.3691 -0.4568 -0.4900
 3921TIP3    H133178   3.694   0.970  16.895  0.0205  0.7145  1.7479
 3921TIP3    H233179   3.786   1.090  16.880  2.1403 -0.8637  1.6418
 3922TIP3   OH233180   6.507   5.468  15.308  0.0001  0.0551 -0.1579
 3922TIP3    H133181   6.583   5.483  15.253 -0.0757  0.9245 -0.0490
 3922TIP3    H233182   6.432   5.491  15.253 -0.1669 -0.4442 -0.1461
 3923TIP3   OH233183   1.204   3.617  12.835  0.1912 -0.0163 -0.0273
 3923TIP3    H133184   1.187   3.680  12.904 -2.6136 -1.2668  0.5803
 3923TIP3    H233185   1.205   3.532  12.879 -0.5198 -0.7394 -1.3333
 3924TIP3   OH233186   5.206   4.476  11.587  0.9527  0.1976 -0.4161
 3924TIP3    H133187   5.296   4.501  11.569  0.7241  0.3803 -1.3706
 3924TIP3    H233188   5.159   4.559  11.595  0.7030  0.1053 -0.8658
 3925TIP3   OH233189   1.058   4.943   0.290  0.7176 -0.2166  0.5038
 3925TIP3    H133190   1.151   4.919   0.289  1.2283  1.6031  0.2268
 3925TIP3    H233191   1.018   4.886   0.224  1.8983 -0.1294 -0.3171
 3926TIP3   OH233192   0.501   0.112   5.211 -0.1841  0.2817 -0.3574
 3926TIP3    H133193   0.419   0.094   5.256 -0.1769  1.2077  0.0460
 3926TIP3    H233194   0.542   0.026   5.199 -1.6144 -0.2878 -1.3689
 3927TIP3   OH233195   3.497   2.302   1.238  0.1390 -0.5618 -0.3028
 3927TIP3    H133196   3.551   2.381   1.243  0.7740 -1.0309  0.8883
 3927TIP3    H233197   3.416   2.326   1.282  1.7724 -1.5963  3.7633
 3928TIP3   OH233198   0.719   2.399   4.303 -0.3516  0.1194  0.7306
 3928TIP3    H133199   0.765   2.471   4.346  1.3400 -1.1109  1.0533
 3928TIP3    H233200   0.629   2.431   4.293  0.5268  2.5933  0.0789
 3929TIP3   OH233201   2.538   3.974   1.903 -0.2772 -0.3384  0.1338
 3929TIP3    H133202   2.504   3.898   1.855  1.8968 -1.8163  0.8074
 3929TIP3    H233203   2.495   3.969   1.989 -1.6581  0.4021 -0.4845
 3930TIP3   OH233204   0.093   5.891  11.401 -0.2232  0.7595 -0.5267
 3930TIP3    H133205   0.083   5.832  11.475 -3.8546  1.2389 -0.4271
 3930TIP3    H233206   0.018   5.951  11.408  1.2113  3.0117 -2.6768
 3931TIP3   OH233207   4.113   4.267  15.704 -0.1139  0.2298 -0.8056
 3931TIP3    H133208   4.114   4.172  15.707 -1.4257  0.2031 -0.8292
 3931TIP3    H233209   4.029   4.290  15.665 -0.4551  1.4218  0.5446
 3932TIP3   OH233210   1.409   3.881  11.201 -0.3269  0.4395  0.1750
 3932TIP3    H133211   1.331   3.855  11.152  0.6234 -2.3523 -0.0298
 3932TIP3    H233212   1.435   3.964  11.162 -2.8497  1.1916 -0.1021
 3933TIP3   OH233213   3.080   3.930   6.105  0.5260 -0.2284  0.1946
 3933TIP3    H133214   3.107   4.005   6.053  0.5889  0.3215  0.9943
 3933TIP3    H233215   3.045   3.868   6.041 -0.0519  0.7068 -0.4406
 3934TIP3   OH233216   6.059   1.420   4.278  0.1593  0.2552  0.8542
 3934TIP3    H133217   6.038   1.506   4.314  2.3179  1.4706 -0.4939
 3934TIP3    H233218   6.130   1.387   4.334  0.0734 -0.1419  0.7330
 3935TIP3   OH233219   4.882   4.471  15.791 -0.2319 -0.0512 -0.2413
 3935TIP3    H133220   4.955   4.432  15.743 -1.8870 -0.5796 -2.4908
 3935TIP3    H233221   4.885   4.564  15.767 -0.2262 -0.0500 -0.2354
 3936TIP3   OH233222   1.273   4.517   0.365 -0.3078 -0.6466 -0.0960
 3936TIP3    H133223   1.183   4.531   0.335 -0.2357 -0.0774 -0.0404
 3936TIP3    H233224   1.316   4.472   0.291 -0.2040  0.5095 -0.7549
 3937TIP3   OH233225   2.202   6.081   1.329 -0.9625 -0.0464 -0.0799
 3937TIP3    H133226   2.180   6.154   1.388  0.3393  0.3625 -0.0711
 3937TIP3    H233227   2.282   6.043   1.367 -0.0727  0.2501 -1.5837
 3938TIP3   OH233228   5.638   4.021  14.449 -0.5278 -0.3180 -0.3707
 3938TIP3    H133229   5.652   3.927  14.435  0.9157 -0.5496  2.1918
 3938TIP3    H233230   5.636   4.031  14.544 -2.3749  2.0535 -0.5728
 3939TIP3   OH233231   0.465   4.021  11.477 -0.2545 -0.2347  0.0478
 3939TIP3    H133232   0.459   3.932  11.511  0.3947 -0.2572  0.1094
 3939TIP3    H233233   0.486   4.010  11.385 -2.6942 -0.1910 -0.5778
 3940TIP3   OH233234   3.496   6.259  15.429  0.1307 -0.1699 -0.3585
 3940TIP3    H133235   3.488   6.332  15.491 -0.3781  0.0837 -0.7102
 3940TIP3    H233236   3.567   6.205  15.464 -1.0593 -0.7797  1.2059
 3941TIP3   OH233237   4.131   6.548   5.401  0.3115  0.8037  0.4196
 3941TIP3    H133238   4.043   6.568   5.431  0.3675  1.0766  0.4051
 3941TIP3    H233239   4.127   6.557   5.306  0.1798  0.1168  0.3519
 3942TIP3   OH233240   3.213   5.412   3.739 -0.1607  0.4508 -0.2020
 3942TIP3    H133241   3.123   5.406   3.769 -0.5415  0.4081 -1.3303
 3942TIP3    H233242   3.260   5.347   3.792 -0.8973  0.0636 -0.0071
 3943TIP3   OH233243   2.815   5.344  11.267 -0.0755 -0.1287 -0.2288
 3943TIP3    H133244   2.789   5.254  11.245  0.6999 -0.5116  0.3958
 3943TIP3    H233245   2.758   5.399  11.213  0.3482 -1.0044 -1.6253
 3944TIP3   OH233246   4.222   2.887   0.872 -0.2267 -0.1342  0.0651
 3944TIP3    H133247   4.270   2.940   0.808 -0.3753  2.0512  1.6545
 3944TIP3    H233248   4.243   2.796   0.849  3.2867  0.6645 -0.4135
 3945TIP3   OH233249   1.190   4.267  13.218  0.6214  0.5453  0.5589
 3945TIP3    H133250   1.115   4.216  13.189  0.8293 -0.7518  2.2101
 3945TIP3    H233251   1.263   4.205  13.218  1.2435  1.2599  0.9932
 3946TIP3   OH233252   1.700   3.221   5.927  0.1785 -0.5996 -0.7082
 3946TIP3    H133253   1.745   3.303   5.949 -0.2902 -0.2755 -0.9501
 3946TIP3    H233254   1.665   3.189   6.010 -0.8826  0.1973 -0.8310
 3947TIP3   OH233255   2.217   4.906  15.230 -0.3802 -0.0937  0.7045
 3947TIP3    H133256   2.176   4.830  15.188 -0.6353  1.7321 -2.6945
 3947TIP3    H233257   2.302   4.874  15.261 -0.9158 -1.9825  0.3344
 3948TIP3   OH233258   5.281   6.379  15.724 -0.1000  0.5814 -0.2238
 3948TIP3    H133259   5.292   6.469  15.753 -1.5159  0.7055  0.0300
 3948TIP3    H233260   5.310   6.378  15.633 -2.8367  2.0634 -1.2517
 3949TIP3   OH233261   2.258   2.154   3.077  0.3514  0.0568  0.5541
 3949TIP3    H133262   2.271   2.094   3.150  1.3325 -0.8778 -0.3584
 3949TIP3    H233263   2.180   2.120   3.032  0.4801 -0.1010  0.4510
 3950TIP3   OH233264   2.808   1.779   0.952 -0.0533 -0.0597 -0.2237
 3950TIP3    H133265   2.816   1.689   0.984  3.0870 -0.2344 -1.1326
 3950TIP3    H233266   2.790   1.770   0.858 -1.2262  0.3346 -0.0583
 3951TIP3   OH233267   4.717   2.923   4.103  0.2016 -0.0430 -0.3470
 3951TIP3    H133268   4.714   2.840   4.055  1.8235 -0.2760 -0.1069
 3951TIP3    H233269   4.803   2.924   4.145  0.6502  2.2021 -1.1397
 3952TIP3   OH233270   6.138   0.374  11.374 -0.2142 -0.0094  0.8352
 3952TIP3    H133271   6.197   0.397  11.446 -0.5570 -1.1402  1.4981
 3952TIP3    H233272   6.084   0.451  11.362  0.2164  0.3968  1.4268
 3953TIP3   OH233273   1.081   0.113   5.550  0.0580  0.0257  0.2867
 3953TIP3    H133274   1.150   0.172   5.521 -0.9262 -0.1853 -2.9701
 3953TIP3    H233275   1.124   0.030   5.564  0.9053  0.6277  1.3457
 3954TIP3   OH233276   1.485   4.913   5.667 -0.2663 -0.3886  0.1618
 3954TIP3    H133277   1.486   4.817   5.675  0.5711 -0.3599  0.5057
 3954TIP3    H233278   1.412   4.940   5.723 -0.6052 -0.8342 -0.0579
 3955TIP3   OH233279   3.604   0.752  16.856 -0.9108 -0.1881  0.2030
 3955TIP3    H133280   3.633   0.686  16.919  0.7585  0.4087  0.1174
 3955TIP3    H233281   3.571   0.824  16.910 -2.8767 -1.1137  0.2945
 3956TIP3   OH233282   1.992   3.020  12.178 -0.3631  0.2593 -0.0456
 3956TIP3    H133283   1.944   2.949  12.136 -1.2531  0.1030  1.1743
 3956TIP3    H233284   1.983   3.003  12.272  1.5913  0.5762  0.2377
 3957TIP3   OH233285   0.675   6.678   4.703 -0.4063  0.0243  1.0122
 3957TIP3    H133286   0.726   6.597   4.699 -0.9818 -0.3493  1.0484
 3957TIP3    H233287   0.636   6.686   4.616 -0.0917  0.4446  0.9040
 3958TIP3   OH233288   3.642   0.402   1.727 -0.6627 -0.1845  0.5454
 3958TIP3    H133289   3.614   0.469   1.665 -1.5770 -0.0749  1.0627
 3958TIP3    H233290   3.611   0.320   1.689 -1.0801 -0.1334  0.7692
 3959TIP3   OH233291   1.456   0.807  15.820 -0.2840 -0.0385  0.0755
 3959TIP3    H133292   1.545   0.823  15.789 -0.7374 -0.2946 -1.4560
 3959TIP3    H233293   1.422   0.739  15.761 -1.5602  0.1942  0.5100
 3960TIP3   OH233294   6.155   2.912  16.362 -0.1267  0.0534  0.3277
 3960TIP3    H133295   6.242   2.940  16.332  0.3186 -0.7383  0.8344
 3960TIP3    H233296   6.154   2.818  16.347 -0.5192 -0.1048  1.2642
 3961TIP3   OH233297   1.346   1.514   5.163 -0.3738  0.0774  0.0115
 3961TIP3    H133298   1.417   1.531   5.224 -0.0495 -0.9525 -0.0638
 3961TIP3    H233299   1.354   1.583   5.097 -0.7606  1.2364  1.1254
 3962TIP3   OH233300   1.991   4.692  15.934  0.6946  0.0031  1.2201
 3962TIP3    H133301   1.996   4.642  15.853 -0.1735 -0.3293  1.3562
 3962TIP3    H233302   2.059   4.758  15.926  0.8309 -0.2305  0.3603
 3963TIP3   OH233303   4.381   3.016  11.839  0.3420 -0.3185 -0.1892
 3963TIP3    H133304   4.339   3.002  11.754 -0.4569  0.3512  0.0756
 3963TIP3    H233305   4.398   2.928  11.873  1.3452 -0.5940 -1.3533
 3964TIP3   OH233306   0.137   5.361   2.361 -0.1564 -0.2415 -0.2664
 3964TIP3    H133307   0.062   5.385   2.415 -0.7150 -0.7206 -0.8222
 3964TIP3    H233308   0.191   5.306   2.418 -0.1520  0.2171  0.1759
 3965TIP3   OH233309   3.612   2.853  13.953  0.3188  0.0425 -0.3665
 3965TIP3    H133310   3.653   2.939  13.947 -0.2754  0.5269  1.5148
 3965TIP3    H233311   3.672   2.794  13.909  1.1109  1.3031 -1.0425
 3966TIP3   OH233312   1.070   3.114  14.693  0.3551 -0.2298 -0.2849
 3966TIP3    H133313   1.047   3.133  14.602 -2.2883 -0.4243  0.2603
 3966TIP3    H233314   1.156   3.071  14.687  1.4375  1.9391 -2.4243
 3967TIP3   OH233315   2.566   2.517  11.853 -0.1265 -0.4922 -0.0542
 3967TIP3    H133316   2.531   2.599  11.889  0.6147 -0.4680  0.6342
 3967TIP3    H233317   2.653   2.540  11.821  0.8369 -1.3742  1.7814
 3968TIP3   OH233318   1.608   1.362  15.412 -0.6071  0.2070  0.5999
 3968TIP3    H133319   1.556   1.288  15.383 -0.1149  0.2547 -0.4513
 3968TIP3    H233320   1.545   1.434  15.422 -1.0174 -0.2275  1.2226
 3969TIP3   OH233321   2.371   6.596   1.938 -0.3378  0.3353  0.6877
 3969TIP3    H133322   2.312   6.637   1.875 -0.4252 -1.0648 -0.1734
 3969TIP3    H233323   2.454   6.587   1.892  0.3808  1.6648  1.6644
 3970TIP3   OH233324   4.612   0.916  14.953  0.1058 -0.1755 -0.1598
 3970TIP3    H133325   4.580   0.827  14.939  0.2186 -0.3633  0.7649
 3970TIP3    H233326   4.565   0.968  14.888  0.7200 -1.0375 -1.3501
 3971TIP3   OH233327   6.463   1.789   0.162  0.5529 -0.1691 -0.4109
 3971TIP3    H133328   6.450   1.790   0.067  0.6163 -0.1885 -0.4198
 3971TIP3    H233329   6.553   1.759   0.173  0.5499 -0.1539 -0.3453
 3972TIP3   OH233330   4.486   4.071  12.522 -0.0670  0.0429  0.1636
 3972TIP3    H133331   4.426   4.087  12.449  0.4138  1.2563  0.0214
 3972TIP3    H233332   4.433   4.023  12.585 -0.5835 -0.7457 -0.8373
 3973TIP3   OH233333   4.687   1.601  15.275 -0.2926  0.2851  0.5874
 3973TIP3    H133334   4.650   1.579  15.190 -0.4738 -0.0743  0.7581
 3973TIP3    H233335   4.679   1.697  15.280 -0.3793  0.2972  0.2489
 3974TIP3   OH233336   5.831   3.727   2.448 -0.2077  0.2777  0.0291
 3974TIP3    H133337   5.830   3.684   2.533 -3.9988 -1.3596 -0.6576
 3974TIP3    H233338   5.795   3.814   2.465  0.0440  0.3466  0.2226
 3975TIP3   OH233339   6.143   0.985  15.396 -0.8871 -0.1491  0.0434
 3975TIP3    H133340   6.092   0.945  15.465 -0.0407 -2.9701 -0.8555
 3975TIP3    H233341   6.084   0.989  15.321 -1.5671  2.2135  0.6166
 3976TIP3   OH233342   3.509   4.909   2.136  0.7581  0.3169 -0.4718
 3976TIP3    H133343   3.413   4.907   2.136  0.6692  1.9883 -2.0846
 3976TIP3    H233344   3.534   4.822   2.167 -1.2404  0.2556  1.2255
 3977TIP3   OH233345   6.128   0.283  13.964  0.2040 -0.1009 -0.2059
 3977TIP3    H133346   6.066   0.346  13.928  1.8533  2.1384  0.6248
 3977TIP3    H233347   6.146   0.314  14.052  4.5098  1.0644 -1.2587
 3978TIP3   OH233348   2.437   1.130  15.887 -0.5786  0.2141 -0.4744
 3978TIP3    H133349   2.435   1.098  15.796 -1.6933  1.3575 -0.8883
 3978TIP3    H233350   2.529   1.149  15.903 -0.5109  1.1882 -1.8288
 3979TIP3   OH233351   2.684   2.847  17.193  0.0656 -0.2405  0.0326
 3979TIP3    H133352   2.637   2.885  17.118  0.2248  0.5521  0.3314
 3979TIP3    H233353   2.616   2.828  17.257  0.2055  1.8276  0.8706
 3980TIP3   OH233354   1.929   4.109  17.003  0.1189  0.1238  0.0329
 3980TIP3    H133355   1.864   4.154  16.950  0.2454  0.5055  0.2038
 3980TIP3    H233356   1.937   4.022  16.962  0.4635  0.5316 -0.7861
 3981TIP3   OH233357   3.710   4.691   1.187  0.7162 -0.0557  0.1115
 3981TIP3    H133358   3.690   4.681   1.094  2.0570  0.1597 -0.2137
 3981TIP3    H233359   3.625   4.711   1.227  0.5049  2.7498 -1.4753
 3982TIP3   OH233360   0.405   4.079  12.542  0.1660 -0.5903 -0.7795
 3982TIP3    H133361   0.396   4.174  12.530  0.2395 -0.4753  0.0184
 3982TIP3    H233362   0.480   4.069  12.600 -1.6629 -0.9462  1.7070
 3983TIP3   OH233363   3.686   3.652  16.091  0.0335 -0.3144 -0.1490
 3983TIP3    H133364   3.692   3.709  16.015  0.7329 -1.0740 -0.6806
 3983TIP3    H233365   3.777   3.644  16.122  0.3076 -2.7942 -1.3527
 3984TIP3   OH233366   5.007   6.017   3.982 -0.9028  0.3434  0.1039
 3984TIP3    H133367   4.922   5.991   4.018 -0.8917 -0.4962 -0.4516
 3984TIP3    H233368   5.024   5.954   3.913  0.0758  0.6448  0.0540
 3985TIP3   OH233369   1.903   2.455  14.307  0.9465  0.2597  0.2903
 3985TIP3    H133370   1.811   2.461  14.280  0.9555 -0.0006  0.2088
 3985TIP3    H233371   1.943   2.535  14.273  0.7965  0.2747  0.1507
 3986TIP3   OH233372   4.898   1.634  14.413 -0.1720 -0.9118 -0.5477
 3986TIP3    H133373   4.844   1.576  14.360 -3.3247 -0.2320  1.6562
 3986TIP3    H233374   4.922   1.581  14.490  1.5564 -0.8648 -0.9978
 3987TIP3   OH233375   1.842   0.194   2.827 -0.1946  0.4074  0.2707
 3987TIP3    H133376   1.901   0.121   2.808  0.6434  1.5424 -1.9289
 3987TIP3    H233377   1.856   0.213   2.920  0.9350 -1.0327  0.4357
 3988TIP3   OH233378   6.177   1.644   2.427 -0.0756  0.5261  0.6080
 3988TIP3    H133379   6.188   1.610   2.516 -1.7240 -0.3962  0.4858
 3988TIP3    H233380   6.251   1.609   2.378 -0.6261 -1.2460  0.9802
 3989TIP3   OH233381   3.460   0.361   5.864  0.9716  0.2920  0.2004
 3989TIP3    H133382   3.516   0.363   5.941 -1.1330 -0.3104  1.8755
 3989TIP3    H233383   3.419   0.447   5.862  1.0974  0.3424 -0.3204
 3990TIP3   OH233384   6.381   0.916   2.840 -0.2199  1.1017 -0.3575
 3990TIP3    H133385   6.290   0.914   2.810 -0.0830 -1.8815 -0.8251
 3990TIP3    H233386   6.379   0.972   2.918 -2.5489  0.7408 -0.0943
 3991TIP3   OH233387   5.532   5.750  11.745  0.5028  0.3382 -0.0801
 3991TIP3    H133388   5.510   5.729  11.654  0.8814  0.7724 -0.2769
 3991TIP3    H233389   5.462   5.808  11.775  0.6088  0.5510 -0.2402
 3992TIP3   OH233390   2.742   2.599  14.060  0.1404 -0.1422  0.1105
 3992TIP3    H133391   2.825   2.645  14.047  0.1709 -0.5675 -1.3531
 3992TIP3    H233392   2.731   2.546  13.981 -2.0812  0.7311 -0.2222
 3993TIP3   OH233393   1.990   2.739  14.330 -0.3079 -0.1962  0.0725
 3993TIP3    H133394   2.081   2.716  14.347  0.2365  2.8486  1.9800
 3993TIP3    H233395   1.956   2.767  14.415 -2.8133 -0.4233 -0.7639
 3994TIP3   OH233396   5.040   0.116   3.689  0.3283 -0.2626  0.1705
 3994TIP3    H133397   5.064   0.141   3.600 -0.6993  1.3383  0.3117
 3994TIP3    H233398   5.016   0.024   3.683  2.2012 -0.7324 -0.8004
 3995TIP3   OH233399   0.889   2.334  11.200  0.0402  0.2285  0.1925
 3995TIP3    H133400   0.915   2.251  11.161  2.4856  0.2644  1.5284
 3995TIP3    H233401   0.828   2.310  11.270  0.6444 -0.4597  0.4986
 3996TIP3   OH233402   1.441   5.825  17.318  0.4528  0.0578  0.5442
 3996TIP3    H133403   1.525   5.791  17.289  0.4075  0.7187 -0.3836
 3996TIP3    H233404   1.377   5.757  17.294  0.6180 -0.1194  0.6013
 3997TIP3   OH233405   4.034   0.090   5.822 -0.0636 -0.1764  0.2711
 3997TIP3    H133406   4.108   0.032   5.842 -0.0320 -0.1721  0.1680
 3997TIP3    H233407   3.986   0.096   5.905  0.6106  0.6304  0.6180
 3998TIP3   OH233408   4.840   5.010   1.023  0.1821 -0.2991  0.3777
 3998TIP3    H133409   4.754   5.013   1.065  0.8200  1.0054  1.7055
 3998TIP3    H233410   4.886   5.086   1.058  1.3557 -0.0949 -1.4892
 3999TIP3   OH233411   0.374   5.581   5.860  0.2018 -0.1083 -0.4636
 3999TIP3    H133412   0.406   5.520   5.926 -1.2508 -1.0475 -0.5716
 3999TIP3    H233413   0.281   5.592   5.882  0.8191  3.8410  0.9046
 4000TIP3   OH233414   1.616   1.203   1.888 -0.4106 -0.3598  0.4747
 4000TIP3    H133415   1.627   1.118   1.930  1.0929 -0.2131  0.4291
 4000TIP3    H233416   1.677   1.202   1.814 -2.9462 -0.6040 -1.8025
 4001TIP3   OH233417   3.247   0.906  17.068  0.7074 -0.3043 -0.1088
 4001TIP3    H133418   3.166   0.956  17.077  1.9945  1.5676  1.9223
 4001TIP3    H233419   3.250   0.850  17.146  1.6658  0.1194  0.1696
 4002TIP3   OH233420   0.639   2.435   2.374  0.9529 -0.4870 -0.0157
 4002TIP3    H133421   0.672   2.492   2.443  0.2736  0.6721 -0.6315
 4002TIP3    H233422   0.547   2.458   2.365  0.8848 -1.0592 -0.8924
 4003TIP3   OH233423   4.743   2.189   5.762  0.1052  0.0786 -0.8685
 4003TIP3    H133424   4.758   2.278   5.730 -0.8138  0.8212  0.6452
 4003TIP3    H233425   4.787   2.186   5.847  0.3919 -1.0251 -1.0486
 4004TIP3   OH233426   5.321   4.068  15.304 -0.3015 -0.0313  0.3449
 4004TIP3    H133427   5.269   4.135  15.260 -1.9534 -1.6934 -0.4051
 4004TIP3    H233428   5.269   4.043  15.380  0.0924 -0.7117  0.3989
 4005TIP3   OH233429   4.769   1.360   1.793  0.0138  0.3256 -0.8281
 4005TIP3    H133430   4.854   1.326   1.764 -0.3100 -0.6481 -0.6725
 4005TIP3    H233431   4.739   1.296   1.857 -1.2342  0.1859 -1.5323
 4006TIP3   OH233432   3.335   6.630  12.167 -0.1181 -0.0488 -0.3138
 4006TIP3    H133433   3.354   6.683  12.090  0.3685  0.3580  0.0792
 4006TIP3    H233434   3.324   6.542  12.133  1.2528 -0.0935 -0.7263
 4007TIP3   OH233435   4.608   2.176  17.269 -1.0014 -0.0528  0.2943
 4007TIP3    H133436   4.612   2.085  17.237 -1.6625  0.4124 -1.2214
 4007TIP3    H233437   4.525   2.181  17.317 -1.3780 -0.0405 -0.3468
 4008TIP3   OH233438   0.627   1.855  14.774  0.6795  0.6158 -0.3245
 4008TIP3    H133439   0.662   1.782  14.826  0.9697  1.2716  0.4261
 4008TIP3    H233440   0.602   1.920  14.839 -1.3919  0.4261 -0.8791
 4009TIP3   OH233441   2.454   3.595   6.296 -0.4575 -0.4164 -0.3201
 4009TIP3    H133442   2.380   3.654   6.288 -0.2947 -0.2951 -0.9313
 4009TIP3    H233443   2.522   3.647   6.338 -0.5101 -0.3472 -0.3214
 4010TIP3   OH233444   3.390   2.280  15.496 -0.1942  0.0426  0.2378
 4010TIP3    H133445   3.400   2.250  15.406  1.4040  1.2367 -0.0277
 4010TIP3    H233446   3.302   2.319  15.498  0.3695  1.5661 -1.3369
 4011TIP3   OH233447   6.369   1.390   2.490  0.0137 -0.4327 -0.6383
 4011TIP3    H133448   6.425   1.321   2.453  1.4483  0.2427  0.1995
 4011TIP3    H233449   6.324   1.348   2.563  1.1647 -0.4112  0.1033
 4012TIP3   OH233450   6.681   5.280  15.967 -0.9284  0.0801  0.0406
 4012TIP3    H133451   6.713   5.316  15.885 -1.3493  1.3449  0.4112
 4012TIP3    H233452   6.616   5.215  15.941 -1.9386  1.3229 -0.6164
 4013TIP3   OH233453   0.762   0.815  15.944 -0.1578 -0.2605 -0.0131
 4013TIP3    H133454   0.820   0.789  15.873  0.3533 -0.0623  0.3277
 4013TIP3    H233455   0.770   0.910  15.948  1.3517 -0.4098  1.5819
 4014TIP3   OH233456   6.506   2.225  13.755  0.4291  0.0954 -0.0926
 4014TIP3    H133457   6.467   2.204  13.840  0.7592 -0.8917 -0.1779
 4014TIP3    H233458   6.549   2.310  13.769 -1.1900  0.9087  0.1716
 4015TIP3   OH233459   3.648   0.253   3.375 -0.1247 -0.0435 -0.3485
 4015TIP3    H133460   3.640   0.287   3.464  2.0146 -1.8772  0.6393
 4015TIP3    H233461   3.699   0.318   3.328  1.7149 -0.5798  0.7983
 4016TIP3   OH233462   2.349   5.826   5.456  0.2239  0.2997  0.2175
 4016TIP3    H133463   2.428   5.784   5.422  1.5035  2.4480  0.3640
 4016TIP3    H233464   2.348   5.803   5.549  1.3220  1.1183  0.4613
 4017TIP3   OH233465   6.593   0.283  16.439 -0.1977 -0.0424 -0.4740
 4017TIP3    H133466   6.504   0.316  16.446 -0.0105  0.0918  1.9891
 4017TIP3    H233467   6.646   0.360  16.418 -0.5385  0.0214 -1.1224
 4018TIP3   OH233468   0.305   3.705   4.994 -0.0411  0.2030  0.5669
 4018TIP3    H133469   0.274   3.641   4.930  1.6405  1.9631 -2.1928
 4018TIP3    H233470   0.238   3.774   4.993  1.1127  1.3863 -1.2631
 4019TIP3   OH233471   4.767   6.575   0.779 -0.2368  0.0922 -0.3504
 4019TIP3    H133472   4.842   6.516   0.789  0.6009  1.2955  0.7872
 4019TIP3    H233473   4.702   6.523   0.732 -0.6615 -2.7620  2.9897
 4020TIP3   OH233474   6.692   4.034   3.420 -0.2255 -0.5938  0.5320
 4020TIP3    H133475   6.616   4.072   3.375  0.1755  0.0659  0.4104
 4020TIP3    H233476   6.670   3.941   3.427 -0.8834 -0.4780  0.1604
 4021TIP3   OH233477   3.396   3.449  15.259 -0.3040  0.7040  0.4131
 4021TIP3    H133478   3.366   3.451  15.350 -1.9868  1.2659 -0.1042
 4021TIP3    H233479   3.323   3.410  15.211 -0.0428  1.7375 -0.8859
 4022TIP3   OH233480   0.495   0.653  12.668 -0.1596 -0.0529  0.0496
 4022TIP3    H133481   0.495   0.721  12.734 -0.0712  0.1217 -0.1274
 4022TIP3    H233482   0.461   0.575  12.712  0.6228 -0.1401  0.5088
 4023TIP3   OH233483   3.005   5.529   3.393 -0.4768  0.6450  0.0784
 4023TIP3    H133484   3.042   5.447   3.426 -2.6915 -0.4854 -0.0830
 4023TIP3    H233485   3.077   5.592   3.400  1.5997 -1.4863 -0.6329
 4024TIP3   OH233486   2.875   0.296  17.086 -0.2986 -0.1772 -0.9479
 4024TIP3    H133487   2.950   0.354  17.097 -0.2731 -0.3452 -0.1902
 4024TIP3    H233488   2.821   0.310  17.164  0.0506 -1.6458 -0.4029
 4025TIP3   OH233489   6.467   4.555  17.092 -0.7686 -0.0774  0.0946
 4025TIP3    H133490   6.421   4.626  17.136 -0.5184 -0.2421  0.6373
 4025TIP3    H233491   6.397   4.494  17.066 -1.3487  1.7772 -3.1674
 4026TIP3   OH233492   1.680   1.060  12.665 -0.2232  0.3496 -0.0315
 4026TIP3    H133493   1.641   1.091  12.747  1.7238 -0.2854  1.2060
 4026TIP3    H233494   1.774   1.063  12.681  0.1833 -0.5466 -1.9946
 4027TIP3   OH233495   1.965   5.710  15.563 -0.2267 -0.3305 -0.2445
 4027TIP3    H133496   1.875   5.739  15.574  0.0175  0.5000 -0.3918
 4027TIP3    H233497   2.008   5.731  15.646  0.2421  0.8484 -0.7622
 4028TIP3   OH233498   0.122   4.262  13.186  0.0711 -0.1400 -0.0257
 4028TIP3    H133499   0.043   4.315  13.192  0.6261  0.7309 -0.2009
 4028TIP3    H233500   0.091   4.173  13.171 -0.8563  0.3031 -0.8102
 4029TIP3   OH233501   5.606   3.459   6.835  0.4605  0.7467 -0.0360
 4029TIP3    H133502   5.569   3.546   6.852  1.0675  0.9261  0.4073
 4029TIP3    H233503   5.691   3.460   6.879  0.0497 -0.4154  0.8466
 4030TIP3   OH233504   3.987   0.191  11.940 -0.2809 -0.8476 -0.2221
 4030TIP3    H133505   3.925   0.257  11.908  1.4345  1.5108  0.9396
 4030TIP3    H233506   3.947   0.157  12.020 -0.7454 -0.3962 -0.2568
 4031TIP3   OH233507   1.941   5.506   2.885 -0.4634 -0.0834  0.1135
 4031TIP3    H133508   2.023   5.553   2.899 -1.5280  1.5109  1.4275
 4031TIP3    H233509   1.940   5.438   2.952 -0.8562  0.8549  1.0824
 4032TIP3   OH233510   0.437   5.179   3.419 -0.3927  0.8024 -0.1611
 4032TIP3    H133511   0.352   5.156   3.456  0.4475  0.6076  1.7532
 4032TIP3    H233512   0.472   5.245   3.478  0.9842  0.5602 -0.6752
 4033TIP3   OH233513   4.527   5.895   5.182  0.0626  0.0372 -0.2066
 4033TIP3    H133514   4.575   5.909   5.100 -0.4397 -2.2025 -0.9665
 4033TIP3    H233515   4.551   5.806   5.208 -1.8654 -0.2724  0.6454
 4034TIP3   OH233516   3.138   5.282  12.617 -0.3722 -0.2663 -0.2830
 4034TIP3    H133517   3.230   5.287  12.644 -0.0875  0.4288 -1.3147
 4034TIP3    H233518   3.104   5.371  12.631 -0.1638  0.1763 -2.2818
 4035TIP3   OH233519   1.843   6.451   2.108 -0.3287 -0.2740  0.4199
 4035TIP3    H133520   1.757   6.411   2.095 -0.4182  0.0991 -0.2206
 4035TIP3    H233521   1.877   6.463   2.019 -0.2109  0.8522  0.6070
 4036TIP3   OH233522   5.439   6.468  10.889 -0.0269  0.4919  0.1383
 4036TIP3    H133523   5.533   6.456  10.903  0.2775  0.7433 -1.4771
 4036TIP3    H233524   5.410   6.522  10.962  0.5387 -1.7023  2.1093
 4037TIP3   OH233525   5.511   1.900  16.654 -0.2582 -0.1785 -0.3336
 4037TIP3    H133526   5.577   1.841  16.616 -0.5668 -1.0063  0.3890
 4037TIP3    H233527   5.427   1.862  16.627 -0.4578 -0.0309  0.0706
 4038TIP3   OH233528   0.373   5.707   1.923 -0.2199  0.1225  0.1102
 4038TIP3    H133529   0.443   5.729   1.985 -2.3331  0.9568  2.3254
 4038TIP3    H233530   0.408   5.633   1.873  2.5185  0.9986  0.5686
 4039TIP3   OH233531   2.765   2.579  12.608  0.0777 -0.0289  0.3308
 4039TIP3    H133532   2.781   2.576  12.514  0.3800  1.9114  0.2865
 4039TIP3    H233533   2.712   2.657  12.622  0.0859 -0.2407  1.7808
 4040TIP3   OH233534   0.199   5.396  13.995  0.0203  0.5958 -0.0795
 4040TIP3    H133535   0.241   5.321  13.950  0.3862  0.8024 -0.0876
 4040TIP3    H233536   0.221   5.471  13.940 -0.0574  0.7584  0.1137
 4041TIP3   OH233537   4.774   5.721  11.263 -0.3371  0.3837  0.2987
 4041TIP3    H133538   4.687   5.709  11.301  0.0975  0.0835  1.2435
 4041TIP3    H233539   4.820   5.778  11.326 -0.1690  1.3899 -0.6930
 4042TIP3   OH233540   3.658   3.426  15.124  0.5737 -0.7058  0.1256
 4042TIP3    H133541   3.572   3.441  15.162  0.8842  0.5110  0.3975
 4042TIP3    H233542   3.641   3.409  15.031  0.0142 -1.0445  0.2864
 4043TIP3   OH233543   1.789   3.394   0.222 -0.1926  0.7470 -0.4642
 4043TIP3    H133544   1.730   3.441   0.280  0.4625  0.1411  0.7357
 4043TIP3    H233545   1.863   3.368   0.278  1.3978  1.7698 -1.9707
 4044TIP3   OH233546   1.491   1.953   3.697 -0.1273 -0.0006  0.4380
 4044TIP3    H133547   1.555   1.999   3.643  1.0283 -0.2849  1.5002
 4044TIP3    H233548   1.442   1.898   3.636  1.4344 -0.6516 -0.2936
 4045TIP3   OH233549   6.268   3.150   0.731  0.3789 -0.4734 -0.1322
 4045TIP3    H133550   6.340   3.095   0.700 -0.4683 -2.7897  1.6724
 4045TIP3    H233551   6.215   3.091   0.785 -2.0758  1.5163 -0.1996
 4046TIP3   OH233552   0.197   6.587   2.835  0.3352  0.2504  0.0702
 4046TIP3    H133553   0.277   6.536   2.852  0.1210 -0.9267 -2.0692
 4046TIP3    H233554   0.226   6.678   2.834  1.4626 -0.0883  0.2575
 4047TIP3   OH233555   4.963   1.076  12.526  0.3023 -0.3109  0.0748
 4047TIP3    H133556   4.920   0.990  12.531  0.0512 -0.1336  1.2664
 4047TIP3    H233557   5.045   1.064  12.574 -0.1754  0.3518  1.0997
 4048TIP3   OH233558   3.138   1.388   1.503  0.2117  0.2240 -0.5672
 4048TIP3    H133559   3.091   1.388   1.587 -1.3595  1.4789 -1.3956
 4048TIP3    H233560   3.222   1.430   1.522  1.5973 -2.9519  1.1764
 4049TIP3   OH233561   0.322   2.248   3.817  0.0617  0.4832  0.1884
 4049TIP3    H133562   0.260   2.320   3.808 -0.0134  0.5486  1.1028
 4049TIP3    H233563   0.325   2.230   3.911 -1.1938 -1.8281 -0.1431
 4050TIP3   OH233564   3.729   3.348   3.363  0.1921 -0.5438 -0.4290
 4050TIP3    H133565   3.802   3.358   3.425 -0.6588  2.5646  0.2842
 4050TIP3    H233566   3.769   3.359   3.277  0.9982 -2.2213 -0.3024
 4051TIP3   OH233567   0.183   6.308   2.691 -0.2271  0.1742  0.0913
 4051TIP3    H133568   0.171   6.312   2.597  1.6047  0.7009 -0.1524
 4051TIP3    H233569   0.262   6.360   2.708 -0.5189  0.0907  1.9090
 4052TIP3   OH233570   5.054   0.045   0.796 -0.6499  0.1997 -0.3702
 4052TIP3    H133571   5.054  -0.047   0.768 -0.7014  0.6057 -1.7836
 4052TIP3    H233572   5.106   0.090   0.729 -0.6413  1.2118  0.2988
 4053TIP3   OH233573   1.774   3.522  17.200  0.0639 -0.3247  0.1004
 4053TIP3    H133574   1.780   3.592  17.265  1.0564 -0.4833  0.1829
 4053TIP3    H233575   1.702   3.467  17.230 -1.3281  1.1263 -0.4221
 4054TIP3   OH233576   6.663   4.615   4.442 -0.3520  0.1634  0.1455
 4054TIP3    H133577   6.734   4.600   4.380  0.5505  1.6660  0.7584
 4054TIP3    H233578   6.677   4.551   4.512  1.1115  1.1696  0.8237
 4055TIP3   OH233579   1.287   4.750   1.209  0.2223 -0.2353 -0.1532
 4055TIP3    H133580   1.362   4.691   1.209  0.2470 -0.2049  0.2004
 4055TIP3    H233581   1.283   4.785   1.298 -0.9646 -1.1905  0.2024
 4056TIP3   OH233582   5.776   1.899   1.542  0.3423 -0.3157  0.0812
 4056TIP3    H133583   5.754   1.912   1.635 -0.1497 -2.3891  0.2966
 4056TIP3    H233584   5.692   1.885   1.499  0.3914  2.3900 -1.0576
 4057TIP3   OH233585   1.040   3.104  15.930 -0.0263  0.1665  0.1825
 4057TIP3    H133586   0.985   3.033  15.899 -0.9582  0.3335  1.3955
 4057TIP3    H233587   1.125   3.063  15.948  0.9765  0.2622 -3.5847
 4058TIP3   OH233588   3.464   2.076  11.861 -0.1159 -0.3143 -0.0633
 4058TIP3    H133589   3.437   2.167  11.873 -0.7971 -0.6379  0.9505
 4058TIP3    H233590   3.555   2.074  11.889  0.1278  0.1926 -0.7789
 4059TIP3   OH233591   6.645   2.788   5.178  0.4292 -0.1248 -0.2264
 4059TIP3    H133592   6.551   2.795   5.159  0.5848  0.2698 -0.8689
 4059TIP3    H233593   6.655   2.831   5.263 -0.1073 -0.9556  0.2776
 4060TIP3   OH233594   0.417   4.217   2.889  0.1397  0.0187  0.0219
 4060TIP3    H133595   0.449   4.165   2.963  0.2893 -0.2813 -0.2478
 4060TIP3    H233596   0.474   4.293   2.886 -0.5513  0.5928  0.8855
 4061TIP3   OH233597   5.384   4.213   3.268  0.7217  0.2485 -0.4135
 4061TIP3    H133598   5.479   4.223   3.262  0.9816 -2.1278 -1.3347
 4061TIP3    H233599   5.358   4.266   3.343  2.4162  2.9045 -1.5769
 4062TIP3   OH233600   4.008   4.186  11.601  0.3088 -0.1400 -0.0871
 4062TIP3    H133601   4.020   4.154  11.511 -0.6621  0.2112 -0.3526
 4062TIP3    H233602   3.981   4.109  11.651  0.6273 -0.2878 -0.1370
 4063TIP3   OH233603   0.332   4.466   6.568  0.0574 -0.5050  0.2434
 4063TIP3    H133604   0.294   4.380   6.587  0.1444 -0.6494 -0.2342
 4063TIP3    H233605   0.394   4.481   6.639 -0.9759 -0.2027  1.1261
 4064TIP3   OH233606   1.138   0.468  12.261 -0.8183  0.2671 -0.0823
 4064TIP3    H133607   1.075   0.432  12.324 -1.5201  0.2070 -0.8154
 4064TIP3    H233608   1.136   0.408  12.187 -0.1102  0.4277 -0.2422
 4065TIP3   OH233609   5.747   0.386  13.046 -0.2996  0.1776 -0.4641
 4065TIP3    H133610   5.658   0.410  13.071 -0.7017 -0.9981 -0.6973
 4065TIP3    H233611   5.748   0.291  13.051  0.5836  0.1059 -1.6744
 4066TIP3   OH233612   1.936   6.619  15.363  0.2476  0.1550 -0.0266
 4066TIP3    H133613   1.903   6.703  15.334 -1.4626 -0.0515  1.1477
 4066TIP3    H233614   1.887   6.600  15.443  1.9901 -1.0454  0.8414
 4067TIP3   OH233615   1.754   3.420   2.497 -0.4697 -0.1748 -0.2876
 4067TIP3    H133616   1.703   3.412   2.577 -0.1347 -0.0313 -0.0584
 4067TIP3    H233617   1.689   3.435   2.428 -0.6616  1.6262  0.2204
 4068TIP3   OH233618   3.319   4.757   2.696  0.1566 -0.4315  0.0208
 4068TIP3    H133619   3.413   4.746   2.678 -0.1712 -1.7413 -1.0417
 4068TIP3    H233620   3.316   4.827   2.762  1.7455  1.2502 -1.5420
 4069TIP3   OH233621   5.310   5.111   5.883 -0.5922  0.0574 -0.4658
 4069TIP3    H133622   5.361   5.034   5.859  0.4026 -0.1146  1.9119
 4069TIP3    H233623   5.221   5.092   5.854 -0.8511 -2.9490  1.8162
 4070TIP3   OH233624   6.665   5.784  11.091  0.5048  0.5115  0.0270
 4070TIP3    H133625   6.611   5.795  11.013  0.3919  0.1638  0.0585
 4070TIP3    H233626   6.751   5.759  11.056  0.2620 -0.3674  0.0480
 4071TIP3   OH233627   1.009   6.301   4.942 -0.3334 -0.0183  0.0230
 4071TIP3    H133628   0.927   6.269   4.905  0.1092 -0.8001 -0.3176
 4071TIP3    H233629   1.077   6.253   4.894  0.3281  0.7690  0.1522
 4072TIP3   OH233630   0.605   1.263   1.726 -0.5634  0.5393 -0.0749
 4072TIP3    H133631   0.526   1.272   1.673 -0.1868  1.1544 -0.5351
 4072TIP3    H233632   0.658   1.199   1.679 -1.0131 -0.2949  0.5220
 4073TIP3   OH233633   3.891   4.274   6.625 -0.2739  0.0176  0.4830
 4073TIP3    H133634   3.848   4.343   6.676 -2.3306  0.0169 -1.1082
 4073TIP3    H233635   3.984   4.294   6.632 -0.6507  1.5649  1.9859
 4074TIP3   OH233636   6.550   0.049  15.744 -0.3900  0.0822 -0.0203
 4074TIP3    H133637   6.600   0.031  15.664  0.5058  2.3905 -0.0669
 4074TIP3    H233638   6.493   0.122  15.721 -1.8783 -0.7817  0.8127
 4075TIP3   OH233639   2.272   3.991  15.583  0.0689 -0.3729 -0.1051
 4075TIP3    H133640   2.245   3.947  15.502 -1.1584  1.0381 -0.4927
 4075TIP3    H233641   2.346   4.046  15.556 -0.5445  0.3391 -0.3381
 4076TIP3   OH233642   5.811   0.506   5.857 -0.4097 -0.1572 -0.7781
 4076TIP3    H133643   5.855   0.488   5.940 -0.7762  0.1129 -0.5243
 4076TIP3    H233644   5.746   0.436   5.848 -0.8482  0.2081 -0.4932
 4077TIP3   OH233645   6.111   1.128   5.367 -0.2023  0.6015  0.4053
 4077TIP3    H133646   6.184   1.152   5.310 -0.2247 -0.0494  0.0852
 4077TIP3    H233647   6.040   1.106   5.306  0.3126 -1.8217  0.6027
 4078TIP3   OH233648   0.319   1.331  13.038 -0.4362  0.6302 -0.1370
 4078TIP3    H133649   0.409   1.300  13.026 -0.7736 -0.6586  0.4741
 4078TIP3    H233650   0.280   1.324  12.951  0.1298  1.5083 -0.4783
 4079TIP3   OH233651   2.180   0.102  13.390 -0.3407 -0.0701 -0.4186
 4079TIP3    H133652   2.117   0.053  13.444  0.9246 -1.0156  0.2743
 4079TIP3    H233653   2.253   0.119  13.449 -0.0441  1.2330 -1.1350
 4080TIP3   OH233654   3.213   3.386  12.184 -0.1863  0.4713  0.0839
 4080TIP3    H133655   3.124   3.416  12.165 -0.7706 -1.3867 -0.3212
 4080TIP3    H233656   3.234   3.326  12.113  0.3506 -1.1343  1.5375
 4081TIP3   OH233657   5.009   1.565   3.311  0.4986 -0.0780  0.0623
 4081TIP3    H133658   4.931   1.576   3.366 -1.0918 -0.0607 -2.0509
 4081TIP3    H233659   5.007   1.473   3.285 -0.4159  0.4839 -2.1213
 4082TIP3   OH233660   2.023   2.762  11.306 -0.0768 -0.0546 -0.2664
 4082TIP3    H133661   1.998   2.808  11.225  0.1672  0.8071  0.1282
 4082TIP3    H233662   2.064   2.830  11.359 -1.9795 -0.1166  1.3992
 4083TIP3   OH233663   4.230   5.418   4.181  0.1789  0.6392  0.6077
 4083TIP3    H133664   4.192   5.333   4.202  2.3001 -0.1842  1.4954
 4083TIP3    H233665   4.167   5.459   4.122 -2.0824 -0.4993  2.0765
 4084TIP3   OH233666   2.130   6.221  11.846  0.4923  0.4710 -0.1544
 4084TIP3    H133667   2.038   6.206  11.867  0.7038 -0.7511  0.0019
 4084TIP3    H233668   2.144   6.314  11.862 -0.9473  0.8866 -1.0753
 4085TIP3   OH233669   3.217   1.347  13.590  0.1357  0.4516 -0.3621
 4085TIP3    H133670   3.149   1.411  13.569 -0.1983  0.0320 -0.5803
 4085TIP3    H233671   3.237   1.363  13.682 -1.4773 -0.5099  0.1949
 4086TIP3   OH233672   2.600   1.888  12.805  0.4144  0.3331  0.3192
 4086TIP3    H133673   2.654   1.909  12.880  0.1586 -1.0449  0.9339
 4086TIP3    H233674   2.640   1.810  12.767 -0.9517 -0.5715  0.6400
 4087TIP3   OH233675   3.332   3.155   0.158 -0.1815  0.4572  0.2860
 4087TIP3    H133676   3.280   3.214   0.103 -0.4937  1.3673  1.5126
 4087TIP3    H233677   3.416   3.148   0.113 -0.9263 -0.0452 -1.0819
 4088TIP3   OH233678   2.280   3.924  15.272  0.0645 -0.0721  0.4654
 4088TIP3    H133679   2.249   3.834  15.259 -1.1835  0.2984  0.7965
 4088TIP3    H233680   2.343   3.937  15.201 -1.0412 -0.6282 -0.6702
 4089TIP3   OH233681   1.565   0.876   5.833 -0.1424  0.2823  0.1080
 4089TIP3    H133682   1.593   0.838   5.749 -0.7932 -1.7875  0.7608
 4089TIP3    H233683   1.511   0.951   5.808  0.7416  0.5075 -1.2717
 4090TIP3   OH233684   2.093   2.709  17.306  0.0825 -0.0339  0.5706
 4090TIP3    H133685   2.030   2.698  17.235 -0.1905 -1.3225  0.9741
 4090TIP3    H233686   2.120   2.800  17.300 -1.3743  0.4028  0.0044
 4091TIP3   OH233687   4.933   5.545  13.504 -0.0201 -0.0084  0.0596
 4091TIP3    H133688   4.941   5.484  13.431 -0.0773 -0.7368  0.6561
 4091TIP3    H233689   4.838   5.554  13.517 -0.0617  1.3091 -0.9216
 4092TIP3   OH233690   0.505   0.591   2.487  0.2170 -0.1337 -0.0898
 4092TIP3    H133691   0.489   0.553   2.573  0.0141  2.1902  0.9790
 4092TIP3    H233692   0.578   0.651   2.500  0.7312 -0.3403 -1.7523
 4093TIP3   OH233693   0.901   2.290   5.450 -0.4240 -0.0163 -0.2894
 4093TIP3    H133694   0.930   2.381   5.445  0.9414 -0.4091  0.0080
 4093TIP3    H233695   0.913   2.256   5.361 -2.6216  0.5496 -0.8447
 4094TIP3   OH233696   0.430   4.316   1.030  0.7269 -0.2439 -0.4003
 4094TIP3    H133697   0.370   4.339   0.960  0.7498  0.1470 -0.2978
 4094TIP3    H233698   0.508   4.369   1.013 -0.1116  1.6575  1.1867
 4095TIP3   OH233699   6.316   5.586   3.961  0.3126 -0.1646 -0.0696
 4095TIP3    H133700   6.399   5.595   3.913  1.2525 -0.7894  1.3598
 4095TIP3    H233701   6.325   5.504   4.010 -0.6491  0.3539  1.0387
 4096TIP3   OH233702   6.037   4.633  17.035  0.0330 -0.3416 -0.3806
 4096TIP3    H133703   6.061   4.616  16.944 -2.1429 -0.9290 -0.9101
 4096TIP3    H233704   6.076   4.560  17.084  2.1841  0.5758 -0.6140
 4097TIP3   OH233705   2.079   6.448  14.945  0.4096  0.2011 -0.4967
 4097TIP3    H133706   2.006   6.398  14.980  1.4390 -2.6968 -2.1213
 4097TIP3    H233707   2.053   6.470  14.855  1.6320 -1.3948 -1.3109
 4098TIP3   OH233708   5.427   2.842  15.970  0.2192 -0.4050  0.3365
 4098TIP3    H133709   5.486   2.786  15.920  0.4433  0.2504 -0.1509
 4098TIP3    H233710   5.361   2.869  15.907  1.0739  1.2587  0.1037
 4099TIP3   OH233711   0.525   5.074  16.494  0.4382 -0.3476 -0.5506
 4099TIP3    H133712   0.446   5.025  16.472  1.5888 -1.2470 -2.9051
 4099TIP3    H233713   0.515   5.157  16.448 -0.1498  0.5527  1.0791
 4100TIP3   OH233714   6.182   4.950   5.214 -0.1558  0.0350 -0.0890
 4100TIP3    H133715   6.127   4.934   5.290  0.3947  3.8438  1.3084
 4100TIP3    H233716   6.121   4.955   5.141 -1.1834  0.1464  0.7490
 4101TIP3   OH233717   1.828   4.838   4.826  0.1100  0.1922  0.2299
 4101TIP3    H133718   1.924   4.838   4.824  0.1190  1.3505 -0.3669
 4101TIP3    H233719   1.803   4.763   4.773  0.6938  0.2518 -0.1392
 4102TIP3   OH233720   2.500   6.699  16.860 -0.3462  0.0030  0.1101
 4102TIP3    H133721   2.567   6.746  16.911  0.3990  0.7747 -1.4998
 4102TIP3    H233722   2.487   6.753  16.782 -2.8531 -0.1509  0.3318
 4103TIP3   OH233723   2.526   0.373   1.707 -0.1274 -0.3116  0.5424
 4103TIP3    H133724   2.469   0.299   1.728  1.4011 -1.5766  0.4734
 4103TIP3    H233725   2.574   0.344   1.629 -0.5064  1.3476 -0.3420
 4104TIP3   OH233726   0.434   6.768  12.173 -0.2743  0.6767  0.3020
 4104TIP3    H133727   0.424   6.691  12.230  0.8585 -0.3159 -0.7638
 4104TIP3    H233728   0.422   6.843  12.231  0.2429 -0.2930  1.7219
 4105TIP3   OH233729   1.024   6.073  11.249  0.0490  0.1132  0.0201
 4105TIP3    H133730   0.942   6.071  11.200 -0.0356  2.0062  0.0206
 4105TIP3    H233731   1.029   5.987  11.291 -2.9571  0.5781  1.6626
 4106TIP3   OH233732   2.744   6.348   5.429  1.1147 -0.3993 -0.0930
 4106TIP3    H133733   2.742   6.393   5.344 -0.4326  0.1943  0.2290
 4106TIP3    H233734   2.718   6.415   5.492  0.7277 -1.2349  0.6560
 4107TIP3   OH233735   0.886   6.536  14.390  0.3738 -0.2513 -0.1896
 4107TIP3    H133736   0.917   6.623  14.363  1.2285 -0.3368  0.4818
 4107TIP3    H233737   0.953   6.476  14.358 -0.7247 -0.7963 -1.5594
 4108TIP3   OH233738   6.530   0.603   4.013  0.0764 -0.1357 -0.4528
 4108TIP3    H133739   6.522   0.660   3.936  1.4044  0.7078 -0.0050
 4108TIP3    H233740   6.540   0.664   4.086 -1.5196 -0.9119  0.4770
 4109TIP3   OH233741   5.423   0.141  12.908  0.0542 -0.1444 -0.0803
 4109TIP3    H133742   5.392   0.051  12.916  0.3650 -0.1798  0.8866
 4109TIP3    H233743   5.356   0.194  12.952  0.0551  0.0575 -0.3193
 4110TIP3   OH233744   6.521   3.501  16.266 -0.5577  0.2972  0.4388
 4110TIP3    H133745   6.454   3.432  16.266  0.0026 -0.2628 -0.7037
 4110TIP3    H233746   6.537   3.519  16.174 -0.2745  1.5685  0.7196
 4111TIP3   OH233747   0.798   6.399  12.118  0.1459  0.2893 -0.4369
 4111TIP3    H133748   0.753   6.379  12.199 -1.7509  0.2013 -1.4595
 4111TIP3    H233749   0.728   6.416  12.055  1.5227 -0.3464 -2.2356
 4112TIP3   OH233750   1.134   0.795   4.588 -0.0314  0.3198 -0.1238
 4112TIP3    H133751   1.203   0.853   4.556  1.3218 -0.9089  0.4994
 4112TIP3    H233752   1.066   0.800   4.521  1.1876  0.5965 -1.3913
 4113TIP3   OH233753   3.892   5.173   3.648 -0.1630  0.4855  0.0065
 4113TIP3    H133754   3.878   5.080   3.661 -1.0534  0.7523  1.1513
 4113TIP3    H233755   3.833   5.215   3.710  0.2244  1.8156 -0.4836
 4114TIP3   OH233756   5.526   2.016  11.033 -0.6673 -0.1909 -0.0092
 4114TIP3    H133757   5.490   1.977  11.113 -1.1773 -1.7776 -0.9707
 4114TIP3    H233758   5.462   1.995  10.965 -0.6771  1.8866 -0.7229
 4115TIP3   OH233759   6.640   2.518   5.405 -0.8476 -0.0590 -0.3749
 4115TIP3    H133760   6.697   2.488   5.335 -0.7962 -1.9489  0.4247
 4115TIP3    H233761   6.658   2.612   5.412  0.7226 -0.2503 -1.4387
 4116TIP3   OH233762   3.332   2.737   4.720 -0.1787  0.6771 -0.0848
 4116TIP3    H133763   3.311   2.687   4.799 -1.0339  3.1686  1.3867
 4116TIP3    H233764   3.264   2.714   4.658 -0.4780 -0.0678  0.4997
 4117TIP3   OH233765   6.249   2.131   5.583  0.1941 -0.4258  0.1514
 4117TIP3    H133766   6.226   2.111   5.674 -0.3843 -1.0241 -0.1203
 4117TIP3    H233767   6.316   2.199   5.590 -1.8237  1.6209  0.9810
 4118TIP3   OH233768   1.255   1.349   3.443 -0.2914 -0.2839 -0.4805
 4118TIP3    H133769   1.287   1.408   3.375  0.7942 -0.7146 -0.3609
 4118TIP3    H233770   1.167   1.381   3.463 -0.5093  0.0461 -1.8556
 4119TIP3   OH233771   5.111   1.813   1.417 -0.2591  0.3068 -0.5328
 4119TIP3    H133772   5.098   1.791   1.509 -1.5273  2.3919 -0.1417
 4119TIP3    H233773   5.022   1.824   1.382  0.0104 -3.2790 -2.8693
 4120TIP3   OH233774   4.144   5.000   5.002 -0.3473 -0.1693 -0.0451
 4120TIP3    H133775   4.090   5.011   5.080 -0.4062  0.9903 -0.2268
 4120TIP3    H233776   4.108   4.923   4.958  1.1571 -2.3596  2.2344
 4121TIP3   OH233777   0.222   2.200   4.622  0.1530 -0.0447  0.0644
 4121TIP3    H133778   0.273   2.199   4.703  0.6401  0.6718 -0.2208
 4121TIP3    H233779   0.279   2.244   4.559 -0.3958 -0.2073 -0.5545
 4122TIP3   OH233780   2.104   4.410  13.424  0.0156 -0.2627 -0.0948
 4122TIP3    H133781   2.189   4.435  13.388 -0.5553  0.1208 -1.2089
 4122TIP3    H233782   2.107   4.439  13.515  1.8626 -2.1419  0.5314
 4123TIP3   OH233783   6.437   4.036   1.989  0.1419  0.6469 -0.4379
 4123TIP3    H133784   6.499   4.039   1.916  1.1468 -0.5027  0.3193
 4123TIP3    H233785   6.485   3.990   2.059 -0.7681  1.7578  0.9620
 4124TIP3   OH233786   6.008   3.632   2.251  0.1661 -0.2656 -0.1930
 4124TIP3    H133787   5.951   3.678   2.313 -0.2122 -0.3316 -0.4870
 4124TIP3    H233788   5.998   3.681   2.169  0.3665 -0.4062 -0.3017
 4125TIP3   OH233789   6.608   2.720  16.991  0.0425  0.0670 -0.1352
 4125TIP3    H133790   6.554   2.686  16.919  0.2295 -0.5570  0.0083
 4125TIP3    H233791   6.605   2.651  17.058  1.4545 -0.2258 -0.3431
 4126TIP3   OH233792   6.505   5.221  14.915 -0.3065  0.3183 -0.1377
 4126TIP3    H133793   6.557   5.143  14.896 -0.8098 -0.6541  2.2462
 4126TIP3    H233794   6.539   5.253  14.998 -0.9645  1.9426 -0.4542
 4127TIP3   OH233795   1.156   2.002  14.562 -0.3019 -0.6040  0.2776
 4127TIP3    H133796   1.153   1.981  14.656  1.0937 -0.3923  0.4025
 4127TIP3    H233797   1.197   2.089  14.559 -2.0579  0.2357 -0.4517
 4128TIP3   OH233798   0.797   0.171   4.172  0.6006  0.0380 -0.2965
 4128TIP3    H133799   0.849   0.232   4.119  0.5548 -1.7236 -2.5057
 4128TIP3    H233800   0.857   0.143   4.242  0.2095  3.5388  1.7167
 4129TIP3   OH233801   3.794   1.254   4.850  0.2683 -0.2113 -0.4742
 4129TIP3    H133802   3.844   1.278   4.927 -0.9179 -0.4003  0.3831
 4129TIP3    H233803   3.814   1.161   4.836  1.5528  0.1612 -1.2448
 4130TIP3   OH233804   2.056   4.341   3.381 -0.1343  0.0091 -0.0413
 4130TIP3    H133805   2.025   4.425   3.414 -2.2271  0.1679 -2.1942
 4130TIP3    H233806   2.134   4.363   3.330  0.4502  0.3398  0.9584
 4131TIP3   OH233807   1.905   1.374   6.517 -0.4221 -0.8873  0.0199
 4131TIP3    H133808   1.872   1.427   6.444 -2.1844  1.4266  2.3291
 4131TIP3    H233809   1.834   1.373   6.581  1.8456 -0.7734  2.7407
 4132TIP3   OH233810   2.709   0.048   3.798 -0.3633  0.2135  0.5972
 4132TIP3    H133811   2.719   0.031   3.891  0.0394  1.2763  0.7656
 4132TIP3    H233812   2.673   0.136   3.793  0.0392  0.3439 -0.2579
 4133TIP3   OH233813   5.392   1.780   3.828 -0.0306 -0.1836 -0.0834
 4133TIP3    H133814   5.327   1.824   3.883  1.9086  1.8257  0.7872
 4133TIP3    H233815   5.439   1.722   3.888 -0.2673 -0.7542 -0.4465
 4134TIP3   OH233816   1.299   1.920  11.214 -0.1293  0.0495 -0.5296
 4134TIP3    H133817   1.306   1.923  11.118  1.4281  0.6411 -0.4193
 4134TIP3    H233818   1.337   2.003  11.243  0.8544 -0.7846  0.6706
 4135TIP3   OH233819   1.268   5.424  14.944 -0.1360  0.4316 -0.4926
 4135TIP3    H133820   1.255   5.466  14.859 -0.0842  2.8686  0.6106
 4135TIP3    H233821   1.198   5.458  14.999  1.4023  1.0809  1.1608
 4136TIP3   OH233822   6.161   3.507   5.388 -0.2587  0.2596  0.0116
 4136TIP3    H133823   6.239   3.457   5.364  0.6763  0.4865  2.3291
 4136TIP3    H233824   6.088   3.447   5.369  0.4473 -0.0254 -2.0157
 4137TIP3   OH233825   2.723   6.077  15.602  0.2869  0.0782 -0.3382
 4137TIP3    H133826   2.662   6.038  15.665  0.4594  0.5166  0.0994
 4137TIP3    H233827   2.794   6.012  15.594  0.4216  0.1625  0.1582
 4138TIP3   OH233828   6.092   0.098   1.833  0.4091 -0.0546  0.0665
 4138TIP3    H133829   6.178   0.073   1.798  0.9837  3.7105 -1.6338
 4138TIP3    H233830   6.111   0.164   1.899 -1.1850 -0.3668  0.8894
 4139TIP3   OH233831   3.315   1.289   5.596  0.2850  0.1330  0.2591
 4139TIP3    H133832   3.361   1.368   5.625  1.9667 -0.3486 -0.9083
 4139TIP3    H233833   3.255   1.320   5.528 -0.3714  0.6366  1.0603
 4140TIP3   OH233834   3.344   2.801  17.277 -0.1393 -0.0807  0.0086
 4140TIP3    H133835   3.250   2.813  17.260 -0.0076 -0.9273 -1.4398
 4140TIP3    H233836   3.385   2.809  17.191  0.9446 -1.2576  0.3889
 4141TIP3   OH233837   0.201   0.354   2.551 -0.4125 -0.0692  0.2724
 4141TIP3    H133838   0.124   0.410   2.565  0.3858  1.6377 -1.5992
 4141TIP3    H233839   0.174   0.293   2.482  0.1091  1.1063 -1.0257
 4142TIP3   OH233840   0.307   2.193   5.467  0.0230  0.0165  0.0545
 4142TIP3    H133841   0.271   2.263   5.412 -0.4600  0.3265  0.7521
 4142TIP3    H233842   0.401   2.194   5.448 -0.3114 -0.8628 -1.8626
 4143TIP3   OH233843   5.742   2.757   1.873  0.3556  0.2565  0.0663
 4143TIP3    H133844   5.649   2.762   1.850  0.3912  0.9809  0.0456
 4143TIP3    H233845   5.744   2.771   1.968  0.1621 -3.2684  0.6920
 4144TIP3   OH233846   4.571   6.328  10.941 -0.3993  0.3174 -0.1597
 4144TIP3    H133847   4.593   6.417  10.914 -0.1437  0.7528  1.3835
 4144TIP3    H233848   4.495   6.338  10.999  1.6559 -0.0030  2.8248
 4145TIP3   OH233849   6.653   0.732   4.866 -0.4807  0.4304  0.1970
 4145TIP3    H133850   6.678   0.760   4.778 -0.3502 -1.4926 -0.4197
 4145TIP3    H233851   6.711   0.782   4.924  0.9794  0.1257 -0.9256
 4146TIP3   OH233852   5.335   3.029   2.700 -0.3663  0.2816 -0.2348
 4146TIP3    H133853   5.272   2.962   2.726  1.0364 -1.4008 -1.0297
 4146TIP3    H233854   5.417   3.002   2.741  0.2346  1.5170 -0.5899
 4147TIP3   OH233855   4.352   3.756   4.659  0.5000  0.1023  0.2037
 4147TIP3    H133856   4.315   3.760   4.747  0.6724  1.0830  0.2369
 4147TIP3    H233857   4.298   3.815   4.607  2.2406  1.9439  0.3534
 4148TIP3   OH233858   1.498   3.930  13.010  0.2224  0.0662 -0.0457
 4148TIP3    H133859   1.565   3.990  12.978  0.2233  0.0434 -0.0865
 4148TIP3    H233860   1.509   3.851  12.957  1.0977 -0.4675  0.8921
 4149TIP3   OH233861   0.578   5.816   4.822 -0.0117 -0.0851 -0.6668
 4149TIP3    H133862   0.493   5.824   4.778  0.4546  2.3994 -1.2919
 4149TIP3    H233863   0.642   5.836   4.754  1.0517 -1.1779 -0.0235
 4150TIP3   OH233864   1.495   2.663   5.966  0.9864  0.4243  0.3581
 4150TIP3    H133865   1.568   2.665   6.028  1.4368 -0.2621 -0.1397
 4150TIP3    H233866   1.511   2.738   5.909  1.5907 -0.0180 -0.0640
 4151TIP3   OH233867   3.255   2.652  15.127  0.4683  0.1093 -0.9178
 4151TIP3    H133868   3.333   2.708  15.134  2.5343 -2.5790 -0.7112
 4151TIP3    H233869   3.261   2.613  15.040  0.6162 -1.7229 -0.1449
 4152TIP3   OH233870   0.961   2.423   1.498 -0.2532 -0.3732 -0.1605
 4152TIP3    H133871   0.897   2.392   1.434  0.9561  0.5998 -1.9199
 4152TIP3    H233872   1.037   2.448   1.446  0.4589  1.3298  1.5896
 4153TIP3   OH233873   4.487   2.236   4.640  0.4236  0.0139 -0.0419
 4153TIP3    H133874   4.413   2.224   4.699 -1.1255 -2.3318 -2.2312
 4153TIP3    H233875   4.454   2.291   4.570  1.0983 -0.1547 -0.5057
 4154TIP3   OH233876   3.438   2.209   2.040  0.0225  0.0033  0.1418
 4154TIP3    H133877   3.487   2.272   2.093  0.6206 -0.5710  0.2765
 4154TIP3    H233878   3.480   2.125   2.056 -1.0835 -0.5345  0.3583
 4155TIP3   OH233879   0.712   4.158   2.400  0.6239  0.3035  0.0576
 4155TIP3    H133880   0.761   4.083   2.433 -2.4138 -1.3843  1.0784
 4155TIP3    H233881   0.693   4.137   2.309  0.9279  0.5021 -0.0544
 4156TIP3   OH233882   0.344   3.026   4.683 -0.2460 -0.1483 -0.1143
 4156TIP3    H133883   0.390   3.052   4.763 -0.8531 -0.4354  0.3482
 4156TIP3    H233884   0.259   3.071   4.689 -0.3756 -0.3386 -0.4923
 4157TIP3   OH233885   3.427   1.351  15.109  0.1657  0.3045 -0.3137
 4157TIP3    H133886   3.517   1.322  15.094  0.4761  1.4308 -0.7175
 4157TIP3    H233887   3.432   1.401  15.191 -0.1196  0.2715 -0.2771
 4158TIP3   OH233888   3.496   4.883   2.472  0.1991  0.0272 -0.5463
 4158TIP3    H133889   3.424   4.901   2.532  0.1010  1.9291 -1.1780
 4158TIP3    H233890   3.574   4.915   2.516  0.1691  1.1345 -1.2409
 4159TIP3   OH233891   0.714   6.385   2.224 -0.5263  0.3340  0.0930
 4159TIP3    H133892   0.634   6.417   2.181 -0.5988  1.3802  0.9347
 4159TIP3    H233893   0.783   6.398   2.160 -0.8629  0.4935 -0.2420
 4160TIP3   OH233894   5.386   4.611  12.676 -0.6108 -0.3973 -0.4471
 4160TIP3    H133895   5.450   4.588  12.609 -0.7670 -1.4078 -0.2694
 4160TIP3    H233896   5.407   4.702  12.699  0.6016 -0.6220 -0.5706
 4161TIP3   OH233897   0.629   0.894  14.408 -0.0526  0.6768 -0.0800
 4161TIP3    H133898   0.588   0.952  14.472 -2.2477  1.3834 -2.0070
 4161TIP3    H233899   0.598   0.806  14.432 -0.1911  0.8223  0.2829
 4162TIP3   OH233900   3.230   4.195  16.388 -0.2689 -0.3900 -0.3149
 4162TIP3    H133901   3.304   4.249  16.361  0.0569  0.4330  2.0291
 4162TIP3    H233902   3.222   4.129  16.319  2.8153 -0.6631 -0.5305
 4163TIP3   OH233903   0.902   1.686   3.074  0.2717  0.4771 -0.1517
 4163TIP3    H133904   0.858   1.679   3.159  1.5521  1.1173  0.5983
 4163TIP3    H233905   0.988   1.647   3.088 -0.3705 -1.7819 -1.8969
 4164TIP3   OH233906   4.685   2.458  13.715  0.0006  0.0399  0.4768
 4164TIP3    H133907   4.613   2.397  13.734 -0.8801  1.5555  2.3644
 4164TIP3    H233908   4.703   2.500  13.799  3.9351 -1.0626  0.3846
 4165TIP3   OH233909   1.946   2.976   1.713 -0.0477  0.2750 -0.1886
 4165TIP3    H133910   1.964   3.021   1.796  0.5883  2.1528 -1.2934
 4165TIP3    H233911   1.887   3.034   1.666 -0.9071 -1.0628 -0.8296
 4166TIP3   OH233912   1.179   3.248   3.789  0.1085  0.5100 -0.3970
 4166TIP3    H133913   1.083   3.251   3.782  0.2127  2.2124 -1.6648
 4166TIP3    H233914   1.206   3.181   3.727 -0.2629 -0.4359  0.4280
 4167TIP3   OH233915   4.605   2.077   0.817 -0.7566  0.1313  0.7894
 4167TIP3    H133916   4.562   2.001   0.779 -1.5075  0.8827  0.0941
 4167TIP3    H233917   4.607   2.142   0.747 -0.2434  0.8041  1.4014
 4168TIP3   OH233918   4.044   0.095   3.310 -0.1057 -0.4158 -0.2074
 4168TIP3    H133919   3.960   0.050   3.311 -1.0174  1.1729 -1.2332
 4168TIP3    H233920   4.038   0.160   3.380  0.3264 -0.4164 -0.1660
 4169TIP3   OH233921   0.791   6.447   1.358 -0.5015 -0.1938  0.0146
 4169TIP3    H133922   0.765   6.467   1.448 -0.1800  0.1549  0.0328
 4169TIP3    H233923   0.799   6.532   1.316  1.6888 -0.1997  0.3107
 4170TIP3   OH233924   5.747   4.850  13.635  0.4022  0.3454 -1.0892
 4170TIP3    H133925   5.790   4.844  13.720  2.8471 -2.0186 -2.3175
 4170TIP3    H233926   5.702   4.766  13.624 -0.5978  0.9512 -1.7906
 4171TIP3   OH233927   2.075   1.450   2.815  0.0150 -0.1753  0.1532
 4171TIP3    H133928   2.104   1.372   2.768  0.0943  0.9521 -1.7345
 4171TIP3    H233929   2.020   1.497   2.753 -1.2473  0.5709  1.7529
 4172TIP3   OH233930   0.302   0.352   6.380  0.2265 -0.5736  0.2238
 4172TIP3    H133931   0.311   0.445   6.400  0.4701 -0.3241 -0.9544
 4172TIP3    H233932   0.250   0.317   6.452 -0.6884  0.6624  0.1917
 4173TIP3   OH233933   5.304   3.791   1.905  0.4645  0.5813 -0.1880
 4173TIP3    H133934   5.274   3.836   1.984  0.3212  1.0275 -0.4993
 4173TIP3    H233935   5.399   3.803   1.906  0.3257  1.8924 -0.8750
 4174TIP3   OH233936   1.450   4.160  17.036 -0.0147 -0.0081  0.1393
 4174TIP3    H133937   1.436   4.070  17.066  1.1129 -0.4064 -0.4560
 4174TIP3    H233938   1.546   4.168  17.030  0.1678  2.4450  3.7246
 4175TIP3   OH233939   1.644   1.282   3.977  0.0150 -0.0778 -0.4193
 4175TIP3    H133940   1.598   1.231   3.911  0.8587  1.1046 -2.0035
 4175TIP3    H233941   1.659   1.367   3.935  1.1303  0.5104  1.0826
 4176TIP3   OH233942   1.945   5.095   4.032  0.2102  0.2953  0.3878
 4176TIP3    H133943   1.921   5.178   3.990  0.8474  0.8954  1.1761
 4176TIP3    H233944   1.862   5.048   4.043 -0.1282  0.7326 -0.2592
 4177TIP3   OH233945   0.612   4.770   0.712 -0.9872  0.1577  0.4746
 4177TIP3    H133946   0.575   4.846   0.756  0.2198  0.6884  0.5957
 4177TIP3    H233947   0.705   4.773   0.732 -0.7840 -0.8797 -0.2283
 4178TIP3   OH233948   3.907   3.375   1.650  0.8164  0.3797  0.2923
 4178TIP3    H133949   3.916   3.351   1.557 -1.7876 -1.5839  0.4253
 4178TIP3    H233950   3.885   3.468   1.649 -0.4186  0.1040 -1.1692
 4179TIP3   OH233951   5.069   0.145   2.237 -0.2007 -0.2146  0.6803
 4179TIP3    H133952   5.120   0.162   2.316 -0.9382  0.6644  0.9772
 4179TIP3    H233953   5.118   0.076   2.192  1.6695  1.1046  0.5764
 4180TIP3   OH233954   0.894   1.213  12.596  0.3070  0.8016 -0.2936
 4180TIP3    H133955   0.813   1.215  12.646  2.0883  1.2432  2.7863
 4180TIP3    H233956   0.884   1.283  12.532 -2.4998 -0.5132 -1.4908
 4181TIP3   OH233957   0.652   2.221   3.075 -0.7300 -0.0369 -0.4255
 4181TIP3    H133958   0.613   2.218   2.987 -1.5393 -1.3457 -0.0593
 4181TIP3    H233959   0.614   2.299   3.115 -1.5829 -0.2948 -0.7063
 4182TIP3   OH233960   0.896   4.267   4.212 -0.5849 -0.6342 -0.0651
 4182TIP3    H133961   0.831   4.226   4.270 -1.4742  0.9004  0.0746
 4182TIP3    H233962   0.935   4.336   4.265  1.9821 -2.1483  0.2067
 4183TIP3   OH233963   5.943   6.351  14.084  0.1213  0.5065 -0.3298
 4183TIP3    H133964   5.858   6.316  14.111  0.0290 -0.6825 -2.0158
 4183TIP3    H233965   6.000   6.340  14.160 -1.1438  1.0661  0.7322
 4184TIP3   OH233966   6.006   1.653  12.384  0.2920 -0.2947  0.3221
 4184TIP3    H133967   6.007   1.722  12.318  0.7235  2.3030  2.8572
 4184TIP3    H233968   5.913   1.637  12.401  0.0936  1.9858  1.8302
 4185TIP3   OH233969   0.879   2.446  15.180  0.4237 -0.6707 -0.5430
 4185TIP3    H133970   0.826   2.483  15.109  2.2920  1.1548 -1.0813
 4185TIP3    H233971   0.904   2.521  15.233  0.8647 -1.7444  0.8250
 4186TIP3   OH233972   1.123   5.034   5.514 -0.0881  0.4451  0.6674
 4186TIP3    H133973   1.115   5.073   5.428 -0.7610 -1.5063 -0.2144
 4186TIP3    H233974   1.161   4.947   5.498 -0.7317 -0.1760  2.2475
 4187TIP3   OH233975   5.785   0.926  12.124  0.2689  0.2998 -0.1143
 4187TIP3    H133976   5.761   0.835  12.144 -0.2962 -0.0536 -2.1639
 4187TIP3    H233977   5.880   0.924  12.111  0.4791  0.3242  1.2758
 4188TIP3   OH233978   2.747   4.865  10.649  0.3370 -0.5410  0.2203
 4188TIP3    H133979   2.679   4.830  10.591  0.3086  0.7469 -0.5626
 4188TIP3    H233980   2.717   4.953  10.670  0.2795 -1.0171  2.3458
 4189TIP3   OH233981   5.440   2.718   4.471 -0.5682  0.1618  0.1815
 4189TIP3    H133982   5.391   2.653   4.522 -0.0336 -1.6988 -1.5161
 4189TIP3    H233983   5.373   2.771   4.429 -1.1759 -1.3991 -0.9377
 4190TIP3   OH233984   2.627   5.923   5.759 -0.1381 -0.4937 -0.4148
 4190TIP3    H133985   2.624   6.005   5.709 -0.6504 -0.4335 -0.2908
 4190TIP3    H233986   2.662   5.859   5.698  0.3532 -0.1634 -0.4864
 4191TIP3   OH233987   4.586   0.703  17.180  0.6606 -0.3612 -0.1685
 4191TIP3    H133988   4.618   0.673  17.095  1.7816 -0.3024  0.2141
 4191TIP3    H233989   4.660   0.749  17.218  0.4427 -1.0803  1.1807
 4192TIP3   OH233990   3.255   4.670   0.232  0.2627 -0.0377 -0.0011
 4192TIP3    H133991   3.296   4.707   0.153  3.0419 -1.1407  0.8007
 4192TIP3    H233992   3.260   4.740   0.297 -1.0353  0.4969 -0.4342
 4193TIP3   OH233993   2.049   1.214  16.600  0.1873  0.6756  0.6288
 4193TIP3    H133994   1.978   1.274  16.622 -0.1077  0.1960  0.9816
 4193TIP3    H233995   2.006   1.139  16.560  0.6094  0.9716 -0.4216
 4194TIP3   OH233996   4.858   0.480  15.879  0.1796  0.1019  0.2204
 4194TIP3    H133997   4.808   0.458  15.801 -0.9260  2.5910  0.1307
 4194TIP3    H233998   4.842   0.408  15.940 -1.0674 -0.6098 -0.9182
 4195TIP3   OH233999   1.441   0.327   2.111 -0.4075 -0.1302 -0.2689
 4195TIP3    H134000   1.478   0.373   2.186 -0.3299 -1.6697  0.6661
 4195TIP3    H234001   1.355   0.299   2.140 -0.2537 -1.0144 -0.6528
 4196TIP3   OH234002   3.187   3.080   5.842 -0.9080  0.0871  0.2283
 4196TIP3    H134003   3.243   3.138   5.791 -0.8054  0.4587  0.7632
 4196TIP3    H234004   3.122   3.048   5.779 -1.0559  0.8957 -0.0352
 4197TIP3   OH234005   0.726   5.616   5.956 -0.0188  0.0774 -0.3694
 4197TIP3    H134006   0.711   5.558   5.881  0.0951  0.2307 -0.5092
 4197TIP3    H234007   0.792   5.570   6.008  0.8241  0.5463 -0.9930
 4198TIP3   OH234008   1.726   3.328   3.219  0.3878 -0.1530 -0.3087
 4198TIP3    H134009   1.650   3.380   3.243 -0.2108 -0.9088 -0.5363
 4198TIP3    H234010   1.737   3.343   3.125  0.0080 -0.6865 -0.4443
 4199TIP3   OH234011   4.549   1.388  14.644  0.4231 -0.1548  0.4599
 4199TIP3    H134012   4.469   1.433  14.669  0.9933  0.6318  0.9056
 4199TIP3    H234013   4.543   1.377  14.549 -0.0171  0.2669  0.4403
 4200TIP3   OH234014   2.842   4.170   1.680  0.4193 -0.0579 -0.2422
 4200TIP3    H134015   2.852   4.075   1.685  0.0995 -0.0533  0.7935
 4200TIP3    H234016   2.877   4.194   1.595 -0.1467 -1.1883 -0.8063
 4201TIP3   OH234017   1.077   1.849   0.025 -0.7458 -0.0883 -0.7383
 4201TIP3    H134018   1.047   1.770   0.070  0.2147  0.7096  1.4463
 4201TIP3    H234019   1.114   1.904   0.094  0.8960  1.2225 -2.5354
 4202TIP3   OH234020   6.533   5.348  15.543  0.2006 -0.0764 -0.0118
 4202TIP3    H134021   6.624   5.320  15.530  1.0857  2.1161  0.9331
 4202TIP3    H234022   6.509   5.391  15.461  0.3130  0.0607  0.0259
 4203TIP3   OH234023   2.106   1.316  17.164 -0.2189 -0.8507  0.3045
 4203TIP3    H134024   2.123   1.300  17.071 -0.5959 -0.7057  0.2105
 4203TIP3    H234025   2.172   1.263  17.210 -1.0183 -2.1650 -0.0187
 4204TIP3   OH234026   1.984   5.003   6.400 -0.0135 -0.5046  1.0071
 4204TIP3    H134027   1.922   4.935   6.377 -2.4401  1.0159  2.5777
 4204TIP3    H234028   2.025   4.972   6.481 -0.6908 -0.4042  1.4011
 4205TIP3   OH234029   1.371   6.370   5.040 -0.7622  0.6958 -0.2558
 4205TIP3    H134030   1.342   6.356   4.950  1.4615  1.8139 -1.2139
 4205TIP3    H234031   1.342   6.459   5.061  0.3436  1.1377 -0.5635
 4206TIP3   OH234032   0.640   5.610   6.420 -0.3799  0.3314  0.1837
 4206TIP3    H134033   0.621   5.675   6.352 -0.0015  1.7309  1.3777
 4206TIP3    H234034   0.688   5.541   6.374  0.9451  1.8054 -0.7681
 4207TIP3   OH234035   0.577   5.563   0.973  0.4402  1.1877 -0.0047
 4207TIP3    H134036   0.641   5.506   1.016  2.2266  1.6543 -1.8494
 4207TIP3    H234037   0.575   5.642   1.027  0.6793  0.7766  0.6176
 4208TIP3   OH234038   2.924   2.281   0.050 -0.5568  0.3521  0.1779
 4208TIP3    H134039   2.883   2.306  -0.032 -2.3583  0.2333  1.0093
 4208TIP3    H234040   2.901   2.189   0.061  1.2571 -0.1865 -0.0633
 4209TIP3   OH234041   2.917   2.219  16.345  0.8093  0.0850  0.9185
 4209TIP3    H134042   3.005   2.245  16.372  0.1914  2.1340  1.1016
 4209TIP3    H234043   2.900   2.269  16.266  1.1971 -3.1521 -1.4251
 4210TIP3   OH234044   4.430   3.221   2.892  0.0454 -0.5909  0.4499
 4210TIP3    H134045   4.445   3.149   2.830  0.4168 -0.7246  0.6943
 4210TIP3    H234046   4.438   3.300   2.838  4.8787 -0.4034  1.0074
 4211TIP3   OH234047   4.719   4.369   1.702  0.1545  1.2791  0.7385
 4211TIP3    H134048   4.740   4.356   1.795  3.1804 -1.1868 -0.1066
 4211TIP3    H234049   4.722   4.281   1.664 -1.1489  2.1883 -1.7285
 4212TIP3   OH234050   0.733   6.429   5.309 -0.7219  0.4040  0.1675
 4212TIP3    H134051   0.670   6.359   5.289 -0.6682  0.5219 -0.4358
 4212TIP3    H234052   0.696   6.507   5.265  0.6116  0.1413 -1.5194
 4213TIP3   OH234053   6.774   5.607  13.717 -0.3962  0.9648 -0.0938
 4213TIP3    H134054   6.785   5.665  13.641  1.1916 -1.0964 -1.5351
 4213TIP3    H234055   6.863   5.594  13.750 -0.7481 -0.4111  0.3585
 4214TIP3   OH234056   2.753   0.239   4.665 -0.0104 -0.3748 -0.7792
 4214TIP3    H134057   2.679   0.222   4.723 -1.8029  2.1106 -2.1210
 4214TIP3    H234058   2.792   0.319   4.700 -1.3986  1.4399 -3.0624
 4215TIP3   OH234059   4.771   2.175  12.641  0.9205  0.0529 -0.3686
 4215TIP3    H134060   4.729   2.260  12.627  0.9414 -0.1592 -1.8856
 4215TIP3    H234061   4.703   2.121  12.682  0.9794  0.8509  0.8045
 4216TIP3   OH234062   2.258   6.347  13.703  0.0562  0.0254 -0.1254
 4216TIP3    H134063   2.231   6.437  13.724 -0.7546 -0.0637 -0.7197
 4216TIP3    H234064   2.277   6.350  13.609 -0.1103 -0.4536 -0.1758
 4217TIP3   OH234065   6.655   1.406  11.590  0.2822 -0.3738 -0.1987
 4217TIP3    H134066   6.661   1.351  11.512  1.0385 -0.4435 -0.1029
 4217TIP3    H234067   6.675   1.346  11.662  2.1624  0.2213 -0.1767
 4218TIP3   OH234068   3.090   0.432   5.662  0.2653  0.4565 -1.1479
 4218TIP3    H134069   3.051   0.368   5.722  0.5525  2.2675  1.1080
 4218TIP3    H234070   3.019   0.492   5.641  0.7791  1.3397 -0.4448
 4219TIP3   OH234071   4.226   6.022   4.450  0.7925 -0.0204 -0.2961
 4219TIP3    H134072   4.310   5.987   4.418  1.7247  1.0589  0.8544
 4219TIP3    H234073   4.237   6.028   4.545 -1.5034 -2.1231  0.1861
 4220TIP3   OH234074   3.043   3.654   3.204 -0.4843 -0.0176 -0.2057
 4220TIP3    H134075   3.110   3.585   3.209 -0.2975  0.1654 -0.1783
 4220TIP3    H234076   2.971   3.613   3.156 -0.0648  0.0062 -0.8695
 4221TIP3   OH234077   3.127   4.681   3.105  0.0680 -0.1253 -0.2005
 4221TIP3    H134078   3.047   4.716   3.144 -0.2226 -0.4499 -0.4946
 4221TIP3    H234079   3.116   4.696   3.011  0.7937  0.7253 -0.1588
 4222TIP3   OH234080   5.267   2.883   4.913  0.1152  0.3888 -0.0107
 4222TIP3    H134081   5.173   2.868   4.922  0.1005  0.6551  0.2967
 4222TIP3    H234082   5.278   2.909   4.821 -0.1077  0.3261 -0.0556
 4223TIP3   OH234083   4.915   3.209   4.084 -0.1531 -0.3374 -0.1322
 4223TIP3    H134084   4.882   3.133   4.036 -1.8686  1.2805 -1.6132
 4223TIP3    H234085   4.951   3.267   4.017  3.9265 -0.9873  1.1916
 4224TIP3   OH234086   3.933   1.446  14.174 -0.1778  0.3873  0.1304
 4224TIP3    H134087   3.906   1.533  14.144  1.4199  1.2558  1.0519
 4224TIP3    H234088   3.923   1.449  14.269 -0.8309 -0.7296  0.1141
 4225TIP3   OH234089   5.363   1.937   4.425  0.4433 -0.3883 -0.2182
 4225TIP3    H134090   5.300   1.989   4.475 -0.5799 -1.3515 -0.4869
 4225TIP3    H234091   5.387   1.993   4.351 -1.5155 -0.6899 -1.1349
 4226TIP3   OH234092   5.320   3.848   2.897 -0.0956 -0.3217 -0.5194
 4226TIP3    H134093   5.413   3.864   2.880 -0.0525 -1.0987 -1.1102
 4226TIP3    H234094   5.307   3.872   2.988  0.7224 -0.3340 -0.3954
 4227TIP3   OH234095   0.523   2.531   2.754  0.0855 -0.8929 -0.1642
 4227TIP3    H134096   0.562   2.576   2.679  0.0619 -0.1869  0.2380
 4227TIP3    H234097   0.566   2.569   2.831 -3.0132  1.7281  0.4832
 4228TIP3   OH234098   4.082   4.092   1.827  0.1452  0.3705 -0.0095
 4228TIP3    H134099   4.104   4.155   1.896  0.0729  1.1886 -0.7146
 4228TIP3    H234100   4.004   4.047   1.859  0.3315  0.4683  0.6039
 4229TIP3   OH234101   3.662   1.066   3.375  0.4794  0.2620 -0.7361
 4229TIP3    H134102   3.697   0.978   3.388  0.2274  0.0268 -1.6057
 4229TIP3    H234103   3.584   1.070   3.431 -0.0431 -0.3953 -1.3981
 4230TIP3   OH234104   1.560   4.813   0.294  0.2122  0.2329 -0.2914
 4230TIP3    H134105   1.535   4.767   0.374  0.6001  0.5333  0.0053
 4230TIP3    H234106   1.640   4.768   0.264  0.1921  0.2601 -0.3877
 4231TIP3   OH234107   1.038   6.282  14.280  0.5111  0.1050  0.1283
 4231TIP3    H134108   0.997   6.198  14.302 -1.5647  1.2065  0.7543
 4231TIP3    H234109   1.023   6.291  14.186 -2.5652  1.3199  0.6148
 4232TIP3   OH234110   5.143   4.389   2.111 -0.2125  0.4085 -0.3565
 4232TIP3    H134111   5.078   4.325   2.138  1.1397 -2.1552 -2.6252
 4232TIP3    H234112   5.192   4.409   2.191 -2.1411  0.5117  0.8680
 4233TIP3   OH234113   5.705   2.015   4.186  0.3143 -0.2606 -0.2340
 4233TIP3    H134114   5.633   2.064   4.226 -0.1280 -0.8374 -0.3243
 4233TIP3    H234115   5.670   1.928   4.171  0.3618  0.0180 -2.1715
 4234TIP3   OH234116   0.702   4.314  14.833 -0.5753 -0.5146  0.1689
 4234TIP3    H134117   0.614   4.292  14.803 -0.6371 -1.6396  1.0760
 4234TIP3    H234118   0.758   4.249  14.790  0.0613  1.0738 -1.5641
 4235TIP3   OH234119   5.252   4.865  14.115  0.0150 -0.5865 -0.2860
 4235TIP3    H134120   5.206   4.945  14.088  0.5356 -0.2429 -0.1762
 4235TIP3    H234121   5.339   4.895  14.138 -0.2223 -0.9632  1.1850
 4236TIP3   OH234122   5.991   3.348  17.224 -0.5478  0.4830 -0.4283
 4236TIP3    H134123   5.917   3.332  17.283  0.2238  0.6227  0.6141
 4236TIP3    H234124   5.980   3.283  17.155 -0.8375 -0.4974  0.4982
 4237TIP3   OH234125   4.276   0.989   1.480 -0.0278  0.4580 -0.5517
 4237TIP3    H134126   4.345   1.013   1.541 -0.5571 -2.1853  1.2745
 4237TIP3    H234127   4.322   0.959   1.401  0.9312 -0.7630  0.4355
 4238TIP3   OH234128   0.239   5.333   1.191 -0.3076 -0.1992 -0.4431
 4238TIP3    H134129   0.210   5.251   1.232  1.9870 -0.3151  1.1375
 4238TIP3    H234130   0.184   5.341   1.113 -2.0132 -2.1629  0.4443
 4239TIP3   OH234131   0.464   2.350  16.155  0.5835  0.2971  0.4264
 4239TIP3    H134132   0.432   2.417  16.095  1.9092  2.3170  1.8560
 4239TIP3    H234133   0.551   2.328  16.122  0.7313  0.3479  0.7816
 4240TIP3   OH234134   5.776   4.264  14.365 -0.2580 -0.3148 -0.0647
 4240TIP3    H134135   5.735   4.189  14.408 -0.1364  0.0209  0.6534
 4240TIP3    H234136   5.750   4.257  14.273  1.5416 -2.4940 -0.5062
 4241TIP3   OH234137   2.722   2.488   2.580  0.2082  0.4660  0.4781
 4241TIP3    H134138   2.769   2.456   2.503 -0.3560 -0.9670  0.6998
 4241TIP3    H234139   2.788   2.488   2.649 -0.3656 -3.1933  1.2223
 4242TIP3   OH234140   4.521   2.248  12.961  0.3308 -0.0465 -0.3600
 4242TIP3    H134141   4.516   2.335  12.921  2.8142  0.2240 -0.2732
 4242TIP3    H234142   4.615   2.233  12.974  0.0528 -2.9845 -0.9033
 4243TIP3   OH234143   0.768   3.808  15.955  0.5400  0.3506 -0.2124
 4243TIP3    H134144   0.846   3.846  15.995  0.5212 -0.0604  0.2214
 4243TIP3    H234145   0.791   3.717  15.937 -1.2800 -1.3255  4.3592
 4244TIP3   OH234146   6.314   0.583   3.292 -0.1119  0.1059 -0.2723
 4244TIP3    H134147   6.225   0.552   3.308  0.2101 -1.3913 -1.1889
 4244TIP3    H234148   6.333   0.555   3.202  0.3306  2.7956 -1.0879
 4245TIP3   OH234149   6.470   0.079   3.330 -0.1751  0.4933  0.3943
 4245TIP3    H134150   6.562   0.059   3.316 -0.4534  0.3808 -1.5707
 4245TIP3    H234151   6.441   0.017   3.397  0.7081 -0.8515 -0.4263
 4246TIP3   OH234152   5.243   5.408  11.743  0.7605 -0.3032 -0.4564
 4246TIP3    H134153   5.307   5.426  11.812 -0.7511  3.8917  0.1493
 4246TIP3    H234154   5.295   5.397  11.664  2.3558  1.4793  0.2568
 4247TIP3   OH234155   3.990   1.075  13.935 -0.1601  0.0617 -0.0165
 4247TIP3    H134156   3.906   1.120  13.937  1.2636  2.9545  1.0917
 4247TIP3    H234157   4.035   1.103  14.015  1.6965 -1.7685 -0.3146
 4248TIP3   OH234158   2.180   6.079  13.798  0.3120 -0.6835 -0.0929
 4248TIP3    H134159   2.216   6.068  13.886 -1.2626  0.6023  0.7714
 4248TIP3    H234160   2.230   6.151  13.760 -0.5341  0.3355  0.6687
 4249TIP3   OH234161   4.026   4.663   3.290  0.3954  0.3652 -0.1504
 4249TIP3    H134162   4.039   4.682   3.197  0.6177  2.0943  0.1938
 4249TIP3    H234163   3.969   4.586   3.291 -0.8194  1.1634 -1.7449
 4250TIP3   OH234164   2.898   2.527   3.866  0.1986  0.2074 -0.1611
 4250TIP3    H134165   2.886   2.518   3.961  0.9969 -1.7930 -0.2071
 4250TIP3    H234166   2.980   2.575   3.856  0.5397 -0.3067  0.1607
 4251TIP3   OH234167   5.125   3.836  15.203 -0.4861  0.2519  0.8298
 4251TIP3    H134168   5.154   3.891  15.276 -0.6799  1.0344  0.3339
 4251TIP3    H234169   5.080   3.763  15.244  0.1110  0.2648  1.5203
 4252TIP3   OH234170   5.675   1.722  10.970  0.1603 -0.0072  0.2989
 4252TIP3    H134171   5.653   1.790  10.906  1.9259 -1.5999 -2.1510
 4252TIP3    H234172   5.766   1.739  10.993  0.1666 -0.6962  0.8149
 4253TIP3   OH234173   2.373   2.707   1.306 -0.5300  0.1189  0.2691
 4253TIP3    H134174   2.365   2.624   1.353  0.3268 -0.5333 -0.6937
 4253TIP3    H234175   2.357   2.774   1.372 -2.3415 -0.8123  0.8431
 4254TIP3   OH234176   1.955   6.266  14.065 -0.1346  0.1803  0.3814
 4254TIP3    H134177   1.953   6.222  13.980 -0.8335  1.4579 -0.2920
 4254TIP3    H234178   1.904   6.346  14.052  4.0820  3.2007  0.3752
 4255TIP3   OH234179   2.326   5.288   1.059  0.5015 -0.4077 -0.2220
 4255TIP3    H134180   2.368   5.360   1.011  0.7632 -1.3883 -1.5186
 4255TIP3    H234181   2.282   5.236   0.991 -0.5204 -0.9323  0.8006
 4256TIP3   OH234182   3.628   4.343  17.168 -0.0111  0.2541  0.1612
 4256TIP3    H134183   3.640   4.436  17.152 -0.1124  0.0989 -0.8611
 4256TIP3    H234184   3.533   4.330  17.162  0.1517 -0.3788 -2.6087
 4257TIP3   OH234185   0.094   6.538   3.875  0.4900 -0.2280 -0.4284
 4257TIP3    H134186   0.057   6.472   3.817  0.3842  1.4624 -2.3786
 4257TIP3    H234187   0.039   6.536   3.953  1.0348 -3.0179 -0.0124
 4258TIP3   OH234188   0.924   3.531  14.828  0.1448 -0.1264 -0.2128
 4258TIP3    H134189   0.998   3.535  14.767  1.0420 -1.6971  0.6890
 4258TIP3    H234190   0.960   3.561  14.912 -0.1308 -1.1851  0.3060
 4259TIP3   OH234191   0.029   2.702   4.960  0.2461 -0.0984 -0.4145
 4259TIP3    H134192   0.007   2.722   5.051  0.3281  0.8580 -0.5942
 4259TIP3    H234193  -0.026   2.626   4.938  1.6369 -1.6014  1.0228
 4260TIP3   OH234194   5.570   5.749  13.149  0.3808  0.6596  0.2253
 4260TIP3    H134195   5.608   5.674  13.196 -2.0104 -0.3173  0.7343
 4260TIP3    H234196   5.559   5.718  13.059 -3.3837 -0.8788  1.0262
 4261TIP3   OH234197   1.579   4.401  13.348  0.4034  0.5230  0.4426
 4261TIP3    H134198   1.505   4.417  13.406 -0.6413  2.2635 -1.2639
 4261TIP3    H234199   1.631   4.482  13.353 -0.7181  1.5634 -2.3333
 4262TIP3   OH234200   6.531   2.954  13.414 -0.8541  0.3706 -0.0908
 4262TIP3    H134201   6.499   2.875  13.370  0.1093 -0.1228  0.0841
 4262TIP3    H234202   6.535   3.020  13.345  0.4077 -0.3311 -0.7059
 4263TIP3   OH234203   0.925   0.566   6.194 -0.3543  0.2179 -0.1071
 4263TIP3    H134204   0.955   0.599   6.109 -0.0778 -0.2433 -0.1898
 4263TIP3    H234205   0.837   0.602   6.203 -1.3484 -1.6353 -1.6929
 4264TIP3   OH234206   1.686   0.035   3.279  0.5078 -0.4644 -0.1556
 4264TIP3    H134207   1.747   0.050   3.351  0.0380  0.4674  0.0476
 4264TIP3    H234208   1.604   0.009   3.321  0.8326 -2.1231 -0.4391
 4265TIP3   OH234209   0.555   6.457  17.225  0.2747  0.6736  1.0842
 4265TIP3    H134210   0.494   6.509  17.172  0.0168 -0.3638  0.3231
 4265TIP3    H234211   0.641   6.495  17.207  0.0894  0.8446  0.5418
 4266TIP3   OH234212   2.098   5.347  14.993  0.0674 -0.0901 -0.2611
 4266TIP3    H134213   2.159   5.390  15.052 -2.2936 -0.2643  2.5560
 4266TIP3    H234214   2.149   5.276  14.952  2.9281  2.6581 -1.9201
 4267TIP3   OH234215   3.580   1.328   5.016 -0.0998  0.3935 -0.5137
 4267TIP3    H134216   3.501   1.346   4.965 -0.8745 -1.3589  0.0080
 4267TIP3    H234217   3.649   1.316   4.950 -0.7886 -0.4698 -1.0940
 4268TIP3   OH234218   3.155   1.540  13.254 -0.1139  0.0747  0.0263
 4268TIP3    H134219   3.209   1.614  13.226 -0.9332  1.5103  2.0068
 4268TIP3    H234220   3.085   1.580  13.306  1.2864 -2.2478  4.0966
 4269TIP3   OH234221   6.612   2.662  11.349  0.0111  0.2298  0.3263
 4269TIP3    H134222   6.684   2.600  11.361 -0.1216 -0.0688 -0.4080
 4269TIP3    H234223   6.655   2.747  11.338  0.1715  0.4388  2.2053
 4270TIP3   OH234224   5.699   0.094  12.097 -0.3738  0.2588 -0.0118
 4270TIP3    H134225   5.743   0.009  12.096  1.5763  1.1958  0.3038
 4270TIP3    H234226   5.742   0.144  12.027 -1.7246  0.8843 -0.4232
 4271TIP3   OH234227   0.283   5.695   6.109  0.1341 -0.5308 -0.3700
 4271TIP3    H134228   0.213   5.714   6.046  0.8172  0.2398 -0.9284
 4271TIP3    H234229   0.317   5.781   6.132  1.8425 -0.9473 -1.2152
 4272TIP3   OH234230   2.509   2.845   2.249 -0.6504 -0.3737  0.0633
 4272TIP3    H134231   2.592   2.848   2.297 -0.4542  0.2090 -0.2988
 4272TIP3    H234232   2.466   2.928   2.270  0.7009  1.2554 -2.9336
 4273TIP3   OH234233   6.578   5.665   5.400  0.1258  0.1964 -0.0469
 4273TIP3    H134234   6.510   5.611   5.360  0.3930  0.1521 -0.4361
 4273TIP3    H234235   6.659   5.639   5.357  0.4854 -0.1604  0.8162
 4274TIP3   OH234236   5.344   0.085   4.509  0.0775  0.3926  0.2542
 4274TIP3    H134237   5.291   0.008   4.485  1.2987 -0.3879 -0.0201
 4274TIP3    H234238   5.302   0.157   4.463  0.1732 -0.4719 -1.2543
 4275TIP3   OH234239   0.091   1.523   5.320 -0.2373  0.1084 -0.5624
 4275TIP3    H134240   0.142   1.600   5.348 -1.4702  0.8842 -0.3834
 4275TIP3    H234241   0.153   1.471   5.268  0.9666  0.6106  0.3069
 4276TIP3   OH234242   0.261   3.422  14.749  0.0814  0.2308 -0.1879
 4276TIP3    H134243   0.312   3.401  14.671 -1.8160 -1.4473 -1.0540
 4276TIP3    H234244   0.175   3.448  14.715 -0.2808  1.1121  1.3035
 4277TIP3   OH234245   0.646   4.025  12.693 -0.4618 -0.0075  0.1698
 4277TIP3    H134246   0.722   4.072  12.727 -0.5057  1.1001 -1.1717
 4277TIP3    H234247   0.683   3.958  12.635 -0.4962  0.1506 -0.0336
 4278TIP3   OH234248   4.502   3.523  10.720  0.0966 -0.9270  0.3589
 4278TIP3    H134249   4.413   3.519  10.754  0.2469 -1.0587  0.7381
 4278TIP3    H234250   4.498   3.479  10.635 -0.3349 -0.3716  0.0843
 4279TIP3   OH234251   1.209   6.495   4.378 -0.6548 -0.4543 -0.8089
 4279TIP3    H134252   1.277   6.530   4.436 -1.1583  0.2194 -0.6103
 4279TIP3    H234253   1.153   6.444   4.436 -0.9284 -0.1149 -0.7715
 4280TIP3   OH234254   3.699   2.689  13.118  0.7350 -0.1787  0.0046
 4280TIP3    H134255   3.779   2.657  13.160  1.2829  1.9345  0.6992
 4280TIP3    H234256   3.630   2.629  13.148  1.4349  0.1438  2.4860
 4281TIP3   OH234257   4.428   5.519   1.121 -0.1100 -0.3228 -0.1755
 4281TIP3    H134258   4.456   5.561   1.039  1.2959 -1.7751 -0.5011
 4281TIP3    H234259   4.480   5.439   1.125 -2.2905 -1.7887  0.6726
 4282TIP3   OH234260   2.573   5.012   3.269  0.7661  0.5372  0.3369
 4282TIP3    H134261   2.502   5.016   3.333  0.4711 -0.1052  0.0543
 4282TIP3    H234262   2.614   4.927   3.283  1.8598  1.1232  0.8776
 4283TIP3   OH234263   3.523   6.307  12.747  0.4479 -0.4358 -0.1224
 4283TIP3    H134264   3.492   6.396  12.725 -1.5334 -0.9375  0.3848
 4283TIP3    H234265   3.457   6.249  12.708  1.8959 -1.7153 -0.7305
 4284TIP3   OH234266   0.233   0.329  12.242 -0.3357 -0.5327  0.2663
 4284TIP3    H134267   0.256   0.273  12.168 -2.1521  0.1569 -0.9023
 4284TIP3    H234268   0.294   0.304  12.311  0.7375 -1.9448 -1.1165
 4285TIP3   OH234269   1.593   6.563   0.328 -0.0056  0.0282 -0.0132
 4285TIP3    H134270   1.512   6.530   0.367  1.1394 -0.3205  2.2218
 4285TIP3    H234271   1.612   6.501   0.257 -1.0447 -0.5732  0.2032
 4286TIP3   OH234272   4.226   2.208  12.681  0.3328 -0.5442 -0.7389
 4286TIP3    H134273   4.232   2.156  12.761 -1.3561 -0.5586 -0.5839
 4286TIP3    H234274   4.177   2.286  12.706  1.5001  0.4285 -1.3300
 4287TIP3   OH234275   0.781   4.422   6.759  0.1587 -0.3047  0.4567
 4287TIP3    H134276   0.708   4.436   6.699  1.1763  0.0203 -0.7544
 4287TIP3    H234277   0.744   4.369   6.830 -1.8420  1.8661  1.1580
 4288TIP3   OH234278   1.732   2.887  17.286  0.0089  0.3528  0.6583
 4288TIP3    H134279   1.748   2.800  17.323 -1.0153 -0.1767 -0.0933
 4288TIP3    H234280   1.702   2.940  17.360  0.2438 -0.0483  1.0437
 4289TIP3   OH234281   4.166   3.179   4.694  0.1298 -0.6963  0.6574
 4289TIP3    H134282   4.149   3.148   4.605  3.3585  0.4941 -0.5222
 4289TIP3    H234283   4.141   3.105   4.750  0.7919 -2.6667 -1.4757
 4290TIP3   OH234284   0.050   3.471   5.084  0.4038 -0.2415  0.0147
 4290TIP3    H134285   0.062   3.411   5.158  0.4130  0.5253  0.6377
 4290TIP3    H234286   0.074   3.557   5.117  1.4342 -0.0301 -1.1818
 4291TIP3   OH234287   0.064   1.438  16.339 -0.2122  0.2503 -0.0193
 4291TIP3    H134288   0.004   1.481  16.400 -0.0131 -1.3738  1.4194
 4291TIP3    H234289   0.149   1.437  16.385  0.6003  1.2968 -1.4426
 4292TIP3   OH234290   5.596   1.404   2.939  0.1192  0.4777  0.1471
 4292TIP3    H134291   5.647   1.453   2.875  2.1458  0.6099  1.7513
 4292TIP3    H234292   5.576   1.468   3.008 -0.3073 -0.1064  0.5838
 4293TIP3   OH234293   0.395   5.972  12.823 -0.1515  0.0375 -0.2516
 4293TIP3    H134294   0.322   5.981  12.884  0.3874  0.1590  0.3995
 4293TIP3    H234295   0.440   5.892  12.851 -0.3800 -0.3725 -1.0323
 4294TIP3   OH234296   0.448   2.039   0.057  0.0072  0.1695  0.1611
 4294TIP3    H134297   0.432   1.982  -0.018  1.4981 -0.8769  0.6078
 4294TIP3    H234298   0.361   2.052   0.096 -0.3819 -1.7827  0.0431
 4295TIP3   OH234299   3.230   3.192  14.781 -0.1613  0.1662 -0.0213
 4295TIP3    H134300   3.298   3.237  14.730 -1.4400  2.3076  0.0508
 4295TIP3    H234301   3.202   3.256  14.846 -2.6865 -0.3794 -0.4559
 4296TIP3   OH234302   5.465   0.977   3.326 -0.0595 -0.0886  0.5212
 4296TIP3    H134303   5.484   0.883   3.315  0.1496  0.1328 -1.2708
 4296TIP3    H234304   5.420   0.982   3.411  2.8884 -1.3505  2.3358
 4297TIP3   OH234305   0.754   2.576   3.823  0.3712  0.1127  0.1831
 4297TIP3    H134306   0.781   2.634   3.894  0.4270 -1.6997  1.7273
 4297TIP3    H234307   0.670   2.539   3.852  0.5256 -0.8783 -0.5498
 4298TIP3   OH234308   5.907   4.928  13.849  0.0967  0.1509  0.3982
 4298TIP3    H134309   5.918   4.885  13.934  0.2393 -2.2402 -0.7469
 4298TIP3    H234310   5.992   4.969  13.832  0.4530 -0.3672  0.8815
 4299TIP3   OH234311   6.077   4.422   4.525  0.0857 -0.1235  0.1289
 4299TIP3    H134312   6.010   4.470   4.574  0.5407 -1.4142  2.1518
 4299TIP3    H234313   6.034   4.397   4.444 -0.8592  1.7278 -0.0046
 4300TIP3   OH234314   2.321   0.926   2.328 -0.2582  0.0552 -0.2962
 4300TIP3    H134315   2.282   0.843   2.357 -1.8126 -0.1774 -2.7235
 4300TIP3    H234316   2.247   0.976   2.295  1.2360  0.0882 -4.0564
 4301TIP3   OH234317   5.351   0.781  13.152 -0.0236 -0.4683 -0.4604
 4301TIP3    H134318   5.411   0.804  13.080  1.3769 -3.6369 -0.4688
 4301TIP3    H234319   5.391   0.819  13.230  0.1283  0.3539 -0.9271
 4302TIP3   OH234320   5.705   6.632   2.912 -0.2382  0.3567 -0.1623
 4302TIP3    H134321   5.749   6.703   2.865 -0.5846  0.1694 -0.7765
 4302TIP3    H234322   5.666   6.675   2.988  0.7401  0.5765  0.2320
 4303TIP3   OH234323   2.315   5.720   4.178  0.2642 -0.0270  0.3632
 4303TIP3    H134324   2.323   5.779   4.104 -1.0833  0.2455  0.3990
 4303TIP3    H234325   2.222   5.725   4.203 -0.4635 -3.6360 -0.8891
 4304TIP3   OH234326   0.114   4.517   2.067 -0.9280 -0.4122  0.1718
 4304TIP3    H134327   0.104   4.599   2.116  0.9679 -0.2346  0.3497
 4304TIP3    H234328   0.133   4.544   1.978 -0.8010 -0.6635  0.1201
 4305TIP3   OH234329   5.248   3.036  14.480  0.4634 -0.0632  0.0933
 4305TIP3    H134330   5.161   3.009  14.508  0.0524  0.5076 -0.6058
 4305TIP3    H234331   5.247   3.025  14.384  1.0817  0.1537  0.0553
 4306TIP3   OH234332   0.919   0.351   4.026 -0.4752 -0.2570 -0.7121
 4306TIP3    H134333   0.956   0.382   3.943 -0.6325  0.6641 -0.4399
 4306TIP3    H234334   0.990   0.362   4.090 -1.5600  2.8728  0.1241
 4307TIP3   OH234335   1.569   3.953  16.372  0.2653  0.0385 -0.1472
 4307TIP3    H134336   1.551   3.860  16.385 -1.2456 -0.1020 -2.6600
 4307TIP3    H234337   1.506   3.997  16.429  1.0344 -0.4337  1.1053
 4308TIP3   OH234338   0.252   4.733  15.004 -0.5418  0.0034  0.2391
 4308TIP3    H134339   0.296   4.673  14.944 -0.6825  1.2528 -1.1608
 4308TIP3    H234340   0.320   4.759  15.066 -0.0734 -0.3720 -0.1096
 4309TIP3   OH234341   4.554   5.047  12.560  0.2462 -0.0230  0.4987
 4309TIP3    H134342   4.495   5.063  12.486  1.1486 -0.4774 -0.3281
 4309TIP3    H234343   4.575   5.134  12.593 -0.1301  0.1853  0.1954
 4310TIP3   OH234344   6.662   5.517   2.468  0.2967  0.3345  0.0525
 4310TIP3    H134345   6.684   5.610   2.454  1.8429  0.4406  2.5341
 4310TIP3    H234346   6.570   5.518   2.493  0.2059  1.1741 -0.2892
 4311TIP3   OH234347   2.187   4.667  17.291 -0.0064 -0.3743  0.2724
 4311TIP3    H134348   2.120   4.611  17.331 -0.0302  0.4797  1.4738
 4311TIP3    H234349   2.191   4.638  17.200 -3.9193  1.2511 -0.6185
 4312TIP3   OH234350   6.619   1.566   4.900 -0.3755  0.0935  0.1840
 4312TIP3    H134351   6.662   1.637   4.854 -0.3043  0.0233  0.1428
 4312TIP3    H234352   6.611   1.597   4.990  1.1464 -0.5001  0.5558
 4313TIP3   OH234353   3.512   4.032   5.784 -0.0258  0.1765 -0.1876
 4313TIP3    H134354   3.451   3.972   5.827 -0.4090  0.7789  0.1331
 4313TIP3    H234355   3.535   4.095   5.852 -1.1796  1.5627 -1.0234
 4314TIP3   OH234356   0.115   1.979   4.507  0.2259  0.6587  0.2571
 4314TIP3    H134357   0.101   1.907   4.569  0.9639  0.8376  0.6359
 4314TIP3    H234358   0.162   2.046   4.557  0.5202  0.9501 -0.3958
 4315TIP3   OH234359   4.938   1.131  11.337 -0.0804  0.2183 -0.1240
 4315TIP3    H134360   4.896   1.196  11.282  0.9965  1.4564  0.4760
 4315TIP3    H234361   4.928   1.049  11.288 -3.1498  0.4033 -0.0036
 4316TIP3   OH234362   6.288   3.795  13.626  0.0513 -0.2223  0.6442
 4316TIP3    H134363   6.301   3.844  13.707  1.4002 -0.7612  0.7858
 4316TIP3    H234364   6.368   3.743  13.617 -0.1092 -0.2336 -0.9928
 4317TIP3   OH234365   5.693   4.730   3.361 -0.1016  0.1303  0.5777
 4317TIP3    H134366   5.617   4.704   3.308 -0.3047 -1.0741  1.4095
 4317TIP3    H234367   5.767   4.683   3.322  0.2367  1.2904 -0.2222
 4318TIP3   OH234368   3.431   4.873   4.241 -0.2512 -0.1836 -0.5214
 4318TIP3    H134369   3.508   4.893   4.294  1.5580 -2.3657 -2.1186
 4318TIP3    H234370   3.390   4.958   4.226  1.5589  0.9990  0.8034
 4319TIP3   OH234371   4.458   4.551   3.146  0.3786  0.4303  0.1565
 4319TIP3    H134372   4.365   4.547   3.165  0.2874 -0.6553 -0.4256
 4319TIP3    H234373   4.487   4.459   3.145  1.1344  0.6495 -1.1127
 4320TIP3   OH234374   6.031   0.610  15.082  0.0928  0.1810  0.1231
 4320TIP3    H134375   5.990   0.576  15.003 -1.3232 -0.5607  1.1418
 4320TIP3    H234376   6.011   0.703  15.082 -2.6659 -0.3169  1.1280
 4321TIP3   OH234377   5.975   0.277   3.742 -0.1294  0.1186  0.1127
 4321TIP3    H134378   5.924   0.284   3.822  0.6554 -3.0498  1.0458
 4321TIP3    H234379   6.047   0.218   3.764  1.8466  1.4532 -2.1706
 4322TIP3   OH234380   0.101   0.564  15.925 -0.4772 -0.1135  0.2503
 4322TIP3    H134381   0.150   0.486  15.952 -1.5110 -0.8540  0.0342
 4322TIP3    H234382   0.020   0.530  15.887 -0.4291  1.0191 -0.9359
 4323TIP3   OH234383   6.706   4.448  13.291  0.7834  0.1351 -0.6396
 4323TIP3    H134384   6.650   4.397  13.350  1.9978  1.0137  1.3670
 4323TIP3    H234385   6.653   4.458  13.212 -1.5899  0.2460  0.8367
 4324TIP3   OH234386   3.732   2.341   0.621 -0.0003  0.0406 -0.2664
 4324TIP3    H134387   3.710   2.433   0.634  1.7159  0.3918  0.3731
 4324TIP3    H234388   3.818   2.330   0.661 -0.4894 -2.0386  0.3518
 4325TIP3   OH234389   3.915   0.429  16.908  0.2148  0.5090  0.2109
 4325TIP3    H134390   3.942   0.442  16.999 -0.9363  2.0547  0.3714
 4325TIP3    H234391   3.949   0.505  16.862  0.9387 -0.3481 -0.7278
 4326TIP3   OH234392   3.018   5.369   4.695 -0.7463  0.0822  0.6565
 4326TIP3    H134393   3.074   5.441   4.724 -0.4979 -0.2279  0.9493
 4326TIP3    H234394   2.962   5.408   4.627 -2.4960  1.2845  2.6365
 4327TIP3   OH234395   1.719   2.061  14.240  0.2665 -0.0029  0.0130
 4327TIP3    H134396   1.703   2.046  14.334  0.4272  0.4995  0.1224
 4327TIP3    H234397   1.803   2.108  14.237  0.0397  0.3845 -0.3557
 4328TIP3   OH234398   5.350   6.677  15.725  0.5778 -0.8571 -0.2889
 4328TIP3    H134399   5.358   6.700  15.818  2.4552  2.7651 -1.1361
 4328TIP3    H234400   5.263   6.706  15.700  1.1626  1.1091 -0.2290
 4329TIP3   OH234401   4.441   1.281   4.102  0.3798 -0.5525  0.1610
 4329TIP3    H134402   4.486   1.200   4.080  0.4238 -0.8031  1.1462
 4329TIP3    H234403   4.377   1.257   4.169 -0.7942 -0.0779 -0.7319
 4330TIP3   OH234404   5.159   0.483  15.070 -0.5784 -0.0285  0.0480
 4330TIP3    H134405   5.129   0.455  14.984  0.1596 -0.3002 -0.1257
 4330TIP3    H234406   5.107   0.561  15.090 -1.1838 -0.3275 -0.3718
 4331TIP3   OH234407   5.851   3.240   1.638  0.4476 -0.2716 -0.3644
 4331TIP3    H134408   5.839   3.231   1.543 -1.0238 -0.4693 -0.1900
 4331TIP3    H234409   5.928   3.187   1.657 -0.9002 -2.6381 -1.0891
 4332TIP3   OH234410   3.916   3.212  12.034  0.0870 -0.6748 -0.0239
 4332TIP3    H134411   3.984   3.279  12.036  0.9038 -1.4860 -0.0507
 4332TIP3    H234412   3.834   3.260  12.046  0.6261  0.3638 -0.4422
 4333TIP3   OH234413   4.652   6.389   1.059 -0.0278 -0.0926  0.5471
 4333TIP3    H134414   4.732   6.440   1.058 -0.1929  0.2113 -1.6865
 4333TIP3    H234415   4.677   6.306   1.100  1.5898 -0.1982 -0.5544
 4334TIP3   OH234416   2.276   2.373  10.842  0.4766  0.9918  0.3770
 4334TIP3    H134417   2.275   2.421  10.925  0.7048 -0.9774  1.5690
 4334TIP3    H234418   2.361   2.394  10.804  0.0082  2.6423  0.1386
 4335TIP3   OH234419   1.501   5.103  16.002  0.0503  0.4323  0.0182
 4335TIP3    H134420   1.561   5.178  16.007  0.8412 -0.1343 -0.6873
 4335TIP3    H234421   1.474   5.088  16.092 -0.3975  1.7822  0.1311
 4336TIP3   OH234422   0.486   2.967   5.726 -0.3897  0.0275  0.4909
 4336TIP3    H134423   0.520   2.913   5.797  0.1720 -0.5825 -0.2248
 4336TIP3    H234424   0.547   2.952   5.653 -0.7647  0.8915 -0.0179
 4337TIP3   OH234425   4.412   1.545  15.605 -0.1899 -0.3851 -1.1117
 4337TIP3    H134426   4.375   1.490  15.673 -0.7737 -0.5639 -1.5628
 4337TIP3    H234427   4.492   1.500  15.577  0.4761  0.0910 -0.0087
 4338TIP3   OH234428   3.972   2.535  12.462  0.2622  0.0956 -0.6319
 4338TIP3    H134429   4.013   2.615  12.429  1.7981 -0.8267 -1.0409
 4338TIP3    H234430   3.941   2.490  12.383 -3.9378  1.8802 -0.2858
 4339TIP3   OH234431   4.390   5.097   0.128  0.6377  0.2640  0.3795
 4339TIP3    H134432   4.308   5.067   0.168  0.2138  1.2487  0.3031
 4339TIP3    H234433   4.371   5.099   0.034 -0.5676  3.9611  0.5443
 4340TIP3   OH234434   3.348   0.816  15.679  0.0613  0.7933  0.7019
 4340TIP3    H134435   3.426   0.775  15.718  0.1318  0.3251  0.0929
 4340TIP3    H234436   3.351   0.789  15.587 -0.2976  1.5752  0.4550
 4341TIP3   OH234437   4.361   1.307  16.150  0.2893 -0.1219  0.1971
 4341TIP3    H134438   4.442   1.350  16.174  0.1557  1.0905 -1.3321
 4341TIP3    H234439   4.372   1.286  16.057 -1.0243 -0.1721  0.0313
 4342TIP3   OH234440   6.415   0.083  14.693 -0.5795 -0.1578 -0.1403
 4342TIP3    H134441   6.366   0.113  14.616  1.2813 -0.2735 -1.4250
 4342TIP3    H234442   6.496   0.134  14.691 -0.1571 -0.7207  1.3205
 4343TIP3   OH234443   2.717   0.109   0.407  0.2047  0.1887 -0.2877
 4343TIP3    H134444   2.640   0.060   0.377  0.4480  1.0582 -2.4949
 4343TIP3    H234445   2.760   0.050   0.468 -1.5833 -0.7784  0.1119
 4344TIP3   OH234446   5.147   3.164  14.129 -0.0372 -0.3016  0.5011
 4344TIP3    H134447   5.161   3.073  14.155  1.8407 -0.1242  0.2302
 4344TIP3    H234448   5.154   3.163  14.033 -2.6373 -0.2465  0.2176
 4345TIP3   OH234449   2.309   1.445  14.606 -0.2298  0.8501 -0.3073
 4345TIP3    H134450   2.248   1.442  14.533 -0.5193  3.5444 -0.2805
 4345TIP3    H234451   2.264   1.401  14.678 -0.7858 -0.0276 -1.1801
 4346TIP3   OH234452   4.355   0.607   5.003  0.3704 -0.0096 -0.1901
 4346TIP3    H134453   4.421   0.676   4.994  0.9373 -0.6679 -1.1967
 4346TIP3    H234454   4.400   0.535   5.047 -0.3253  0.3742  1.2020
 4347TIP3   OH234455   5.931   6.721  13.254  0.0792  0.1845  0.5976
 4347TIP3    H134456   6.015   6.764  13.236 -0.1429  0.3254 -0.1311
 4347TIP3    H234457   5.926   6.651  13.188 -0.1794 -0.0970  0.9133
 4348TIP3   OH234458   4.911   5.623   1.424 -0.0772 -0.1123 -0.8748
 4348TIP3    H134459   4.825   5.587   1.447 -1.3483  2.9721 -0.2832
 4348TIP3    H234460   4.970   5.583   1.488 -1.4607 -0.6819  0.1267
 4349TIP3   OH234461   2.834   4.541  16.738 -0.1769  0.0108 -0.4435
 4349TIP3    H134462   2.865   4.631  16.735  0.4692 -0.0779  1.9747
 4349TIP3    H234463   2.895   4.492  16.683 -0.1641  0.9138 -1.2618
 4350TIP3   OH234464   2.641   6.437  15.967  0.1060  0.4354 -0.1991
 4350TIP3    H134465   2.579   6.506  15.942  1.7766  2.1761  0.3041
 4350TIP3    H234466   2.695   6.425  15.889  1.0051  1.0495  0.3188
 4351TIP3   OH234467   1.887   0.453  14.299 -0.0345 -0.0150  0.3009
 4351TIP3    H134468   1.832   0.435  14.375  0.2942  0.4752  0.6562
 4351TIP3    H234469   1.826   0.474  14.229 -0.2887  1.3848  0.9113
 4352TIP3   OH234470   0.638   2.722  17.012  0.2456 -0.1661  0.3111
 4352TIP3    H134471   0.723   2.764  17.001 -0.3566  1.1548  0.4523
 4352TIP3    H234472   0.617   2.734  17.105 -0.2287 -0.2034  0.2142
 4353TIP3   OH234473   1.757   2.608   5.410 -0.3804 -0.0225  0.4584
 4353TIP3    H134474   1.815   2.683   5.425 -0.1698  0.0681 -0.6948
 4353TIP3    H234475   1.735   2.577   5.498 -0.4746  1.3885  0.9606
 4354TIP3   OH234476   2.939   5.375   4.195  0.0824 -0.6340  0.6160
 4354TIP3    H134477   2.850   5.386   4.162  0.3955 -1.2207 -0.4909
 4354TIP3    H234478   2.953   5.280   4.191 -0.1274 -0.8404  3.2279
 4355TIP3   OH234479   4.624   4.028  11.647  0.2903  0.1871  0.3459
 4355TIP3    H134480   4.650   4.112  11.609  0.9994  0.0089  0.4129
 4355TIP3    H234481   4.616   4.046  11.741 -1.3747  0.6067  0.1486
 4356TIP3   OH234482   4.246   6.536  14.662 -0.1452  0.0613 -0.3523
 4356TIP3    H134483   4.164   6.489  14.643  0.1242  0.3907 -2.5245
 4356TIP3    H234484   4.302   6.470  14.703 -1.5350 -0.1095  1.4155
 4357TIP3   OH234485   1.351   4.158  11.664 -0.0993 -0.1143  0.0548
 4357TIP3    H134486   1.272   4.124  11.706 -0.0573 -0.0046  0.2238
 4357TIP3    H234487   1.342   4.133  11.572  0.7640 -2.1672  0.4661
 4358TIP3   OH234488   0.480   6.408  13.382  0.1053  0.0760 -0.0271
 4358TIP3    H134489   0.573   6.421  13.361  0.1097  0.7265  0.3549
 4358TIP3    H234490   0.473   6.315  13.401  0.9647  0.2262  1.2041
 4359TIP3   OH234491   1.211   0.488   0.993 -0.5293 -0.8194  0.0411
 4359TIP3    H134492   1.191   0.515   0.903 -0.1847  0.1717  0.2430
 4359TIP3    H234493   1.266   0.411   0.983 -0.2728 -0.5637 -0.6062
 4360TIP3   OH234494   0.409   4.686   3.180 -0.7048 -0.1808 -0.1738
 4360TIP3    H134495   0.492   4.697   3.133 -0.4968 -1.6224 -0.1981
 4360TIP3    H234496   0.433   4.639   3.260 -1.5305 -0.8448 -0.3090
 4361TIP3   OH234497   1.422   4.702  10.703  0.5528 -0.2455  0.2346
 4361TIP3    H134498   1.382   4.712  10.789  1.2679  0.9598  0.4428
 4361TIP3    H234499   1.438   4.608  10.695 -0.1890 -0.4567  1.1033
 4362TIP3   OH234500   3.381   5.915  17.204  0.1971  0.0501  0.2593
 4362TIP3    H134501   3.440   5.928  17.129  0.0850 -0.0353  0.1553
 4362TIP3    H234502   3.405   5.985  17.265  2.1714 -1.4621  1.3478
 4363TIP3   OH234503   6.069   5.354   2.002  0.0353  0.1727  0.0729
 4363TIP3    H134504   6.146   5.297   1.999  0.4032  0.5044  1.8678
 4363TIP3    H234505   5.995   5.294   2.000  0.3235 -0.1645 -1.4267
 4364TIP3   OH234506   4.614   5.942   1.572 -0.4387  0.6451 -0.2280
 4364TIP3    H134507   4.585   5.862   1.617 -1.3239  1.7155  1.1951
 4364TIP3    H234508   4.709   5.939   1.578 -0.3924 -0.8083 -1.1389
 4365TIP3   OH234509   6.229   1.240  16.636 -0.0552 -0.1463 -0.0159
 4365TIP3    H134510   6.243   1.238  16.541 -1.2956  1.6274 -0.2929
 4365TIP3    H234511   6.160   1.176  16.652 -0.5972  0.3066 -0.4882
 4366TIP3   OH234512   3.946   0.766   3.333 -0.0694  0.4707 -0.5298
 4366TIP3    H134513   3.925   0.776   3.241 -0.7437 -0.7825 -0.5243
 4366TIP3    H234514   3.863   0.784   3.379 -0.4479 -1.5563 -0.3421
 4367TIP3   OH234515   3.896   5.782  11.767  0.4578  0.2583 -0.0633
 4367TIP3    H134516   3.805   5.812  11.765  0.6234  0.7994  0.4001
 4367TIP3    H234517   3.913   5.753  11.678 -0.0642  0.4773 -0.2397
 4368TIP3   OH234518   3.785   3.496   1.002 -0.0516 -0.1775 -0.3607
 4368TIP3    H134519   3.847   3.463   0.937 -0.0150  0.5955 -0.7300
 4368TIP3    H234520   3.763   3.420   1.056  0.8710 -0.5530 -0.5028
 4369TIP3   OH234521   1.803   4.740   5.512  0.1503 -0.0577 -0.0638
 4369TIP3    H134522   1.783   4.696   5.595  1.6947 -1.2513 -0.2712
 4369TIP3    H234523   1.718   4.755   5.472 -0.6899  1.3509  2.1111
 4370TIP3   OH234524   1.328   5.795   4.775  0.1664 -0.2015 -0.1617
 4370TIP3    H134525   1.415   5.833   4.777 -0.6084  1.6707  0.3219
 4370TIP3    H234526   1.300   5.802   4.684  1.3051 -2.8617 -0.8075
 4371TIP3   OH234527   4.492   2.105   2.006 -0.0385  0.0440 -0.1882
 4371TIP3    H134528   4.518   2.137   2.092  0.3395  0.7651 -0.5605
 4371TIP3    H234529   4.572   2.065   1.971 -0.1095  0.0262 -0.3282
 4372TIP3   OH234530   6.141   5.807  13.123  0.0503  0.3942  0.2519
 4372TIP3    H134531   6.131   5.817  13.218 -0.0502 -1.4408  0.4687
 4372TIP3    H234532   6.151   5.713  13.110 -1.4619  0.4483 -1.7071
 4373TIP3   OH234533   4.141   2.828  14.927 -0.5182  0.2787  0.2986
 4373TIP3    H134534   4.122   2.777  15.006  0.7052 -0.5033  0.1169
 4373TIP3    H234535   4.234   2.810  14.908 -0.0281  2.5459  0.1938
 4374TIP3   OH234536   2.319   2.526  12.492 -0.1553  0.8413 -0.0376
 4374TIP3    H134537   2.325   2.587  12.566  1.4867  1.9073 -1.0042
 4374TIP3    H234538   2.398   2.473  12.498  0.0979  1.0714 -1.1307
 4375TIP3   OH234539   0.892   2.820   0.877 -0.0852 -0.4456  0.2096
 4375TIP3    H134540   0.815   2.876   0.893  0.9574  1.4836 -1.0667
 4375TIP3    H234541   0.854   2.734   0.858 -1.7824 -0.1666  1.9760
 4376TIP3   OH234542   1.678   0.200  12.672 -0.4208 -0.6841  0.1908
 4376TIP3    H134543   1.624   0.278  12.675 -0.6157 -0.8394  0.9457
 4376TIP3    H234544   1.754   0.225  12.619 -0.3042  0.1327  0.7285
 4377TIP3   OH234545   2.036   3.631  13.598  0.1588 -0.2711 -0.1415
 4377TIP3    H134546   2.095   3.693  13.641 -1.2907  0.1058  1.3866
 4377TIP3    H234547   1.951   3.674  13.600 -0.3116 -1.0519 -1.7778
 4378TIP3   OH234548   2.235   4.146   0.879  0.6685  0.8311  0.9317
 4378TIP3    H134549   2.290   4.096   0.939  0.5086 -0.3805  0.1013
 4378TIP3    H234550   2.265   4.121   0.792 -0.0696  1.4375  0.4857
 4379TIP3   OH234551   1.283   4.446   3.149  0.1787  0.5309  0.2124
 4379TIP3    H134552   1.362   4.474   3.104  0.6501 -0.4327  0.3924
 4379TIP3    H234553   1.211   4.486   3.100  0.7127  0.2243 -0.8591
 4380TIP3   OH234554   0.105   4.758  12.137 -0.1201 -0.4410 -0.3434
 4380TIP3    H134555   0.146   4.844  12.125 -0.1389 -0.7314 -2.9816
 4380TIP3    H234556   0.172   4.706  12.182 -0.0294  0.8292  1.1074
 4381TIP3   OH234557   6.118   3.676   0.578 -0.7258  0.0275 -0.2739
 4381TIP3    H134558   6.053   3.706   0.642 -0.2412  3.0993 -1.0315
 4381TIP3    H234559   6.197   3.661   0.630 -1.2784 -0.9908  0.2881
 4382TIP3   OH234560   4.319   1.946   5.070 -0.3450  0.2625  0.5395
 4382TIP3    H134561   4.297   1.903   5.152  1.2329  1.4070  1.6307
 4382TIP3    H234562   4.412   1.926   5.057  0.4628  3.1740  1.0898
 4383TIP3   OH234563   3.263   2.678  17.022 -0.5101  0.3166 -0.2222
 4383TIP3    H134564   3.192   2.644  17.077 -0.4970  2.4564  1.2564
 4383TIP3    H234565   3.298   2.601  16.978 -1.6048 -1.2907  1.5390
 4384TIP3   OH234566   5.686   3.140   2.645 -0.0307  0.2802  0.1194
 4384TIP3    H134567   5.622   3.179   2.586 -1.0651 -1.0655  0.3034
 4384TIP3    H234568   5.749   3.211   2.663 -1.9495  1.9353  0.6578
 4385TIP3   OH234569   3.029   1.166  14.155  0.1533  0.2212 -0.3403
 4385TIP3    H134570   3.023   1.138  14.246 -1.8249  0.4272 -0.3812
 4385TIP3    H234571   3.123   1.158  14.134  0.3481 -1.8586  1.0359
 4386TIP3   OH234572   1.055   2.288   6.379  0.0110  0.1264  0.4041
 4386TIP3    H134573   0.963   2.269   6.397  0.4297 -1.5541  0.9368
 4386TIP3    H234574   1.069   2.377   6.412 -1.1559 -0.0053  1.2715
 4387TIP3   OH234575   4.550   5.712   3.424 -0.4486  0.3561  0.3329
 4387TIP3    H134576   4.500   5.685   3.347  0.7176  1.3494 -0.8223
 4387TIP3    H234577   4.485   5.754   3.481 -1.5416 -1.3996  0.4420
 4388TIP3   OH234578   2.061   2.166   3.327  0.2753 -0.0053  0.4792
 4388TIP3    H134579   2.076   2.259   3.314  0.9867 -0.3388 -1.2386
 4388TIP3    H234580   2.148   2.126   3.323 -0.1403 -0.8830 -0.1022
 4389TIP3   OH234581   1.280   6.377  13.295 -0.1621  0.4994 -0.5311
 4389TIP3    H134582   1.263   6.334  13.211  0.1937  0.0776 -0.3903
 4389TIP3    H234583   1.330   6.313  13.345  1.1889  1.4149 -0.6553
 4390TIP3   OH234584   2.642   1.541   0.625 -0.3330  0.2704 -0.0995
 4390TIP3    H134585   2.691   1.623   0.618  0.0886 -0.0744 -1.5507
 4390TIP3    H234586   2.569   1.562   0.682  0.3829  1.3492  0.4694
 4391TIP3   OH234587   0.134   1.280  12.019 -0.7353  0.6801  0.3488
 4391TIP3    H134588   0.168   1.194  12.045 -1.0046  0.2475 -0.6800
 4391TIP3    H234589   0.166   1.292  11.930  0.4935  2.3030  0.9729
 4392TIP3   OH234590   4.103   4.964   5.677  0.0129  0.4400  0.4828
 4392TIP3    H134591   4.094   5.034   5.613  1.3532  0.8610  0.7256
 4392TIP3    H234592   4.176   4.991   5.733 -0.4812 -0.3912  1.5663
 4393TIP3   OH234593   3.375   1.416  13.363  0.1221  0.4628  0.4341
 4393TIP3    H134594   3.300   1.468  13.335  0.0535  1.2557  1.9853
 4393TIP3    H234595   3.341   1.361  13.434  0.7068 -0.1462  0.2558
 4394TIP3   OH234596   2.690   2.947   4.231 -0.0142  0.0455  0.1369
 4394TIP3    H134597   2.722   2.888   4.298 -0.6317 -1.2891 -0.6951
 4394TIP3    H234598   2.605   2.977   4.264  1.6918  3.1875  2.1053
 4395TIP3   OH234599   3.199   5.131   4.512 -0.6237  0.0572  0.0650
 4395TIP3    H134600   3.172   5.144   4.421 -1.7186 -0.8268  0.2371
 4395TIP3    H234601   3.127   5.166   4.564  0.0818  0.7370  0.6070
 4396TIP3   OH234602   3.690   2.626  14.379 -0.4091 -0.0280  0.1163
 4396TIP3    H134603   3.679   2.538  14.415 -0.1091 -1.4425 -2.9229
 4396TIP3    H234604   3.785   2.637  14.372 -0.4163  0.8891  1.1332
 4397TIP3   OH234605   5.534   0.677  16.579 -0.3582 -0.2557 -0.4930
 4397TIP3    H134606   5.545   0.582  16.572 -0.4177 -0.2486 -0.6752
 4397TIP3    H234607   5.468   0.699  16.514 -1.1738 -0.2378  0.3325
 4398TIP3   OH234608   1.276   3.469   4.476  0.2952  0.3221 -0.5516
 4398TIP3    H134609   1.199   3.498   4.428 -1.3048 -1.0119  1.0997
 4398TIP3    H234610   1.325   3.416   4.412 -0.0823  1.2449 -1.6366
 4399TIP3   OH234611   6.185   6.588  16.458  0.3233  0.2340 -0.9654
 4399TIP3    H134612   6.117   6.577  16.524  1.1028  2.7155  0.3770
 4399TIP3    H234613   6.137   6.597  16.375 -0.8341 -0.0683 -0.3442
 4400TIP3   OH234614   6.734   1.880  16.732 -0.4742  0.5634  0.2393
 4400TIP3    H134615   6.780   1.865  16.650 -2.6045  0.9557 -1.0826
 4400TIP3    H234616   6.764   1.808  16.789 -0.6610 -1.0836 -1.6313
 4401TIP3   OH234617   4.164   2.256   2.150  0.3038 -0.5252 -0.3422
 4401TIP3    H134618   4.162   2.164   2.124  0.0460 -0.5284 -0.3172
 4401TIP3    H234619   4.088   2.295   2.106 -0.4241 -0.6314  0.7763
 4402TIP3   OH234620   1.128   4.318  12.407  0.6364  0.1111 -0.4535
 4402TIP3    H134621   1.154   4.376  12.336 -1.4584  1.2363 -0.3761
 4402TIP3    H234622   1.169   4.234  12.386  0.1843  0.4389 -2.9448
 4403TIP3   OH234623   4.563   4.274  11.839  0.3558  0.1812  0.0998
 4403TIP3    H134624   4.519   4.265  11.754  0.6731 -0.3870 -0.0065
 4403TIP3    H234625   4.492   4.270  11.903  0.3340 -2.0867  0.0134
 4404TIP3   OH234626   3.510   0.221  14.330 -0.0282 -0.0812 -0.3487
 4404TIP3    H134627   3.444   0.238  14.263  0.7557 -1.9761 -1.6764
 4404TIP3    H234628   3.580   0.176  14.284  2.9662  3.0937  0.6632
 4405TIP3   OH234629   6.174   3.336  15.856  0.1355  0.0166 -0.3208
 4405TIP3    H134630   6.187   3.266  15.791 -0.6536  0.6304 -1.1770
 4405TIP3    H234631   6.232   3.406  15.827  1.4046 -0.4857  0.9012
 4406TIP3   OH234632   0.196   2.819   0.501 -0.2368 -0.1795 -0.3467
 4406TIP3    H134633   0.112   2.819   0.548 -0.2482  0.3012 -0.3667
 4406TIP3    H234634   0.260   2.791   0.566 -0.5929 -1.8427 -0.6665
 4407TIP3   OH234635   4.973   4.942   2.550  0.1909 -0.3910 -0.4175
 4407TIP3    H134636   4.951   4.867   2.606  2.1536  1.0716  2.6190
 4407TIP3    H234637   5.068   4.942   2.546  0.2284  1.7084 -0.6045
 4408TIP3   OH234638   5.012   1.839   5.000  0.2570 -0.3248  0.2171
 4408TIP3    H134639   5.066   1.765   5.025  0.6368 -0.2484 -0.3444
 4408TIP3    H234640   4.983   1.818   4.911  0.9622  0.5171 -0.2323
 4409TIP3   OH234641   3.769   5.682  10.756  0.1228  0.3473 -0.1215
 4409TIP3    H134642   3.820   5.755  10.792  0.9885 -0.4886  0.4195
 4409TIP3    H234643   3.800   5.673  10.666  0.3586  0.3698 -0.0455
 4410TIP3   OH234644   3.534   3.491  11.221 -0.3911 -0.3488 -0.0911
 4410TIP3    H134645   3.622   3.524  11.236 -0.3277 -0.7781  0.4841
 4410TIP3    H234646   3.547   3.408  11.174 -0.4708 -0.6510  0.4203
 4411TIP3   OH234647   1.704   6.544   3.517  0.5555  0.3735 -0.3555
 4411TIP3    H134648   1.623   6.570   3.473  0.0702  0.4250  0.5593
 4411TIP3    H234649   1.688   6.559   3.610  0.9175 -1.4418  0.0368
 4412TIP3   OH234650   4.186   5.901  16.981 -0.4223  0.0167 -0.9246
 4412TIP3    H134651   4.118   5.919  17.045  0.3983  0.7458 -0.2353
 4412TIP3    H234652   4.197   5.983  16.933  2.5041  1.2250  1.4451
 4413TIP3   OH234653   5.809   4.017   3.488  0.2828  0.2397 -0.0744
 4413TIP3    H134654   5.836   4.030   3.397  0.2866 -1.3669 -0.3392
 4413TIP3    H234655   5.766   4.099   3.512  0.6762  0.8624 -1.3771
 4414TIP3   OH234656   4.371   3.126   5.003  0.8763 -0.1178 -0.1055
 4414TIP3    H134657   4.386   3.148   4.911  2.0857  1.2040  0.3611
 4414TIP3    H234658   4.285   3.084   5.004 -0.6938  2.7417 -1.4536
 4415TIP3   OH234659   2.167   6.168   2.211 -0.1452  0.1030  0.6301
 4415TIP3    H134660   2.211   6.176   2.295  0.2448  0.9216  0.3633
 4415TIP3    H234661   2.184   6.252   2.167 -0.5579 -0.2120 -0.1540
 4416TIP3   OH234662   1.521   4.636   2.328 -0.1680 -0.1914  0.0579
 4416TIP3    H134663   1.453   4.703   2.340  0.7078  0.4029  2.2814
 4416TIP3    H234664   1.488   4.560   2.376  0.3943 -0.1442  0.5284
 4417TIP3   OH234665   1.023   4.826   6.751  0.3681  0.2936 -0.3775
 4417TIP3    H134666   0.972   4.903   6.724  0.6283  0.2042 -1.1248
 4417TIP3    H234667   1.112   4.858   6.759  0.3927  0.1815 -0.2033
 4418TIP3   OH234668   2.210   4.298   6.247 -0.4975 -0.0350 -0.4281
 4418TIP3    H134669   2.188   4.225   6.189 -2.7509  0.3413 -0.1313
 4418TIP3    H234670   2.127   4.344   6.260  0.6416  1.9498  0.2818
 4419TIP3   OH234671   3.675   5.304  15.440  0.1541  0.5423 -0.5842
 4419TIP3    H134672   3.603   5.320  15.502  1.0050  1.2729  0.2468
 4419TIP3    H234673   3.648   5.351  15.360 -0.7435 -0.0278 -0.6239
 4420TIP3   OH234674   3.719   0.398   6.026 -0.6431 -0.3574 -0.3794
 4420TIP3    H134675   3.766   0.456   5.967 -1.2134 -0.0900 -0.5808
 4420TIP3    H234676   3.734   0.435   6.113 -0.8014 -0.0438 -0.4827
 4421TIP3   OH234677   6.295   5.770  13.793 -0.2673 -0.5824  0.1090
 4421TIP3    H134678   6.225   5.826  13.825 -0.1106 -0.5091  0.3275
 4421TIP3    H234679   6.257   5.682  13.793 -0.0495 -0.6948  1.2057
 4422TIP3   OH234680   5.906   1.283   0.333  1.1417 -0.4887  0.0168
 4422TIP3    H134681   5.848   1.281   0.409  1.1171 -1.5785 -0.0184
 4422TIP3    H234682   5.869   1.352   0.277  0.2507 -0.7308  0.2870
 4423TIP3   OH234683   3.059   3.358   2.900  0.5453 -0.3759  0.2529
 4423TIP3    H134684   3.050   3.316   2.815  1.1450  0.8704 -0.4519
 4423TIP3    H234685   3.110   3.297   2.952  0.8414 -0.8063 -0.5284
 4424TIP3   OH234686   0.789   0.034   3.851  0.2734 -0.2644  0.3088
 4424TIP3    H134687   0.851  -0.027   3.891 -1.5842 -2.4169  0.0886
 4424TIP3    H234688   0.798   0.114   3.903  1.8111 -1.1511  1.5120
 4425TIP3   OH234689   1.534   1.349  16.293  0.4677  0.4224 -0.0471
 4425TIP3    H134690   1.569   1.430  16.257 -0.9108  1.5095  0.9831
 4425TIP3    H234691   1.440   1.365  16.304  0.6508 -0.0775  3.2545
 4426TIP3   OH234692   0.241   4.030   0.117 -0.1135  0.2427  0.4871
 4426TIP3    H134693   0.237   4.050   0.024  0.3563 -0.1287  0.3827
 4426TIP3    H234694   0.178   4.090   0.157 -3.0077 -1.9374 -0.4688
 4427TIP3   OH234695   2.566   2.887   4.914 -0.6926  0.1637 -0.5902
 4427TIP3    H134696   2.548   2.975   4.946 -1.7796 -0.4127  0.4773
 4427TIP3    H234697   2.648   2.862   4.957 -1.0798  0.1705  0.1800
 4428TIP3   OH234698   6.148   0.477  12.285  0.1545 -0.0316 -0.4420
 4428TIP3    H134699   6.125   0.550  12.343 -1.6566 -0.4196 -0.6162
 4428TIP3    H234700   6.097   0.493  12.205 -0.0265 -1.3010 -0.6013
 4429TIP3   OH234701   6.008   5.987   4.505  0.4755 -0.0120 -0.4686
 4429TIP3    H134702   6.039   6.045   4.435 -1.0143  0.5590 -0.6803
 4429TIP3    H234703   5.983   5.906   4.461 -0.8554  0.4976 -0.6627
 4430TIP3   OH234704   5.254   5.351   6.438 -0.1394  0.0849 -0.2668
 4430TIP3    H134705   5.216   5.408   6.371  0.3595 -0.9378 -1.4672
 4430TIP3    H234706   5.344   5.384   6.448 -0.0890 -0.0082 -0.4037
 4431TIP3   OH234707   5.507   0.673  14.517 -0.0185 -0.4019 -0.0449
 4431TIP3    H134708   5.433   0.732  14.533  0.7397  0.3906  0.5901
 4431TIP3    H234709   5.470   0.585  14.528 -0.3279  0.0095  2.8169
 4432TIP3   OH234710   2.155   0.831  11.739 -0.3307 -0.1911  0.1087
 4432TIP3    H134711   2.237   0.834  11.690 -0.9558 -2.3202 -1.1784
 4432TIP3    H234712   2.087   0.830  11.672 -1.3941  0.3048  1.1336
 4433TIP3   OH234713   1.186   4.839  11.503  0.9156 -0.2235 -0.2053
 4433TIP3    H134714   1.166   4.840  11.409  1.3534  0.8101 -0.3005
 4433TIP3    H234715   1.108   4.877  11.544  0.5581 -1.0444 -0.1025
 4434TIP3   OH234716   6.370   2.125  15.036 -0.1027  0.1402  0.5280
 4434TIP3    H134717   6.359   2.139  14.942  0.2387  0.4790  0.5343
 4434TIP3    H234718   6.323   2.044  15.054  1.0469 -0.7165 -0.1924
 4435TIP3   OH234719   6.277   1.755   3.220 -0.1195 -1.0564 -0.2224
 4435TIP3    H134720   6.186   1.766   3.245 -0.4248 -1.7796 -0.9365
 4435TIP3    H234721   6.275   1.754   3.124  0.9283  1.0904 -0.3203
 4436TIP3   OH234722   4.539   3.015  15.009  0.2270 -0.5355  0.1259
 4436TIP3    H134723   4.622   3.053  15.039  0.2843 -1.1290  0.7249
 4436TIP3    H234724   4.483   3.091  14.991  0.6972 -0.1455  0.2860
 4437TIP3   OH234725   5.769   3.542  15.441  0.8115 -0.2164 -0.2342
 4437TIP3    H134726   5.741   3.619  15.392  2.7931 -0.3717 -1.7661
 4437TIP3    H234727   5.766   3.471  15.377  1.1196 -0.9505  0.5500
 4438TIP3   OH234728   2.301   3.795  17.180 -0.0068  0.6370 -0.5914
 4438TIP3    H134729   2.368   3.736  17.144  0.8033  0.2459  1.4388
 4438TIP3    H234730   2.223   3.740  17.189  0.6893 -0.1503  1.1066
 4439TIP3   OH234731   2.181   5.158  16.681 -0.2949 -0.7517  0.0725
 4439TIP3    H134732   2.230   5.211  16.744 -0.9818  0.9407 -0.7484
 4439TIP3    H234733   2.182   5.070  16.718 -0.1275  0.0548  2.1158
 4440TIP3   OH234734   3.851   4.337  16.780 -0.0747 -0.2798 -0.3905
 4440TIP3    H134735   3.892   4.330  16.694  0.7837 -1.4782  0.0823
 4440TIP3    H234736   3.771   4.284  16.773  0.5035 -1.2034 -0.1800
 4441TIP3   OH234737   3.422   2.895   1.671 -0.0299  0.3198 -0.0167
 4441TIP3    H134738   3.484   2.966   1.690  0.7142 -0.4088  0.3351
 4441TIP3    H234739   3.381   2.921   1.588 -0.2128  1.4530  0.4157
 4442TIP3   OH234740   5.216   3.665  16.946  0.4378 -0.0161 -0.2388
 4442TIP3    H134741   5.221   3.668  16.851 -0.6659 -1.1519 -0.3775
 4442TIP3    H234742   5.135   3.616  16.964 -0.6228  2.1067  1.2966
 4443TIP3   OH234743   0.819   0.423   3.644  0.0939  0.0166 -0.1122
 4443TIP3    H134744   0.876   0.349   3.666 -0.2949 -0.4081 -0.5300
 4443TIP3    H234745   0.731   0.393   3.666 -0.1485  0.0841 -0.9643
 4444TIP3   OH234746   4.098   5.452  16.111  0.0598 -0.1026 -0.3378
 4444TIP3    H134747   4.081   5.507  16.035 -1.9275  0.3205  0.3274
 4444TIP3    H234748   4.043   5.374  16.096  0.7207 -0.6459  0.0202
 4445TIP3   OH234749   0.773   1.222  10.640 -0.0878  0.8638 -0.2281
 4445TIP3    H134750   0.866   1.216  10.616  0.2869  1.9123  0.8757
 4445TIP3    H234751   0.772   1.216  10.735 -1.1525  0.8854 -0.2308
 4446TIP3   OH234752   5.117   6.492  10.913  0.1423  0.4763  0.5636
 4446TIP3    H134753   5.193   6.488  10.971 -1.6258  0.4039  3.0400
 4446TIP3    H234754   5.146   6.544  10.839  3.0976 -0.9671  0.5606
 4447TIP3   OH234755   5.531   1.915  13.368  0.3565  0.0225  1.3036
 4447TIP3    H134756   5.600   1.866  13.323 -0.2884 -0.1520  0.4716
 4447TIP3    H234757   5.452   1.899  13.315 -0.2182  0.6023  1.9644
 4448TIP3   OH234758   3.461   2.013   2.950  0.4402  0.2060  0.1241
 4448TIP3    H134759   3.469   2.101   2.915 -0.9974  0.3383  0.0805
 4448TIP3    H234760   3.405   1.967   2.888  0.5610 -0.5261  0.5445
 4449TIP3   OH234761   3.444   4.192  11.614  0.2832  0.4057  0.1391
 4449TIP3    H134762   3.393   4.218  11.537 -0.1391  1.2794  0.7002
 4449TIP3    H234763   3.473   4.275  11.653  2.0256 -0.0550 -0.0709
 4450TIP3   OH234764   6.311   3.463   3.503 -0.1084 -0.0070 -0.0251
 4450TIP3    H134765   6.237   3.402   3.497  0.5252 -0.6465 -2.4467
 4450TIP3    H234766   6.376   3.416   3.556 -0.6417 -0.2886  0.4006
 4451TIP3   OH234767   6.331   4.417   7.035 -0.4133 -0.0588 -0.1440
 4451TIP3    H134768   6.388   4.390   6.963 -0.7971 -0.1090 -0.4376
 4451TIP3    H234769   6.265   4.472   6.993 -1.3180 -1.0299 -0.0307
 4452TIP3   OH234770   4.288   3.504   1.367  0.7778  0.6577 -0.6523
 4452TIP3    H134771   4.246   3.579   1.409  0.2495  1.4542 -2.5012
 4452TIP3    H234772   4.308   3.445   1.439 -2.3596  0.8023  0.5016
 4453TIP3   OH234773   5.275   5.302   3.884 -0.3859  0.1658 -0.4651
 4453TIP3    H134774   5.232   5.387   3.881 -0.7965 -0.0476 -0.7119
 4453TIP3    H234775   5.259   5.270   3.973  1.3957  1.1665  0.2692
 4454TIP3   OH234776   0.791   0.616   2.482 -0.0917 -0.4012  0.1668
 4454TIP3    H134777   0.822   0.703   2.457 -1.8060 -0.2119 -1.5816
 4454TIP3    H234778   0.830   0.600   2.568  0.3165  2.0767  0.5224
 4455TIP3   OH234779   5.492   2.854  11.755 -0.2996 -0.9353 -0.1699
 4455TIP3    H134780   5.586   2.866  11.747 -0.3289 -0.9039 -0.4858
 4455TIP3    H234781   5.457   2.942  11.767 -0.2308 -1.0076  0.5962
 4456TIP3   OH234782   5.141   3.006  16.087 -0.5048 -0.4216 -0.1109
 4456TIP3    H134783   5.130   3.037  16.177 -1.7191 -1.5114  0.1437
 4456TIP3    H234784   5.161   2.912  16.096 -0.2678 -0.4654 -0.9694
 4457TIP3   OH234785   2.740   1.210   3.905  0.1284  0.0164 -0.3394
 4457TIP3    H134786   2.749   1.124   3.863  0.0830 -0.6272  0.9166
 4457TIP3    H234787   2.745   1.273   3.832 -0.0806 -1.0499 -1.3098
 4458TIP3   OH234788   3.917   0.597  16.369 -0.0728 -0.1715  0.0869
 4458TIP3    H134789   3.941   0.552  16.450  1.4273  1.7651  0.7817
 4458TIP3    H234790   3.835   0.642  16.390 -0.7838 -1.3111 -0.1516
 4459TIP3   OH234791   2.522   5.243  15.233  0.0836 -0.4174  0.1357
 4459TIP3    H134792   2.524   5.204  15.320 -1.7204  1.1590  0.9615
 4459TIP3    H234793   2.613   5.269  15.216  0.3101  0.1171  1.9779
 4460TIP3   OH234794   1.614   2.802  15.293 -0.2544  0.0861  0.0609
 4460TIP3    H134795   1.658   2.778  15.212  1.9211  0.8790  0.9246
 4460TIP3    H234796   1.674   2.772  15.362  0.0664  3.1387  1.2786
 4461TIP3   OH234797   6.484   4.406  15.747  0.6204  0.1187  0.1080
 4461TIP3    H134798   6.453   4.483  15.699 -0.7696 -0.6339 -0.2747
 4461TIP3    H234799   6.556   4.372  15.694  2.3134  1.9966  1.0794
 4462TIP3   OH234800   4.732   4.036  14.331  0.1210  0.0945 -0.3804
 4462TIP3    H134801   4.759   4.109  14.387 -1.5419  0.8955 -0.5666
 4462TIP3    H234802   4.702   3.969  14.392 -0.9923  0.6818 -0.2491
 4463TIP3   OH234803   2.495   3.577  16.381 -0.2719  0.1602 -0.6605
 4463TIP3    H134804   2.455   3.492  16.361  1.2044 -0.9191  0.6946
 4463TIP3    H234805   2.509   3.575  16.476  2.0019  0.8848 -0.9135
 4464TIP3   OH234806   5.237   4.205   6.169 -0.2682  0.4021  0.0700
 4464TIP3    H134807   5.297   4.181   6.098  0.5041 -0.6172  1.0472
 4464TIP3    H234808   5.214   4.296   6.150  2.0731  1.0398  0.0084
 4465TIP3   OH234809   1.172   2.662  16.944  0.2554 -0.7884 -0.2293
 4465TIP3    H134810   1.222   2.612  16.880  0.9118 -2.1478  1.2752
 4465TIP3    H234811   1.099   2.604  16.968  0.5156 -0.6932  0.8700
 4466TIP3   OH234812   5.786   3.491   1.665 -0.1541  0.0199  0.1089
 4466TIP3    H134813   5.789   3.395   1.661 -0.9867 -0.1174  1.8197
 4466TIP3    H234814   5.735   3.517   1.588 -0.5295 -0.9577  0.0153
 4467TIP3   OH234815   2.044   3.477   0.202  0.1680  0.2608 -0.1061
 4467TIP3    H134816   1.954   3.508   0.209  0.8750  2.2284  1.1548
 4467TIP3    H234817   2.039   3.402   0.142 -2.2143  0.5717 -0.4024
 4468TIP3   OH234818   0.456   4.102   3.846  0.9169 -0.0731 -0.3063
 4468TIP3    H134819   0.388   4.156   3.805  1.0299  0.6403  0.4138
 4468TIP3    H234820   0.442   4.113   3.940  2.1266  0.2094 -0.1401
 4469TIP3   OH234821   3.080   6.034  13.635 -0.0527  0.3175  0.7747
 4469TIP3    H134822   3.153   6.087  13.606  0.5044  0.7332  2.7738
 4469TIP3    H234823   3.021   6.030  13.560  1.7230  0.4651 -0.6865
 4470TIP3   OH234824   3.477   3.355  10.705  0.2196 -0.0842 -0.1849
 4470TIP3    H134825   3.527   3.284  10.745 -0.8696 -0.4747  0.5464
 4470TIP3    H234826   3.473   3.423  10.773 -1.2992 -0.5882  0.2748
 4471TIP3   OH234827   2.539   2.363  12.518  0.1733 -0.5919  0.1483
 4471TIP3    H134828   2.596   2.333  12.447 -0.2281 -0.6960 -0.1344
 4471TIP3    H234829   2.585   2.338  12.598 -1.0035 -3.7532 -0.0391
 4472TIP3   OH234830   0.350   1.578   3.480  0.5885 -0.0089 -0.1124
 4472TIP3    H134831   0.397   1.661   3.472 -0.9702  0.7258 -2.6837
 4472TIP3    H234832   0.259   1.603   3.492 -0.2262 -1.2476 -2.9602
 4473TIP3   OH234833   5.542   6.663  12.206  0.0501  0.7260  0.5077
 4473TIP3    H134834   5.568   6.749  12.173  1.7009  0.4980  1.1156
 4473TIP3    H234835   5.447   6.664  12.204  0.0339  2.6307  0.6466
 4474TIP3   OH234836   2.105   2.793  16.171 -0.7341 -0.0508 -0.0594
 4474TIP3    H134837   2.138   2.852  16.103 -0.4814 -0.5317 -0.3590
 4474TIP3    H234838   2.043   2.736  16.126 -1.1077  0.0951  0.2672
 4475TIP3   OH234839   5.129   0.787  16.798  0.0048 -0.3238 -0.5046
 4475TIP3    H134840   5.151   0.696  16.777  1.8842 -0.0092 -0.0389
 4475TIP3    H234841   5.214   0.830  16.809 -0.8707  1.2976  0.1228
 4476TIP3   OH234842   6.266   6.400  12.080 -0.1998  0.5328 -0.1981
 4476TIP3    H134843   6.266   6.495  12.068  0.7880  1.1690  3.5485
 4476TIP3    H234844   6.356   6.373  12.063  0.0389  0.6631  0.7854
 4477TIP3   OH234845   3.824   5.319   5.215  0.1588 -0.0255  0.2306
 4477TIP3    H134846   3.906   5.306   5.167  0.2989 -0.2150  0.5156
 4477TIP3    H234847   3.832   5.405   5.255  0.6746 -0.4679  1.1226
 4478TIP3   OH234848   4.628   4.492  11.328 -0.2380 -0.7755 -0.5445
 4478TIP3    H134849   4.605   4.553  11.258 -1.6301 -0.6006  0.0420
 4478TIP3    H234850   4.724   4.486  11.324 -0.3378 -2.5636 -3.9593
 4479TIP3   OH234851   1.253   2.931   3.173 -0.0156 -0.3750 -0.3183
 4479TIP3    H134852   1.312   2.939   3.248 -0.3414 -0.3221 -0.0669
 4479TIP3    H234853   1.305   2.887   3.106  1.7948  3.3774 -1.6739
 4480TIP3   OH234854   5.424   3.516   1.608 -0.2320 -0.1300 -0.1221
 4480TIP3    H134855   5.447   3.424   1.594  1.3049 -0.1357  2.0016
 4480TIP3    H234856   5.335   3.514   1.644 -0.1239 -0.8063  0.1227
 4481TIP3   OH234857   6.132   3.905   0.391  0.0263  0.5386  0.2900
 4481TIP3    H134858   6.126   3.823   0.440 -0.1906 -0.0847 -0.7383
 4481TIP3    H234859   6.113   3.973   0.456 -2.3733 -0.3716  0.6817
 4482TIP3   OH234860   1.402   0.453   2.413 -0.3076  0.4604  0.4374
 4482TIP3    H134861   1.385   0.359   2.404  0.1474  0.4545 -0.4057
 4482TIP3    H234862   1.470   0.459   2.480  2.3522 -0.1005 -2.0414
 4483TIP3   OH234863   0.013   0.300   0.769 -0.0715  0.1831  0.2882
 4483TIP3    H134864   0.038   0.356   0.842 -1.4876  1.1627  0.0720
 4483TIP3    H234865  -0.026   0.223   0.810 -1.0771  0.8347  0.5971
 4484TIP3   OH234866   0.176   0.017   4.295 -0.5417 -0.1059  0.0268
 4484TIP3    H134867   0.200   0.092   4.349 -0.5007 -0.6949  0.8419
 4484TIP3    H234868   0.095  -0.015   4.334 -1.9686  1.0248 -1.8482
 4485TIP3   OH234869   4.650   3.570   3.973 -0.0877  0.1647 -0.4384
 4485TIP3    H134870   4.563   3.571   4.013 -0.2765  2.1191 -0.8287
 4485TIP3    H234871   4.707   3.534   4.042 -1.4603 -3.3513 -0.9384
 4486TIP3   OH234872   0.470   2.576   1.458  0.1325 -0.5503 -0.0603
 4486TIP3    H134873   0.465   2.601   1.550  1.4249 -2.0160  0.4618
 4486TIP3    H234874   0.509   2.489   1.459 -2.2166 -1.7516 -1.8492
 4487TIP3   OH234875   0.762   2.536   1.667 -0.4753  0.1039 -0.4630
 4487TIP3    H134876   0.685   2.481   1.656  0.3155 -1.8491  2.5036
 4487TIP3    H234877   0.832   2.488   1.623  0.4258 -2.0877  2.9335
 4488TIP3   OH234878   0.867   0.775   6.709 -0.3192  0.4804 -0.0100
 4488TIP3    H134879   0.854   0.848   6.770 -0.6629  2.1386 -1.9476
 4488TIP3    H234880   0.784   0.726   6.714 -0.1855  0.3216  1.1166
 4489TIP3   OH234881   1.864   4.130   0.348 -0.1141  0.2738  0.4412
 4489TIP3    H134882   1.844   4.187   0.274 -0.3111  1.6510  1.5158
 4489TIP3    H234883   1.851   4.185   0.425  2.8723 -0.2170  1.4335
 4490TIP3   OH234884   2.339   1.925   1.188  0.4718  0.4808  0.2737
 4490TIP3    H134885   2.419   1.954   1.143  0.4774  0.6408  0.3844
 4490TIP3    H234886   2.268   1.949   1.128  0.6468 -1.9719 -1.0255
 4491TIP3   OH234887   2.933   0.317   1.527  0.2497 -0.0058  0.2873
 4491TIP3    H134888   2.976   0.232   1.532 -0.7380 -0.4794  1.2323
 4491TIP3    H234889   2.842   0.297   1.504  0.1892  0.8637 -0.2926
 4492TIP3   OH234890   4.881   5.579   0.191 -0.6772  0.3200 -0.7506
 4492TIP3    H134891   4.808   5.564   0.251 -2.0828  1.2551 -2.1615
 4492TIP3    H234892   4.876   5.672   0.169  2.2101  0.9131  0.6511
 4493TIP3   OH234893   3.580   4.576  16.700 -0.0057  0.2486  0.1116
 4493TIP3    H134894   3.597   4.652  16.645 -0.8546 -0.2877 -0.9274
 4493TIP3    H234895   3.641   4.509  16.669  2.4175  1.1384  2.5625
 4494TIP3   OH234896   3.332   4.390  16.051 -0.2880  0.1507  0.4938
 4494TIP3    H134897   3.273   4.335  15.999  0.0004  0.7245 -0.4719
 4494TIP3    H234898   3.419   4.372  16.014 -0.1308  0.8577  0.5143
 4495TIP3   OH234899   1.791   3.435   0.623 -0.0679  0.1835 -0.1840
 4495TIP3    H134900   1.848   3.407   0.551  1.8994 -2.8232  2.3032
 4495TIP3    H234901   1.816   3.526   0.638  2.4456 -0.3233 -0.7335
 4496TIP3   OH234902   3.981   1.762  16.594 -0.2228 -0.1499  0.2547
 4496TIP3    H134903   3.933   1.814  16.529 -2.8968 -0.8288  1.5759
 4496TIP3    H234904   3.952   1.672  16.580  0.9514 -0.6603  0.9251
 4497TIP3   OH234905   1.396   6.019   0.484 -0.0390 -0.2567 -0.8815
 4497TIP3    H134906   1.396   6.100   0.433 -0.6292 -0.3021 -0.9557
 4497TIP3    H234907   1.382   5.950   0.418  0.5495 -0.4294 -0.8316
 4498TIP3   OH234908   0.928   0.380  14.657 -0.4682  0.0206 -0.2072
 4498TIP3    H134909   0.917   0.452  14.594 -0.5530 -0.8393 -1.1933
 4498TIP3    H234910   0.933   0.301  14.603  0.5787 -0.6348  0.8041
 4499TIP3   OH234911   6.115   5.138   4.560  0.2853 -0.3963 -0.4188
 4499TIP3    H134912   6.027   5.159   4.589  0.2926 -0.8321 -0.0801
 4499TIP3    H234913   6.118   5.042   4.558  1.1360 -0.4178  0.7888
 4500TIP3   OH234914   5.509   3.008  14.291 -0.4752 -0.6623  0.1414
 4500TIP3    H134915   5.519   2.962  14.374 -4.3422 -0.1372  1.0750
 4500TIP3    H234916   5.426   2.977  14.256  0.4164  0.0921 -2.9768
 4501TIP3   OH234917   4.009   0.264   0.487  0.5011  0.0633 -0.2680
 4501TIP3    H134918   4.017   0.303   0.400 -0.8229  0.8099 -0.0766
 4501TIP3    H234919   3.956   0.326   0.536  2.2854  0.2863  1.4806
 4502TIP3   OH234920   6.013   4.478   5.707 -0.0996  0.3801  0.6247
 4502TIP3    H134921   6.038   4.568   5.726 -0.1741  0.2741  1.2439
 4502TIP3    H234922   5.963   4.483   5.626  1.9122  0.6064 -0.6966
 4503TIP3   OH234923   4.296   1.110  16.598  0.6603  0.1904 -0.0529
 4503TIP3    H134924   4.378   1.155  16.618 -0.3220  2.0454  0.0409
 4503TIP3    H234925   4.232   1.151  16.656 -0.6906  0.0844 -1.4054
 4504TIP3   OH234926   6.446   2.893  14.127  0.3378 -0.1804  0.2671
 4504TIP3    H134927   6.517   2.849  14.081  0.2246 -0.6624  0.5413
 4504TIP3    H234928   6.406   2.950  14.062  1.1324  0.2833  0.1744
 4505TIP3   OH234929   5.345   5.125   2.359  0.0591  0.0721  0.0819
 4505TIP3    H134930   5.328   5.124   2.265  0.9425 -1.4118 -0.1083
 4505TIP3    H234931   5.435   5.092   2.367 -0.4218 -1.0201  1.5053
 4506TIP3   OH234932   1.298   4.803   5.204  0.2697 -0.5711 -0.1321
 4506TIP3    H134933   1.331   4.849   5.127 -0.2611 -0.4647 -0.3012
 4506TIP3    H234934   1.346   4.842   5.277 -0.1470  0.2396 -0.2774
 4507TIP3   OH234935   1.230   2.551   5.335  0.6698  0.0786 -0.5954
 4507TIP3    H134936   1.144   2.530   5.372  0.2966  0.9275 -0.9653
 4507TIP3    H234937   1.214   2.560   5.241  1.4708 -1.3277 -0.8896
 4508TIP3   OH234938   2.858   2.420  11.595  0.0167 -0.1353  0.3534
 4508TIP3    H134939   2.783   2.362  11.605 -0.7243  0.6067 -0.6629
 4508TIP3    H234940   2.826   2.506  11.624 -0.1942  0.6277 -1.9397
 4509TIP3   OH234941   1.206   0.837  15.135  0.1862  0.4513  0.1157
 4509TIP3    H134942   1.248   0.752  15.126 -0.6975 -0.1206  1.2493
 4509TIP3    H234943   1.117   0.824  15.103 -0.1834  0.7537  0.9994
 4510TIP3   OH234944   4.157   2.019   4.778 -0.2091 -0.0272  0.1514
 4510TIP3    H134945   4.140   2.047   4.688 -0.4604  1.2306  0.5769
 4510TIP3    H234946   4.171   1.924   4.771 -0.6166 -0.0114 -1.1528
 4511TIP3   OH234947   6.448   1.614   1.828 -0.0301  0.3056  0.4435
 4511TIP3    H134948   6.461   1.519   1.818  0.4086  0.4368 -0.2881
 4511TIP3    H234949   6.535   1.649   1.845 -0.0710  0.6689 -0.0745
 4512TIP3   OH234950   3.165   2.779  16.012  0.1353 -0.4733 -0.7355
 4512TIP3    H134951   3.192   2.784  16.104 -1.5685 -0.0496 -0.2166
 4512TIP3    H234952   3.115   2.860  15.998 -1.4004 -1.4835 -1.3934
 4513TIP3   OH234953   2.236   0.451   2.591  0.3049 -0.5032 -0.6429
 4513TIP3    H134954   2.222   0.522   2.653  2.0503 -0.5428 -0.1741
 4513TIP3    H234955   2.159   0.394   2.602  0.1635 -0.0512  0.8358
 4514TIP3   OH234956   3.562   0.135   4.486  0.2902 -0.2403 -0.0820
 4514TIP3    H134957   3.610   0.131   4.403 -1.3589  0.0720 -1.1089
 4514TIP3    H234958   3.511   0.054   4.488 -0.1180  0.0234  0.3293
 4515TIP3   OH234959   6.427   6.364  14.642 -0.3967 -0.3509  0.4913
 4515TIP3    H134960   6.402   6.400  14.558  1.0055  0.2776  0.3098
 4515TIP3    H234961   6.496   6.422  14.674  0.6629 -1.8299  1.0213
 4516TIP3   OH234962   5.796   4.745   5.029  0.3697 -0.2983 -0.0467
 4516TIP3    H134963   5.780   4.772   4.939  0.4257 -0.1715 -0.0184
 4516TIP3    H234964   5.709   4.733   5.067  0.3109  1.5673  0.4703
 4517TIP3   OH234965   5.819   0.140   5.322  0.0111  0.4514  0.4254
 4517TIP3    H134966   5.725   0.142   5.303  0.0258  0.0362  0.3024
 4517TIP3    H234967   5.831   0.059   5.372  0.7612 -0.9892 -1.9643
 4518TIP3   OH234968   4.210   4.369  11.506  0.1012  0.3549 -0.4358
 4518TIP3    H134969   4.158   4.291  11.527  0.6621 -0.2171 -1.1498
 4518TIP3    H234970   4.160   4.413  11.438 -0.7384  1.1894  0.6757
 4519TIP3   OH234971   1.838   6.600  13.302  0.4719  0.3439 -0.0476
 4519TIP3    H134972   1.883   6.626  13.382  2.0481 -2.8521  0.2638
 4519TIP3    H234973   1.909   6.579  13.241 -0.6153 -1.4950 -0.7385
 4520TIP3   OH234974   5.279   3.910  12.089  0.4192 -0.1717 -0.8063
 4520TIP3    H134975   5.282   3.972  12.162 -3.6741  0.4147 -0.9328
 4520TIP3    H234976   5.281   3.965  12.011 -0.8124 -0.3303 -0.9678
 4521TIP3   OH234977   3.071   2.865  17.178  0.4815 -0.2279  0.0080
 4521TIP3    H134978   3.034   2.948  17.207  0.8076 -0.2913  0.6274
 4521TIP3    H234979   3.078   2.874  17.083 -0.8539 -0.1112 -0.1081
 4522TIP3   OH234980   2.046   2.410   1.376  0.7972 -0.1850 -0.0135
 4522TIP3    H134981   1.955   2.379   1.375  0.6636  0.1291  1.1509
 4522TIP3    H234982   2.039   2.503   1.355  0.9167 -0.2915 -0.5392
 4523TIP3   OH234983   5.392   1.043  11.706  0.6213 -0.1622  0.0634
 4523TIP3    H134984   5.304   1.009  11.721 -0.4751  2.5927  0.3727
 4523TIP3    H234985   5.443   1.009  11.779 -0.4241 -1.0220  0.4224
 4524TIP3   OH234986   5.260   2.108  16.347  0.2644 -0.4617 -0.1574
 4524TIP3    H134987   5.190   2.152  16.298 -1.6898 -1.7213  1.3632
 4524TIP3    H234988   5.317   2.180  16.376 -0.6701  0.6482 -0.9796
 4525TIP3   OH234989   3.912   5.703   5.833  0.2404 -0.4696  0.1276
 4525TIP3    H134990   3.898   5.746   5.917 -0.1179  1.8020 -1.0060
 4525TIP3    H234991   4.005   5.718   5.815  0.3593 -1.1143  0.2005
 4526TIP3   OH234992   2.485   6.646   5.224  0.3005  0.2015  0.0158
 4526TIP3    H134993   2.431   6.572   5.197  0.2752 -0.2979  1.3557
 4526TIP3    H234994   2.440   6.723   5.191 -0.8167 -0.2600  0.4279
 4527TIP3   OH234995   6.745   2.824   0.025  0.0534 -0.1940 -0.5068
 4527TIP3    H134996   6.836   2.851   0.030  0.2219  0.3634 -4.1338
 4527TIP3    H234997   6.695   2.906   0.031 -0.1161 -0.3100 -0.3031
 4528TIP3   OH234998   0.249   0.264  15.056  0.5301  0.0263  0.3215
 4528TIP3    H134999   0.207   0.239  14.974 -0.4711  1.0865  0.4817
 4528TIP3    H235000   0.300   0.341  15.035  0.9074 -0.1642  0.5306
 4529TIP3   OH235001   1.488   0.114  11.285 -0.1021 -0.2325  0.2538
 4529TIP3    H135002   1.461   0.172  11.356 -1.8128  0.9161 -1.2204
 4529TIP3    H235003   1.558   0.162  11.241 -0.7726  0.2501 -0.3125
 4530TIP3   OH235004   6.648   0.185  11.906 -0.2854 -0.1626  0.2137
 4530TIP3    H135005   6.695   0.269  11.907 -2.5229  1.1636  1.2843
 4530TIP3    H235006   6.665   0.147  11.992 -0.2618 -0.2189  0.1843
 4531TIP3   OH235007   0.156   3.877   4.657  0.1524  0.4123  0.0103
 4531TIP3    H135008   0.090   3.838   4.715 -0.7746  1.0961 -0.5518
 4531TIP3    H235009   0.108   3.895   4.576  1.4085 -0.4738 -0.9718
 4532TIP3   OH235010   1.962   5.325   2.462 -0.2204 -0.2840 -0.2153
 4532TIP3    H135011   1.949   5.230   2.456 -1.8980 -0.1435  0.6516
 4532TIP3    H235012   2.037   5.335   2.521 -0.3513 -1.0596  0.0944
 4533TIP3   OH235013   0.186   6.110  16.885 -0.2443  0.6808  0.2483
 4533TIP3    H135014   0.240   6.094  16.963  0.9167  2.2647 -0.1882
 4533TIP3    H235015   0.244   6.156  16.825 -1.7219  1.2695 -0.7748
 4534TIP3   OH235016   3.975   3.665  16.734  0.6024 -0.6383 -0.3786
 4534TIP3    H135017   3.880   3.666  16.731  0.2862 -5.5681 -0.6501
 4534TIP3    H235018   4.002   3.743  16.686 -3.2147  1.0504 -0.0984
 4535TIP3   OH235019   2.058   0.193   3.236  0.2084 -0.1753  0.4380
 4535TIP3    H135020   1.984   0.224   3.183  0.0140  0.2191  0.9290
 4535TIP3    H235021   2.114   0.270   3.245  0.2008 -0.2195  0.8681
 4536TIP3   OH235022   0.206   0.714   1.300  0.0111 -0.0603  0.2206
 4536TIP3    H135023   0.244   0.801   1.309 -0.5127  0.3260 -1.1246
 4536TIP3    H235024   0.259   0.671   1.233 -2.1940  0.7252 -2.2044
 4537TIP3   OH235025   2.957   6.238  11.907  0.4494  0.2554  0.8813
 4537TIP3    H135026   3.004   6.189  11.839 -2.0360  0.4396 -1.1235
 4537TIP3    H235027   2.999   6.324  11.907  1.8199 -0.3813  1.1106
 4538TIP3   OH235028   6.200   0.484  12.644 -0.2191  0.5705 -0.2062
 4538TIP3    H135029   6.108   0.473  12.620  0.3841 -1.3524 -1.9928
 4538TIP3    H235030   6.211   0.431  12.723 -0.4402 -0.0909 -0.6090
 4539TIP3   OH235031   1.121   4.544  14.680 -0.1827  0.2657 -0.5977
 4539TIP3    H135032   1.078   4.474  14.631  0.1964  0.3633 -1.0785
 4539TIP3    H235033   1.125   4.618  14.619 -0.2191  0.5745 -0.2282
 4540TIP3   OH235034   1.822   5.031  12.179  0.3831 -0.2648 -0.2727
 4540TIP3    H135035   1.787   5.059  12.095  0.1336  0.6890  0.1415
 4540TIP3    H235036   1.913   5.008  12.160  1.4653  3.3600 -0.2152
 4541TIP3   OH235037   6.384   1.606  13.996 -0.4542 -0.2780 -0.1796
 4541TIP3    H135038   6.363   1.617  14.088 -0.7053  0.0305 -0.2697
 4541TIP3    H235039   6.411   1.693  13.967 -0.3592 -0.3772 -0.3907
 4542TIP3   OH235040   3.586   2.790   4.666  0.2937  0.0772 -0.1113
 4542TIP3    H135041   3.500   2.748   4.673  1.1418 -2.1251 -1.8615
 4542TIP3    H235042   3.642   2.737   4.723  0.3312  2.2294  1.9900
 4543TIP3   OH235043   3.292   4.608  13.548 -0.0629 -0.3196 -0.4858
 4543TIP3    H135044   3.302   4.525  13.503 -2.0350 -0.5090 -0.6652
 4543TIP3    H235045   3.199   4.630  13.539  0.1358  1.2502  0.6864
 4544TIP3   OH235046   2.855   2.097  14.042  0.5754  0.0325  0.0084
 4544TIP3    H135047   2.913   2.024  14.020  0.3916 -0.3020  0.6093
 4544TIP3    H235048   2.766   2.062  14.031  0.4104 -0.7296  2.8738
 4545TIP3   OH235049   0.590   3.540  13.835 -0.3505 -0.0899 -0.2096
 4545TIP3    H135050   0.538   3.600  13.781 -0.9908 -0.3041  0.1565
 4545TIP3    H235051   0.641   3.597  13.892 -0.4351  0.1184 -0.3400
 4546TIP3   OH235052   1.459   4.069   1.036 -0.1760 -0.3278 -1.0101
 4546TIP3    H135053   1.537   4.109   1.073 -1.4389 -1.3884  3.3874
 4546TIP3    H235054   1.405   4.143   1.006  0.2808  0.8169  0.8695
 4547TIP3   OH235055   1.768   6.064   4.750 -0.2061 -0.5680  0.3324
 4547TIP3    H135056   1.860   6.089   4.760 -0.1485 -0.9003  0.6435
 4547TIP3    H235057   1.726   6.141   4.711  0.0855 -0.1982  0.7450
 4548TIP3   OH235058   0.175   4.579  15.267  0.5880 -0.2781  0.2377
 4548TIP3    H135059   0.234   4.614  15.199 -1.4697 -0.9842 -2.0826
 4548TIP3    H235060   0.125   4.655  15.296  0.7752 -0.1403  0.2007
 4549TIP3   OH235061   3.444   1.441  16.845 -0.6347 -0.3026  0.1902
 4549TIP3    H135062   3.436   1.346  16.839 -0.8508 -0.2838  0.1827
 4549TIP3    H235063   3.535   1.459  16.824 -0.8360 -0.4201 -0.8125
 4550TIP3   OH235064   5.587   1.494  14.939 -0.3797  0.2361 -0.0040
 4550TIP3    H135065   5.578   1.546  14.860  0.8764 -0.6957 -0.8091
 4550TIP3    H235066   5.645   1.422  14.914 -0.6236 -0.5517  1.5404
 4551TIP3   OH235067   1.826   0.535   5.233 -0.0702  0.1282  0.4422
 4551TIP3    H135068   1.737   0.499   5.239  0.1000 -0.3353  0.2306
 4551TIP3    H235069   1.866   0.513   5.318 -0.9571  2.5584  1.5705
 4552TIP3   OH235070   4.008   0.269  10.892  0.5012 -0.6984  0.4924
 4552TIP3    H135071   3.990   0.322  10.814 -0.1042  0.7215  1.5349
 4552TIP3    H235072   3.948   0.195  10.885 -0.6238  0.1944  0.3238
 4553TIP3   OH235073   4.103   2.549   1.006 -0.2258 -0.0872 -0.1040
 4553TIP3    H135074   4.100   2.592   0.921 -0.4601  0.4804  0.1840
 4553TIP3    H235075   4.190   2.511   1.011 -0.0871  0.1844 -0.4512
 4554TIP3   OH235076   1.189   1.525  14.001  0.2717  0.1421 -0.3585
 4554TIP3    H135077   1.231   1.590  14.057  1.6944 -1.2244  0.2609
 4554TIP3    H235078   1.229   1.538  13.915 -0.0949  0.6476 -0.4528
 4555TIP3   OH235079   3.117   2.894  15.421 -0.0136 -1.0562 -0.2828
 4555TIP3    H135080   3.119   2.959  15.491 -0.3044 -0.4089 -0.8652
 4555TIP3    H235081   3.083   2.814  15.463 -0.4612 -0.5946  0.2426
 4556TIP3   OH235082   2.168   4.196   3.704 -0.4863 -0.3978 -0.3268
 4556TIP3    H135083   2.195   4.199   3.612 -0.0700 -0.6569 -0.2179
 4556TIP3    H235084   2.149   4.287   3.727  1.9742  0.0620  0.0824
 4557TIP3   OH235085   3.963   6.185   1.474 -0.5478  0.2996  0.1676
 4557TIP3    H135086   3.930   6.274   1.486 -1.0244 -0.0315  1.4359
 4557TIP3    H235087   4.054   6.189   1.503 -0.7143  0.2683  0.7013
 4558TIP3   OH235088   5.858   6.221   0.783  0.1483  0.0542 -0.0459
 4558TIP3    H135089   5.924   6.152   0.781  2.3620  2.0521 -1.5376
 4558TIP3    H235090   5.827   6.221   0.874  2.6169 -0.6237  0.8856
 4559TIP3   OH235091   6.099   4.605  13.971 -0.1283  0.7384  0.0713
 4559TIP3    H135092   6.149   4.686  13.982 -1.2308  1.5966 -0.9882
 4559TIP3    H235093   6.063   4.611  13.883  1.0294 -1.6618 -0.6355
 4560TIP3   OH235094   0.126   3.178  16.462  0.0489 -0.2366 -0.8929
 4560TIP3    H135095   0.073   3.101  16.443  0.2731 -0.8327  0.7378
 4560TIP3    H235096   0.084   3.249  16.413 -1.5789 -0.9092 -0.5348
 4561TIP3   OH235097   0.943   0.063  16.856 -0.2774 -0.1733  0.1084
 4561TIP3    H135098   0.937   0.158  16.865 -2.2555 -0.3242  0.9883
 4561TIP3    H235099   0.921   0.046  16.765  0.4859  0.2344 -0.1553
 4562TIP3   OH235100   0.695   3.195   2.633  0.1360 -0.0082 -0.0272
 4562TIP3    H135101   0.739   3.267   2.589 -1.0933  0.0249 -1.2690
 4562TIP3    H235102   0.608   3.229   2.655 -0.4351 -1.0410 -0.5661
 4563TIP3   OH235103   6.150   2.188  12.320 -0.1359 -0.2697 -0.0392
 4563TIP3    H135104   6.190   2.184  12.407 -1.5701 -2.4382  0.6157
 4563TIP3    H235105   6.204   2.129  12.266  1.4255  1.9138 -1.0148
 4564TIP3   OH235106   6.392   4.317  13.911  0.0157  0.1362  0.4809
 4564TIP3    H135107   6.415   4.381  13.844  0.5465 -0.6638 -0.1345
 4564TIP3    H235108   6.473   4.267  13.924 -0.7432 -1.2785 -0.0576
 4565TIP3   OH235109   1.183   0.126  15.549 -0.1732  0.2728  0.3377
 4565TIP3    H135110   1.182   0.140  15.644  0.6910 -3.8292  1.1386
 4565TIP3    H235111   1.268   0.158  15.521  1.0681 -1.6823  1.6743
 4566TIP3   OH235112   6.277   1.279   4.407 -0.0828  0.1535  0.4240
 4566TIP3    H135113   6.310   1.189   4.413  1.1327  0.4124 -1.4046
 4566TIP3    H235114   6.329   1.327   4.471 -0.9700 -0.4671  1.6533
 4567TIP3   OH235115   2.656   3.185  12.404  0.4721 -0.4065  0.5160
 4567TIP3    H135116   2.750   3.175  12.392  0.6455  0.1837  1.3087
 4567TIP3    H235117   2.647   3.245  12.478 -0.5273 -0.4105  0.4165
 4568TIP3   OH235118   3.248   4.260   2.750 -0.0369  0.2690  0.0187
 4568TIP3    H135119   3.188   4.242   2.677  0.1982  1.1000 -0.4004
 4568TIP3    H235120   3.205   4.330   2.799  0.2882  0.4316  0.0763
 4569TIP3   OH235121   3.137   4.480  16.790 -0.6067  0.6697 -0.0658
 4569TIP3    H135122   3.090   4.427  16.726  0.9340 -0.0488 -0.6780
 4569TIP3    H235123   3.187   4.416  16.842  0.7406  1.4447 -0.3485
 4570TIP3   OH235124   5.913   2.097   0.077 -0.0468 -0.3202  0.1845
 4570TIP3    H135125   5.919   2.192   0.066 -2.3116  0.0478  1.4089
 4570TIP3    H235126   5.998   2.071   0.112  1.0466  1.0412 -1.3478
 4571TIP3   OH235127   5.935   5.239   0.488 -0.2135  0.2790 -0.0274
 4571TIP3    H135128   5.895   5.177   0.548 -1.4102 -0.4146 -1.4875
 4571TIP3    H235129   6.028   5.218   0.490 -0.6238 -1.8570 -0.7689
 4572TIP3   OH235130   1.542   1.314  11.340  0.5935 -0.0843 -0.7881
 4572TIP3    H135131   1.499   1.375  11.400 -2.3295 -2.0316 -0.7024
 4572TIP3    H235132   1.501   1.331  11.255  1.6072 -0.2299 -1.3165
 4573TIP3   OH235133   4.388   1.738  12.728 -0.1129  0.1787 -0.3723
 4573TIP3    H135134   4.368   1.659  12.779 -0.0372 -0.0002 -0.6182
 4573TIP3    H235135   4.483   1.743  12.727 -0.1237  0.8141  0.4637
 4574TIP3   OH235136   1.580   4.219   5.466  0.1506 -0.4173 -0.3671
 4574TIP3    H135137   1.583   4.310   5.436 -0.3189 -0.5881 -0.9558
 4574TIP3    H235138   1.670   4.200   5.493  0.1388  0.3915  0.2898
 4575TIP3   OH235139   6.388   5.715  12.624  0.2425  0.1166 -0.6057
 4575TIP3    H135140   6.468   5.709  12.573 -0.1459 -1.8191 -1.0701
 4575TIP3    H235141   6.319   5.729  12.559 -0.2248 -2.1403 -0.6972
 4576TIP3   OH235142   0.188   4.007   5.930  0.4961  0.0975 -0.5884
 4576TIP3    H135143   0.138   4.079   5.893 -1.5516 -0.7961  0.2354
 4576TIP3    H235144   0.178   4.018   6.025 -0.4004 -1.5536 -0.4474
 4577TIP3   OH235145   0.447   0.330   2.691 -0.1634  0.1112 -0.0038
 4577TIP3    H135146   0.375   0.333   2.627 -0.1919 -1.3834 -0.0596
 4577TIP3    H235147   0.404   0.338   2.776 -0.2895  0.3179 -0.0860
 4578TIP3   OH235148   1.599   4.823   4.166  0.1730  0.7071 -0.0013
 4578TIP3    H135149   1.539   4.807   4.239 -0.0153 -1.6090 -0.5824
 4578TIP3    H235150   1.597   4.742   4.116  1.5082  1.6811 -1.7203
 4579TIP3   OH235151   6.694   4.266   3.194 -0.5868 -0.1264 -1.1471
 4579TIP3    H135152   6.781   4.279   3.232 -0.2972  0.1204 -1.8835
 4579TIP3    H235153   6.655   4.353   3.195 -0.0857  0.1373 -2.5872
 4580TIP3   OH235154   0.223   3.717   5.967  0.9548 -0.4629  0.3514
 4580TIP3    H135155   0.188   3.776   5.901  1.2957 -2.4986 -1.7646
 4580TIP3    H235156   0.284   3.771   6.018 -2.1996  2.1772  1.7081
 4581TIP3   OH235157   6.638   4.159  13.872 -0.0290 -0.1391 -0.5069
 4581TIP3    H135158   6.689   4.214  13.931 -1.3796  0.2326  0.3550
 4581TIP3    H235159   6.678   4.173  13.786  2.0933 -0.8365  0.2971
 4582TIP3   OH235160   0.786   5.738  17.237 -0.0449  0.0434  0.7063
 4582TIP3    H135161   0.796   5.702  17.325 -0.0894  0.0078  0.6978
 4582TIP3    H235162   0.691   5.749  17.226 -0.1353 -1.1327  0.1870
 4583TIP3   OH235163   1.240   0.323  13.399  0.3171  0.5828  0.4490
 4583TIP3    H135164   1.315   0.265  13.385  0.7290  1.0146  0.8437
 4583TIP3    H235165   1.231   0.327  13.494 -0.8595 -0.2912  0.3957
 4584TIP3   OH235166   4.429   4.239  11.607 -0.1322  0.0170  0.0258
 4584TIP3    H135167   4.351   4.294  11.608  0.4657  0.8794 -0.2477
 4584TIP3    H235168   4.496   4.291  11.562  0.2050 -1.2555 -1.0139
 4585TIP3   OH235169   1.290   3.019  13.029  0.8698  0.0575 -0.2621
 4585TIP3    H135170   1.371   3.052  12.990  1.1456 -2.0436 -1.6283
 4585TIP3    H235171   1.317   2.941  13.078  0.1121  1.1514  2.0616
 4586TIP3   OH235172   5.592   2.183  15.060  0.2850  0.2834  0.3579
 4586TIP3    H135173   5.679   2.193  15.022  0.1204  1.6051  0.2496
 4586TIP3    H235174   5.602   2.213  15.150 -0.2640  1.5027  0.0371
 4587TIP3   OH235175   0.504   5.537  16.661 -0.4544 -0.4799 -0.2309
 4587TIP3    H135176   0.443   5.481  16.708 -0.5318 -1.0683 -1.0347
 4587TIP3    H235177   0.573   5.478  16.631  0.2798  0.1006  0.2549
 4588TIP3   OH235178   6.103   0.014   0.508 -0.1133  0.6387  0.5616
 4588TIP3    H135179   6.072  -0.075   0.490  2.1092 -0.5187  2.0069
 4588TIP3    H235180   6.135   0.047   0.424  0.3506 -0.4845  0.2876
 4589TIP3   OH235181   4.156   4.766  15.231 -0.3038 -0.0205 -0.0823
 4589TIP3    H135182   4.193   4.798  15.149 -1.4077  0.4360 -0.4179
 4589TIP3    H235183   4.207   4.810  15.299 -0.2888  0.6786 -0.5322
 4590TIP3   OH235184   0.932   3.885   5.479  0.1049 -0.0539  0.4073
 4590TIP3    H135185   0.877   3.948   5.433  0.3689  0.4522  0.7730
 4590TIP3    H235186   0.980   3.839   5.410 -0.1915  0.0463  0.1335
 4591TIP3   OH235187   1.280   6.358  17.296 -0.7750  0.3747 -0.5650
 4591TIP3    H135188   1.292   6.267  17.324 -1.4899  1.1623  2.8250
 4591TIP3    H235189   1.186   6.366  17.280 -1.1035  0.9229  1.3046
 4592TIP3   OH235190   6.655   0.256  14.554 -0.0529  0.5889  0.3203
 4592TIP3    H135191   6.582   0.278  14.497 -0.9015 -1.8230  0.3536
 4592TIP3    H235192   6.710   0.198  14.501  1.0130  1.1080  0.8282
 4593TIP3   OH235193   0.636   6.676  11.451 -0.0709 -0.1001  0.8777
 4593TIP3    H135194   0.605   6.740  11.516 -0.3145  1.5183 -0.7377
 4593TIP3    H235195   0.717   6.642  11.488  0.3102  1.4967  1.6107
 4594TIP3   OH235196   1.690   0.965  13.149  0.5399 -0.2690  0.6691
 4594TIP3    H135197   1.703   1.015  13.230 -1.4024  0.1511  0.7927
 4594TIP3    H235198   1.633   1.021  13.096 -1.2827 -2.0872  0.5870
 4595TIP3   OH235199   5.461   1.094  11.449 -0.1617 -0.2283  0.2498
 4595TIP3    H135200   5.427   1.066  11.535 -1.5806  0.0078 -0.2120
 4595TIP3    H235201   5.383   1.112  11.397  0.6510 -1.3710 -1.4494
 4596TIP3   OH235202   4.510   3.865   2.958  1.5794 -0.0300 -0.6269
 4596TIP3    H135203   4.534   3.776   2.930  1.0785  0.3503 -2.3641
 4596TIP3    H235204   4.563   3.923   2.903  1.4106  0.7554  0.0220
 4597TIP3   OH235205   1.767   3.842  13.281 -0.8035  0.3289  0.5284
 4597TIP3    H135206   1.847   3.854  13.229  0.3659 -1.1269  1.8979
 4597TIP3    H235207   1.734   3.931  13.293 -0.4390  0.8236 -1.6044
 4598TIP3   OH235208   1.376   5.205   1.742  0.0031 -0.0891  0.0778
 4598TIP3    H135209   1.457   5.188   1.788 -0.2635 -1.7744 -0.0285
 4598TIP3    H235210   1.309   5.157   1.791 -0.7776  0.4901 -0.3816
 4599TIP3   OH235211   4.324   0.888  14.632 -0.4862  0.8477  0.0397
 4599TIP3    H135212   4.323   0.984  14.635 -1.8129  0.8441  0.2171
 4599TIP3    H235213   4.245   0.865  14.582 -1.1659 -0.1870  1.5131
 4600TIP3   OH235214   6.273   1.402   5.523  0.3476  0.0230  0.5854
 4600TIP3    H135215   6.204   1.433   5.464  0.3197 -1.0188  0.0460
 4600TIP3    H235216   6.335   1.475   5.527 -0.6602  0.8821  0.8921
 4601TIP3   OH235217   1.369   5.294  16.896  0.1810  0.2352  0.3278
 4601TIP3    H135218   1.394   5.386  16.896  0.0864  0.2593  0.1452
 4601TIP3    H235219   1.444   5.249  16.857  0.4030  0.1889  0.8011
 4602TIP3   OH235220   1.807   6.390   1.848 -0.4625  0.4696  0.2881
 4602TIP3    H135221   1.785   6.398   1.755 -0.0279  2.6277  0.3161
 4602TIP3    H235222   1.884   6.334   1.850  0.5941  1.8298 -0.8476
 4603TIP3   OH235223   4.823   1.593   4.382 -0.1813  0.4097 -0.3143
 4603TIP3    H135224   4.847   1.684   4.363  1.4060 -0.2429 -1.6699
 4603TIP3    H235225   4.905   1.544   4.375 -0.4134 -0.7672  3.2975
 4604TIP3   OH235226   2.388   3.711   1.323  0.5744  0.1985 -0.4811
 4604TIP3    H135227   2.440   3.632   1.306 -0.7623 -0.5817 -1.1085
 4604TIP3    H235228   2.337   3.690   1.401  0.8109  0.7668 -0.1670
 4605TIP3   OH235229   2.298   2.050   4.004  0.5128  0.5187  0.1742
 4605TIP3    H135230   2.333   2.137   4.022 -0.1468  0.5273  1.5306
 4605TIP3    H235231   2.204   2.064   3.990  0.5030  0.0993 -0.2248
 4606TIP3   OH235232   6.733   3.014   1.683  0.4714 -0.5123  0.3862
 4606TIP3    H135233   6.712   3.039   1.773 -1.6540 -0.2717 -0.1176
 4606TIP3    H235234   6.661   3.050   1.631 -0.5493 -3.9619 -0.8942
 4607TIP3   OH235235   0.539   5.541   5.622  0.1687 -0.2106 -0.3069
 4607TIP3    H135236   0.495   5.532   5.707 -0.4927 -2.1694 -0.8137
 4607TIP3    H235237   0.573   5.453   5.603 -0.3583 -0.0082 -2.4120
 4608TIP3   OH235238   4.736   5.482   6.103  0.6878  0.4370 -0.1464
 4608TIP3    H135239   4.687   5.479   6.185 -0.5805 -1.1995 -0.9168
 4608TIP3    H235240   4.745   5.391   6.076 -0.3371  0.9780 -2.6396
 4609TIP3   OH235241   4.142   4.927  16.128  0.0890 -0.0395 -0.5007
 4609TIP3    H135242   4.227   4.940  16.170  0.5121 -0.5053 -1.2102
 4609TIP3    H235243   4.162   4.916  16.035 -0.8311  0.8935 -0.8370
 4610TIP3   OH235244   1.372   0.885   1.476  0.4254  0.4057  0.2115
 4610TIP3    H135245   1.400   0.917   1.562  1.5888 -0.1670  0.0654
 4610TIP3    H235246   1.321   0.958   1.439  0.0529  0.7253  1.2980
 4611TIP3   OH235247   0.969   0.988   1.333 -0.6977  0.3454  0.1412
 4611TIP3    H135248   0.990   0.937   1.412 -0.9259 -0.1420 -0.1102
 4611TIP3    H235249   0.916   1.061   1.366 -0.4550  0.3694  0.4908
 4612TIP3   OH235250   4.909   6.681  10.907  0.1255 -0.4599  0.0166
 4612TIP3    H135251   4.939   6.771  10.901 -0.9008  0.0315  1.5604
 4612TIP3    H235252   4.988   6.628  10.902  0.7696  0.5333 -0.5331
 4613TIP3   OH235253   4.749   3.435   0.922 -0.5422  0.2564  0.1619
 4613TIP3    H135254   4.695   3.357   0.912 -1.0627  0.5095  0.9144
 4613TIP3    H235255   4.787   3.426   1.010  3.5437 -1.7274 -1.5201
 4614TIP3   OH235256   1.900   5.975  16.274  0.5502 -0.1674  0.0097
 4614TIP3    H135257   1.891   5.933  16.188  1.4728 -2.1888  0.8487
 4614TIP3    H235258   1.965   6.044  16.260 -0.0691  0.2215 -1.1231
 4615TIP3   OH235259   5.563   6.499   3.972 -0.1386  0.3683  0.3318
 4615TIP3    H135260   5.567   6.542   3.886 -2.4367  1.8900  0.8955
 4615TIP3    H235261   5.627   6.546   4.025 -0.1014  0.7317 -0.0262
 4616TIP3   OH235262   2.296   1.937   2.667  0.2328 -0.1067 -0.2399
 4616TIP3    H135263   2.211   1.977   2.648  0.7284  0.3727 -1.5795
 4616TIP3    H235264   2.294   1.920   2.761 -2.0680 -1.8025 -0.5009
 4617TIP3   OH235265   0.970   5.019   1.289  0.1809  0.3372  0.2469
 4617TIP3    H135266   0.887   5.061   1.312 -0.0758  0.4631 -0.8327
 4617TIP3    H235267   0.960   4.928   1.316 -1.6263 -0.4984 -2.7341
 4618TIP3   OH235268   2.803   4.535   6.309  0.0618 -0.5376 -0.1772
 4618TIP3    H135269   2.759   4.577   6.384  1.5251  1.5219 -0.3884
 4618TIP3    H235270   2.885   4.501   6.344  0.0788 -0.9069 -0.5611
 4619TIP3   OH235271   4.183   2.311  14.118 -0.3135 -0.1033  0.2643
 4619TIP3    H135272   4.223   2.229  14.090 -2.5950 -1.7598  1.5444
 4619TIP3    H235273   4.255   2.374  14.118  1.4675 -2.0170 -0.9967
 4620TIP3   OH235274   6.247   3.277   4.468 -0.0016  0.1693 -0.6666
 4620TIP3    H135275   6.300   3.235   4.400  1.1256 -0.5367  0.6099
 4620TIP3    H235276   6.249   3.216   4.541 -1.0524  0.9970  0.0895
 4621TIP3   OH235277   2.553   4.708   3.388 -0.1032 -0.2472 -0.7023
 4621TIP3    H135278   2.646   4.691   3.403  0.0750  0.1421 -1.3158
 4621TIP3    H235279   2.525   4.757   3.465  0.0959 -0.7471 -0.3133
 4622TIP3   OH235280   3.320   1.121  14.003 -0.0789  0.5348  0.4602
 4622TIP3    H135281   3.413   1.134  14.021 -0.7212  3.6987  2.1722
 4622TIP3    H235282   3.289   1.067  14.075  0.4331 -0.7910 -0.2798
 4623TIP3   OH235283   2.454   4.979  16.966  0.5105 -0.0783  0.3899
 4623TIP3    H135284   2.532   4.953  16.917 -0.2705  1.3041 -1.7820
 4623TIP3    H235285   2.441   5.071  16.943 -1.6243 -0.2086  0.8336
 4624TIP3   OH235286   5.931   5.528   0.020  0.8554  0.0598  0.1766
 4624TIP3    H135287   5.864   5.557   0.083  0.8883  0.1117  0.1865
 4624TIP3    H235288   6.014   5.542   0.066  0.9155  0.7352 -0.1347
 4625TIP3   OH235289   2.537   2.747   0.536 -0.2926  0.3699  0.4563
 4625TIP3    H135290   2.508   2.695   0.610 -0.3530  0.2326  0.3370
 4625TIP3    H235291   2.603   2.692   0.493  0.2967  0.7620  0.8433
 4626TIP3   OH235292   2.792   6.509  11.814  0.5814  0.3538  0.1355
 4626TIP3    H135293   2.824   6.580  11.869 -0.0977  0.7920 -0.0230
 4626TIP3    H235294   2.699   6.502  11.837  1.2438 -2.6794  2.6052
 4627TIP3   OH235295   3.090   2.328  15.484 -0.0009  0.0540 -0.0543
 4627TIP3    H135296   3.110   2.335  15.577 -0.7250 -1.0068  0.2099
 4627TIP3    H235297   3.077   2.418  15.455 -1.7788  0.3282  1.3562
 4628TIP3   OH235298   2.407   3.723   2.678  0.3489  0.4284 -0.2789
 4628TIP3    H135299   2.467   3.750   2.748  2.0065 -0.3342 -1.3495
 4628TIP3    H235300   2.441   3.638   2.648  0.2963  1.1555 -2.6349
 4629TIP3   OH235301   3.287   1.385   2.202 -0.6024 -0.2068 -0.0099
 4629TIP3    H135302   3.197   1.352   2.208 -0.4302 -0.4209  2.0744
 4629TIP3    H235303   3.326   1.364   2.287  1.1682  0.6500 -0.5634
 4630TIP3   OH235304   1.818   4.872   2.065  0.3253 -0.5162 -0.0026
 4630TIP3    H135305   1.745   4.905   2.117  0.4407  1.2079 -0.8875
 4630TIP3    H235306   1.792   4.783   2.042 -2.1308  0.4535 -1.3586
 4631TIP3   OH235307   6.451   3.627  14.676  0.3900  0.0667  0.1305
 4631TIP3    H135308   6.500   3.552  14.711  1.4103  0.5183 -0.3028
 4631TIP3    H235309   6.367   3.589  14.648  1.0035 -0.9710 -0.3605
 4632TIP3   OH235310   4.502   4.230   4.846 -0.4291  0.6650 -0.4482
 4632TIP3    H135311   4.507   4.257   4.938  1.6022  1.8959 -0.8577
 4632TIP3    H235312   4.538   4.304   4.797  1.5803 -1.2023 -1.9777
 4633TIP3   OH235313   5.920   4.332   6.737  0.5464  0.4916 -0.1961
 4633TIP3    H135314   5.884   4.382   6.664 -1.2783 -0.4857 -0.0099
 4633TIP3    H235315   5.844   4.308   6.790  1.5111 -1.2062  0.5044
 4634TIP3   OH235316   2.115   2.820  15.684 -0.4985  0.1460  0.1496
 4634TIP3    H135317   2.051   2.811  15.754 -1.3488  0.3843 -0.5884
 4634TIP3    H235318   2.112   2.913  15.660  1.3369  0.5473  1.2297
 4635TIP3   OH235319   5.237   2.090   0.177 -0.0889 -0.2886 -0.5151
 4635TIP3    H135320   5.187   2.145   0.116  0.2126  0.2865 -0.2482
 4635TIP3    H235321   5.327   2.095   0.145  0.1459  0.3726  0.2301
 4636TIP3   OH235322   0.756   1.633   3.612  0.7453  0.2786  0.9360
 4636TIP3    H135323   0.692   1.695   3.577  0.3873  0.7199  2.2882
 4636TIP3    H235324   0.781   1.579   3.538  1.3620  2.2739 -0.3880
 4637TIP3   OH235325   5.932   1.011  10.863  0.0535  0.0350 -0.1722
 4637TIP3    H135326   5.863   1.012  10.797 -0.3705  0.0112  0.2673
 4637TIP3    H235327   5.976   0.927  10.851 -1.5079 -1.0240  1.0880
 4638TIP3   OH235328   0.985   5.309   1.883  0.4417 -0.8017  0.3944
 4638TIP3    H135329   0.987   5.364   1.961  0.8912  0.0970 -0.2295
 4638TIP3    H235330   1.009   5.368   1.811  1.4076 -1.9183 -0.2313
 4639TIP3   OH235331   5.906   5.072  13.536 -0.1759 -0.5604  0.3367
 4639TIP3    H135332   5.858   4.994  13.561 -1.6074  0.1175 -0.1242
 4639TIP3    H235333   5.948   5.049  13.453 -0.7742 -0.7834  0.0889
 4640TIP3   OH235334   5.075   4.943   2.893 -0.1984 -0.6108  0.0922
 4640TIP3    H135335   5.152   4.994   2.868  0.4514 -1.7020 -0.2365
 4640TIP3    H235336   5.001   4.990   2.855  0.2802  0.5301  0.5228
 4641TIP3   OH235337   2.049   0.774  12.073  0.4542  0.5710  0.2848
 4641TIP3    H135338   2.085   0.689  12.047 -0.0421  0.6147 -0.5669
 4641TIP3    H235339   1.999   0.803  11.998 -3.5863 -0.6916  2.1961
 4642TIP3   OH235340   5.221   1.796  14.648  0.6248  0.6151 -0.6080
 4642TIP3    H135341   5.139   1.793  14.697  0.1071  1.2279 -1.3989
 4642TIP3    H235342   5.266   1.875  14.680  1.1617 -0.0073  0.2003
 4643TIP3   OH235343   6.509   5.904  15.883 -0.3862  0.4705  0.3686
 4643TIP3    H135344   6.446   5.973  15.903 -0.8626  0.8257 -2.1094
 4643TIP3    H235345   6.461   5.823  15.900 -2.1108  0.6976 -2.6828
 4644TIP3   OH235346   5.070   3.504  11.766  0.0105  0.0943 -0.5760
 4644TIP3    H135347   4.979   3.513  11.739 -0.1133 -3.2324 -1.6657
 4644TIP3    H235348   5.099   3.594  11.780 -2.8034  1.4244 -2.2991
 4645TIP3   OH235349   5.013   5.645  17.161  0.0920 -0.1847 -0.3481
 4645TIP3    H135350   4.980   5.561  17.193  0.1534 -0.6721 -1.5078
 4645TIP3    H235351   5.013   5.636  17.066 -2.3711  2.0370 -0.6826
 4646TIP3   OH235352   5.365   6.349   0.171 -0.3436  0.5326 -0.2959
 4646TIP3    H135353   5.384   6.439   0.196  0.0999  0.1817  0.7042
 4646TIP3    H235354   5.440   6.299   0.203 -2.3827 -0.7912  2.8624
 4647TIP3   OH235355   3.376   0.528   5.413  0.6719 -0.1438  0.1376
 4647TIP3    H135356   3.359   0.547   5.505  2.3917 -2.0016  0.8864
 4647TIP3    H235357   3.290   0.536   5.371 -0.5287 -1.2019  2.2571
 4648TIP3   OH235358   6.373   4.800  16.675  0.2690 -0.0481  0.0297
 4648TIP3    H135359   6.401   4.782  16.765 -0.2212 -1.7098 -0.1070
 4648TIP3    H235360   6.395   4.720  16.627 -2.2107 -0.4052 -0.6533
 4649TIP3   OH235361   3.663   2.405   6.210  0.1211  0.4049 -0.1049
 4649TIP3    H135362   3.644   2.344   6.281 -0.0614  0.5595 -0.0214
 4649TIP3    H235363   3.651   2.492   6.248  1.3387  0.5186  0.0581
 4650TIP3   OH235364   2.120   3.888   2.123 -0.2631 -0.1211  0.3997
 4650TIP3    H135365   2.136   3.933   2.206  0.6373 -0.1603  0.2591
 4650TIP3    H235366   2.040   3.928   2.089 -1.7989 -1.4967  2.2164
 4651TIP3   OH235367   6.421   6.331   3.353  0.1764  0.7481 -0.1895
 4651TIP3    H135368   6.333   6.358   3.381  0.1869  0.2818  0.2996
 4651TIP3    H235369   6.441   6.254   3.407 -0.1476 -0.7184 -2.0500
 4652TIP3   OH235370   0.121   3.705   0.027  0.2004 -0.5081  0.0197
 4652TIP3    H135371   0.041   3.741   0.066 -0.0102 -0.9912  0.0442
 4652TIP3    H235372   0.097   3.615   0.002  0.7848 -0.7135  0.1823
 4653TIP3   OH235373   5.603   6.352  14.050  0.4944  0.1934 -0.3270
 4653TIP3    H135374   5.645   6.357  13.964 -0.8967  0.4527 -1.0101
 4653TIP3    H235375   5.513   6.378  14.035  0.1471 -0.0300  1.1748
 4654TIP3   OH235376   4.076   6.622   4.105  0.1797 -0.1626 -0.1184
 4654TIP3    H135377   4.074   6.717   4.119  0.4773 -0.2281  0.4028
 4654TIP3    H235378   4.016   6.587   4.171 -0.2597 -0.3066 -0.5941
 4655TIP3   OH235379   1.591   5.766  16.820  0.0790 -0.1744  0.0888
 4655TIP3    H135380   1.530   5.818  16.873  0.1261 -1.1983  1.2063
 4655TIP3    H235381   1.567   5.785  16.730  0.0218  1.6786  0.4613
 4656TIP3   OH235382   6.360   1.641   5.293  0.3563  0.4060  0.6157
 4656TIP3    H135383   6.314   1.725   5.282 -2.4746 -0.9818  0.8905
 4656TIP3    H235384   6.398   1.646   5.380 -0.0110  1.2970  0.7413
 4657TIP3   OH235385   0.329   5.027   5.850  0.0106  0.2432  0.1572
 4657TIP3    H135386   0.321   4.969   5.774 -2.0198  0.1487  0.3861
 4657TIP3    H235387   0.246   5.017   5.897  1.6474 -0.6709  3.1266
 4658TIP3   OH235388   5.771   3.876   5.630  0.4736  0.2965 -0.0314
 4658TIP3    H135389   5.865   3.863   5.640  0.5653  1.3805  0.6827
 4658TIP3    H235390   5.753   3.957   5.677 -0.6590  0.6490 -1.0406
 4659TIP3   OH235391   3.581   6.436  15.942  0.5284 -0.1890  0.4402
 4659TIP3    H135392   3.493   6.408  15.965  0.5471  0.4491  1.3388
 4659TIP3    H235393   3.579   6.532  15.950  0.9696 -0.0557 -0.7407
 4660TIP3   OH235394   2.924   1.598  11.673 -0.4172 -0.7333 -0.2908
 4660TIP3    H135395   2.874   1.664  11.624  0.8511  0.6276  0.1902
 4660TIP3    H235396   2.943   1.640  11.757 -0.4223 -2.1042  0.4308
 4661TIP3   OH235397   5.135   5.359   5.297  0.9915  0.0848  0.4594
 4661TIP3    H135398   5.062   5.368   5.359  1.6305 -0.8925  1.3747
 4661TIP3    H235399   5.202   5.418   5.331  1.4711 -0.7074  0.8946
 4662TIP3   OH235400   3.373   3.406   4.240  0.0743 -0.3947 -0.2326
 4662TIP3    H135401   3.428   3.455   4.301 -0.9596 -0.0284  0.4398
 4662TIP3    H235402   3.312   3.472   4.205 -0.2957 -0.8882 -0.5334
 4663TIP3   OH235403   3.853   5.177  12.669  0.1649  0.5617 -0.4722
 4663TIP3    H135404   3.823   5.091  12.700  0.3001  0.9618  0.8021
 4663TIP3    H235405   3.948   5.173  12.677  0.5062 -0.3223 -3.5235
 4664TIP3   OH235406   2.063   4.056  12.403 -0.0318 -0.2331  0.0100
 4664TIP3    H135407   2.010   4.017  12.333 -0.7624 -2.2268  1.5668
 4664TIP3    H235408   2.149   4.015  12.393 -0.1154 -0.4629  0.2236
 4665TIP3   OH235409   3.509   5.204  11.756 -0.3269  0.3454 -0.6154
 4665TIP3    H135410   3.496   5.285  11.707 -0.8647  0.1824 -0.7513
 4665TIP3    H235411   3.555   5.146  11.695 -0.5023  0.3347 -0.7396
 4666TIP3   OH235412   0.176   1.514  12.194  0.4241  0.0349  0.6710
 4666TIP3    H135413   0.139   1.434  12.155  1.0379  0.0756 -0.0372
 4666TIP3    H235414   0.156   1.507  12.287  2.5007 -2.1402  1.0733
 4667TIP3   OH235415   0.138   2.220  12.690 -0.9545 -0.2170 -0.0682
 4667TIP3    H135416   0.166   2.133  12.662 -0.9434 -0.4007  0.5059
 4667TIP3    H235417   0.193   2.240  12.765 -0.0520  0.8330 -0.9639
 4668TIP3   OH235418   5.450   3.325  17.201  0.4662 -0.0091 -0.1834
 4668TIP3    H135419   5.420   3.415  17.188 -0.1616 -0.3342 -1.1198
 4668TIP3    H235420   5.515   3.311  17.132 -0.6371 -0.7704 -1.1297
 4669TIP3   OH235421   1.121   2.128  13.581  0.7891  0.3066  0.1453
 4669TIP3    H135422   1.047   2.137  13.521  0.0344  2.0418  1.2451
 4669TIP3    H235423   1.139   2.218  13.610  1.8260 -0.3413  1.6506
 4670TIP3   OH235424   6.608   0.136  13.217 -0.0120  0.2289  0.1349
 4670TIP3    H135425   6.567   0.217  13.249  1.7368  1.2619 -0.1033
 4670TIP3    H235426   6.646   0.096  13.295 -0.0053  0.1741  0.1034
 4671TIP3   OH235427   0.376   4.217  15.144 -0.4508  0.0755  0.4958
 4671TIP3    H135428   0.292   4.258  15.123  0.3989  1.6619  0.0289
 4671TIP3    H235429   0.356   4.156  15.214 -2.6185 -2.1337 -1.8444
 4672TIP3   OH235430   2.784   6.095   3.389  0.0433  0.4610  0.0606
 4672TIP3    H135431   2.717   6.159   3.414 -0.4665 -0.4722  1.2007
 4672TIP3    H235432   2.804   6.049   3.471  1.5576  0.2333 -0.4139
 4673TIP3   OH235433   6.169   0.839   3.266 -0.0214  0.1003  0.4343
 4673TIP3    H135434   6.104   0.908   3.254  0.0471  0.1179  0.1475
 4673TIP3    H235435   6.163   0.816   3.359 -1.4024 -0.8454  0.1587
 4674TIP3   OH235436   4.602   4.901  16.287 -0.4900 -0.3513 -0.2554
 4674TIP3    H135437   4.527   4.949  16.253  0.1401  1.4851  0.8040
 4674TIP3    H235438   4.678   4.954  16.262  0.2001 -0.4735  1.4113
 4675TIP3   OH235439   4.734   1.229   4.612  0.1075 -0.7201 -0.1246
 4675TIP3    H135440   4.716   1.257   4.522 -0.3615 -0.9719 -0.1097
 4675TIP3    H235441   4.653   1.244   4.659 -0.1106 -1.9280 -0.0747
 4676TIP3   OH235442   5.660   0.218   1.963 -0.1308  0.5346 -0.2445
 4676TIP3    H135443   5.661   0.140   1.907  0.2637  0.7452 -0.5391
 4676TIP3    H235444   5.647   0.291   1.902  1.3053  0.8623 -0.1972
 4677TIP3   OH235445   5.332   0.884  14.584 -0.7550  0.0767  0.3803
 4677TIP3    H135446   5.367   0.967  14.615 -0.3863  0.9567 -2.1813
 4677TIP3    H235447   5.237   0.892  14.596 -0.6835  0.6697  0.5803
 4678TIP3   OH235448   1.338   2.333   3.380 -0.0464  0.0902 -0.2296
 4678TIP3    H135449   1.428   2.313   3.403 -0.5059 -0.1198  1.5402
 4678TIP3    H235450   1.313   2.405   3.438 -0.3587  1.6828 -2.2247
 4679TIP3   OH235451   0.086   2.708  11.581 -0.2451  0.0273 -0.7332
 4679TIP3    H135452   0.114   2.799  11.596 -2.8506  0.7297  0.5584
 4679TIP3    H235453   0.100   2.665  11.665  0.5628 -0.6666 -1.2143
 4680TIP3   OH235454   6.301   0.535   0.986  0.4463  0.4644  0.3471
 4680TIP3    H135455   6.207   0.544   0.974  0.3156  0.2477  1.1255
 4680TIP3    H235456   6.314   0.443   1.010  0.8771  0.4444  0.0513
 4681TIP3   OH235457   2.656   5.109  14.911 -0.1210  0.4284  0.0196
 4681TIP3    H135458   2.691   5.172  14.974  2.1912  1.2275 -1.9751
 4681TIP3    H235459   2.724   5.042  14.903 -0.5702  0.1048 -1.3032
 4682TIP3   OH235460   4.314   3.864   0.049 -0.3294  0.0407 -0.1682
 4682TIP3    H135461   4.243   3.805   0.075  0.2779  0.1868  1.9883
 4682TIP3    H235462   4.377   3.807   0.005 -0.0254 -0.8456  1.3467
 4683TIP3   OH235463   4.128   2.821  16.520  0.3152  0.0969  0.3439
 4683TIP3    H135464   4.064   2.868  16.575 -0.3986  0.6038 -0.8821
 4683TIP3    H235465   4.110   2.729  16.536 -2.4065  0.1491 -1.7508
 4684TIP3   OH235466   2.010   6.256  10.780 -0.2117 -0.2582  0.8106
 4684TIP3    H135467   2.091   6.217  10.748  0.7933  1.3039  1.3580
 4684TIP3    H235468   1.981   6.313  10.708 -0.3426 -0.1225  0.9701
 4685TIP3   OH235469   2.084   1.232   3.779 -1.0874 -0.3482 -0.4669
 4685TIP3    H135470   2.162   1.279   3.810 -1.7336  1.0785 -0.9341
 4685TIP3    H235471   2.098   1.142   3.807 -0.5012  0.3963  1.8049
 4686TIP3   OH235472   4.819   3.946   6.093 -0.3794  0.2623 -0.0164
 4686TIP3    H135473   4.735   3.915   6.126  0.2072 -0.2302  1.0526
 4686TIP3    H235474   4.823   4.038   6.120  0.0569 -0.1135  1.2426
 4687TIP3   OH235475   0.766   3.347  14.703 -0.7626  0.6676  0.3767
 4687TIP3    H135476   0.790   3.380  14.617 -0.6212 -0.1143  0.1076
 4687TIP3    H235477   0.806   3.409  14.765  1.5997 -0.2939 -0.0549
 4688TIP3   OH235478   5.304   4.571   5.834  0.6320  0.0166  0.3493
 4688TIP3    H135479   5.353   4.490   5.821 -0.4317 -0.3321 -1.8732
 4688TIP3    H235480   5.258   4.586   5.752  0.9550  3.0249  0.5750
 4689TIP3   OH235481   5.887   4.535   6.172  0.6079  0.1443  0.1027
 4689TIP3    H135482   5.830   4.572   6.239  0.1228  1.9770 -1.2280
 4689TIP3    H235483   5.827   4.487   6.113  0.8593 -0.4144  0.2948
 4690TIP3   OH235484   2.045   6.541   2.240 -0.3846 -0.0426  0.4281
 4690TIP3    H135485   1.995   6.559   2.319 -0.2875 -0.5329  0.6070
 4690TIP3    H235486   1.980   6.509   2.178 -0.9120  2.6621 -0.5515
 4691TIP3   OH235487   2.546   5.801  15.531 -0.1991 -0.4924 -0.3404
 4691TIP3    H135488   2.637   5.800  15.563  0.3870 -1.0517 -1.9169
 4691TIP3    H235489   2.537   5.719  15.483 -1.6159 -0.5165 -0.0674
 4692TIP3   OH235490   6.596   6.162   2.533 -0.1401  0.1146 -0.1216
 4692TIP3    H135491   6.641   6.246   2.540  0.1043 -0.1378  2.0252
 4692TIP3    H235492   6.644   6.104   2.593  0.1973 -1.8237 -2.0995
 4693TIP3   OH235493   3.735   3.314   4.905  0.1042 -0.8841  0.3072
 4693TIP3    H135494   3.678   3.373   4.955 -0.6244  0.3988 -1.9307
 4693TIP3    H235495   3.813   3.304   4.961  0.2960  2.2721  0.7734
 4694TIP3   OH235496   3.009   4.341   3.277  0.1993 -0.0862 -0.4043
 4694TIP3    H135497   3.090   4.347   3.327 -0.3782 -1.1455  0.6961
 4694TIP3    H235498   3.001   4.248   3.256 -1.4831 -0.2459  0.8135
 4695TIP3   OH235499   4.680   4.788  15.034 -0.6335  0.5227 -0.0642
 4695TIP3    H135500   4.758   4.807  14.981 -0.9178  0.5058 -0.4957
 4695TIP3    H235501   4.670   4.865  15.090 -0.7568  0.8754 -0.5642
 4696TIP3   OH235502   6.496   4.925  13.109 -0.3936 -0.4965 -0.0909
 4696TIP3    H135503   6.571   4.871  13.084  1.2545  0.9972  1.2921
 4696TIP3    H235504   6.491   4.992  13.041 -0.6519 -0.7686 -0.3383
 4697TIP3   OH235505   3.022   2.681  16.850 -0.3224 -0.0765 -0.6934
 4697TIP3    H135506   3.090   2.704  16.787  0.0795  0.3914 -0.1071
 4697TIP3    H235507   2.954   2.638  16.798 -0.3431  0.9752 -1.5591
 4698TIP3   OH235508   6.712   1.103  16.863  0.2450  0.3619  0.0177
 4698TIP3    H135509   6.622   1.079  16.839  0.2505 -0.8448  1.0886
 4698TIP3    H235510   6.746   1.025  16.907  1.1816  1.4795  1.3375
 4699TIP3   OH235511   6.396   1.916   2.402 -0.2191  0.0472 -0.5534
 4699TIP3    H135512   6.329   1.898   2.468 -0.4038 -2.4345 -1.3119
 4699TIP3    H235513   6.397   2.011   2.394 -1.4796  0.3118  1.6761
 4700TIP3   OH235514   4.409   4.391  16.622  0.1236  0.1804 -0.1384
 4700TIP3    H135515   4.428   4.309  16.576  0.3595 -0.3652  0.9044
 4700TIP3    H235516   4.315   4.404  16.611  0.1286 -0.1033 -0.5137
 4701TIP3   OH235517   5.416   5.390   3.125 -0.2977  0.1968 -0.0084
 4701TIP3    H135518   5.328   5.417   3.099 -0.6218 -1.9993 -1.4950
 4701TIP3    H235519   5.443   5.328   3.058  1.4082 -1.0572  1.7042
 4702TIP3   OH235520   3.433   4.836  15.447 -0.4649  0.1626 -0.1865
 4702TIP3    H135521   3.398   4.750  15.424 -0.5444 -0.0332  0.6243
 4702TIP3    H235522   3.524   4.833  15.417 -0.8820  0.3604 -1.5245
 4703TIP3   OH235523   0.103   0.958  13.447 -0.0151  0.0676  0.2567
 4703TIP3    H135524   0.019   0.999  13.426  0.9018  0.6368 -2.7784
 4703TIP3    H235525   0.079   0.869  13.476 -1.6639  0.3375 -0.1424
 4704TIP3   OH235526   6.767   3.005  11.824 -0.6284 -0.2576  0.6414
 4704TIP3    H135527   6.689   3.010  11.769 -0.2393 -1.0942 -0.0068
 4704TIP3    H235528   6.840   3.019  11.764 -0.3102  2.7081  1.5693
 4705TIP3   OH235529   6.290   1.387  12.924  0.4823 -0.3160  0.0258
 4705TIP3    H135530   6.350   1.393  12.850  0.4372 -0.8963 -0.0615
 4705TIP3    H235531   6.240   1.469  12.921  0.8970 -0.0682 -0.2203
 4706TIP3   OH235532   5.417   2.918   0.188 -0.5250 -0.4459  0.0813
 4706TIP3    H135533   5.441   2.977   0.259 -0.4681  0.1367 -0.4157
 4706TIP3    H235534   5.497   2.867   0.172 -0.7462 -1.0648  0.8898
 4707TIP3   OH235535   4.372   5.681   5.998 -0.3924  0.3960  0.9037
 4707TIP3    H135536   4.368   5.758   6.055  2.4435  1.1953  0.1816
 4707TIP3    H235537   4.377   5.607   6.059  1.9714  1.1934  1.7877
 4708TIP3   OH235538   3.348   2.417  12.356 -0.0182 -0.2801  0.7780
 4708TIP3    H135539   3.255   2.396  12.364 -0.2068  0.6354  1.1151
 4708TIP3    H235540   3.377   2.435  12.446  0.0719  1.0659  0.5010
 4709TIP3   OH235541   0.284   3.957   0.714 -0.0157  0.0597 -0.1888
 4709TIP3    H135542   0.309   3.961   0.806 -0.4046 -0.7673 -0.0279
 4709TIP3    H235543   0.208   3.898   0.713 -0.4843  0.6498 -0.9464
 4710TIP3   OH235544   6.757   3.755   2.078  0.4501  0.1813  0.8111
 4710TIP3    H135545   6.769   3.710   1.994 -0.0068 -0.5483  1.1350
 4710TIP3    H235546   6.735   3.686   2.140 -0.1412  0.8348  1.3471
 4711TIP3   OH235547   0.415   0.483   6.723  0.2100 -0.5482 -0.0113
 4711TIP3    H135548   0.335   0.506   6.675 -1.5442 -3.0479  1.4513
 4711TIP3    H235549   0.476   0.553   6.703 -1.7028  0.5263 -2.7190
 4712TIP3   OH235550   0.563   1.234  14.519 -0.0941  0.3128  0.4781
 4712TIP3    H135551   0.531   1.145  14.532  0.9471  0.2347  3.1975
 4712TIP3    H235552   0.645   1.222  14.471 -0.4397 -0.1008 -0.0245
 4713TIP3   OH235553   3.192   1.778   4.932  0.1916 -0.0945  0.4317
 4713TIP3    H135554   3.269   1.728   4.903  1.0291  1.2069  0.3094
 4713TIP3    H235555   3.217   1.811   5.018 -0.7623 -0.7174  0.9638
 4714TIP3   OH235556   2.094   2.165  10.949 -0.1605  0.2923  0.0393
 4714TIP3    H135557   2.159   2.232  10.929 -0.1005  0.6969  1.4856
 4714TIP3    H235558   2.024   2.211  10.994  0.2164 -0.7094  1.7199
 4715TIP3   OH235559   0.906   0.053  15.596 -0.2454  0.4680 -0.4809
 4715TIP3    H135560   0.935  -0.013  15.659 -1.0244 -0.4575 -1.0717
 4715TIP3    H235561   0.981   0.113  15.588  0.8311 -0.8549 -0.6366
 4716TIP3   OH235562   3.070   0.344   3.077  0.2101 -0.5508 -0.0882
 4716TIP3    H135563   3.098   0.323   2.989  0.4713  0.9812 -0.3964
 4716TIP3    H235564   2.979   0.313   3.082  0.8460 -2.5685 -0.1515
 4717TIP3   OH235565   1.731   5.479  12.818  0.7963 -0.3750 -0.6710
 4717TIP3    H135566   1.785   5.552  12.848 -0.3247  0.6689 -1.0897
 4717TIP3    H235567   1.793   5.415  12.785  1.7648  1.3788 -2.4756
 4718TIP3   OH235568   1.095   3.958  13.434  0.5744 -0.3991 -0.2801
 4718TIP3    H135569   1.012   3.937  13.391  0.2750  2.4135 -1.2638
 4718TIP3    H235570   1.157   3.967  13.362  0.9225  0.8329  0.1498
 4719TIP3   OH235571   5.997   0.225   0.935 -0.0282  0.0638 -0.7353
 4719TIP3    H135572   5.906   0.196   0.934  0.2063 -0.6917 -0.6914
 4719TIP3    H235573   5.992   0.318   0.912 -0.7780 -0.0513 -1.0909
 4720TIP3   OH235574   2.302   0.365   0.215  0.4461  0.4210 -0.5288
 4720TIP3    H135575   2.235   0.303   0.242  1.5745 -0.4039  0.4985
 4720TIP3    H235576   2.256   0.427   0.159 -0.5654 -1.7821 -2.2856
 4721TIP3   OH235577   1.406   6.751   1.381 -0.6051 -0.3979  0.2378
 4721TIP3    H135578   1.462   6.676   1.359  0.0739 -0.1238  0.9971
 4721TIP3    H235579   1.332   6.712   1.428 -1.4683 -0.8481 -1.4053
 4722TIP3   OH235580   2.784   3.920   4.055  0.1323  0.4287  0.5386
 4722TIP3    H135581   2.754   3.974   4.128  0.1044 -0.2321  1.0214
 4722TIP3    H235582   2.738   3.956   3.979 -0.2881  0.7554  0.9383
 4723TIP3   OH235583   2.953   0.212   5.814  0.3020 -0.1786  0.4968
 4723TIP3    H135584   2.970   0.285   5.873 -0.3703  0.1200  0.3387
 4723TIP3    H235585   2.907   0.147   5.868  1.1936 -0.6293  0.7197
 4724TIP3   OH235586   4.809   4.225   4.164 -0.3737  0.2303 -0.1832
 4724TIP3    H135587   4.715   4.209   4.168 -0.2285 -0.5921  0.1304
 4724TIP3    H235588   4.817   4.312   4.124 -1.2876  0.7155  0.6388
 4725TIP3   OH235589   5.388   0.573  12.053  0.1557  0.1044  0.4042
 4725TIP3    H135590   5.317   0.567  11.989 -0.1972  1.1209  0.6724
 4725TIP3    H235591   5.435   0.491  12.045 -1.2042 -0.6963  0.3884
 4726TIP3   OH235592   4.467   2.699  13.539 -0.0704  0.2012 -0.1525
 4726TIP3    H135593   4.386   2.751  13.544  0.6703  1.6259 -1.8050
 4726TIP3    H235594   4.525   2.739  13.604 -0.8561 -1.2756  1.5541
 4727TIP3   OH235595   2.384   0.109   5.124 -0.3485  0.4661  0.4195
 4727TIP3    H135596   2.421   0.197   5.135  1.5972 -0.1337 -0.8341
 4727TIP3    H235597   2.341   0.112   5.038 -1.4700  0.5499  0.9648
 4728TIP3   OH235598   5.297   0.363   1.831  0.0685  0.2575  0.0055
 4728TIP3    H135599   5.340   0.448   1.822  1.0554 -0.2868 -0.5616
 4728TIP3    H235600   5.349   0.304   1.777 -2.0178 -0.2297 -1.5570
 4729TIP3   OH235601   5.211   1.426   4.612  1.1783 -0.3281  0.2422
 4729TIP3    H135602   5.295   1.382   4.623  1.1749  0.0563  2.1380
 4729TIP3    H235603   5.161   1.403   4.690 -0.6716 -0.8932 -1.0478
 4730TIP3   OH235604   0.610   4.893   1.566 -0.7627  0.1740 -0.3034
 4730TIP3    H135605   0.662   4.836   1.623 -1.8694 -0.0593  0.5145
 4730TIP3    H235606   0.661   4.973   1.559 -0.8807  0.4531  1.5468
 4731TIP3   OH235607   0.937   4.646  16.234 -0.3263 -0.3755 -0.7410
 4731TIP3    H135608   1.013   4.703  16.226  0.1875 -0.8508  0.4425
 4731TIP3    H235609   0.949   4.579  16.167  0.7972 -0.9774  0.0361
 4732TIP3   OH235610   1.136   0.460   2.478  0.8314 -0.0750 -0.0313
 4732TIP3    H135611   1.093   0.393   2.426  0.2611  0.9705 -0.9463
 4732TIP3    H235612   1.227   0.459   2.447  0.6617  0.0504 -0.5417
 4733TIP3   OH235613   2.943   1.976   1.543 -0.5678 -0.3602 -0.1229
 4733TIP3    H135614   2.885   1.912   1.585 -0.5971  0.1525  0.6505
 4733TIP3    H235615   3.007   1.923   1.496  0.4650 -1.0348  1.9007
 4734TIP3   OH235616   6.735   0.165  14.243  0.2565 -0.0549  0.3330
 4734TIP3    H135617   6.643   0.137  14.244  0.3391 -0.4075 -0.8391
 4734TIP3    H235618   6.783   0.092  14.281  0.1199 -0.0939  0.4352
 4735TIP3   OH235619   5.676   6.014   1.743 -0.4764  0.2098  0.1303
 4735TIP3    H135620   5.681   6.106   1.767  2.0983  0.7317 -1.9843
 4735TIP3    H235621   5.628   6.014   1.660 -1.2587 -0.5004  0.5632
 4736TIP3   OH235622   0.009   0.019  13.359 -0.4613 -0.4539 -0.1501
 4736TIP3    H135623  -0.008  -0.042  13.287 -0.3048 -1.5330  0.7040
 4736TIP3    H235624   0.104   0.035  13.355 -0.3423 -1.0433  0.2169
 4737TIP3   OH235625   0.828   0.485   1.289 -0.2855 -0.2239  0.3046
 4737TIP3    H135626   0.913   0.523   1.266 -0.4035 -1.2403 -2.2001
 4737TIP3    H235627   0.767   0.524   1.226 -1.7482  0.5364  2.0942
 4738TIP3   OH235628   6.597   2.219  13.319 -0.1244 -0.5009  0.5112
 4738TIP3    H135629   6.673   2.209  13.263 -1.3422 -0.2663 -1.2538
 4738TIP3    H235630   6.632   2.211  13.408  1.9800 -0.1126 -0.2220
 4739TIP3   OH235631   0.671   2.987   6.177 -0.1366 -0.3069  0.3818
 4739TIP3    H135632   0.579   2.995   6.201 -0.1337 -0.3752  0.4158
 4739TIP3    H235633   0.715   2.954   6.255  0.3831  2.2100  1.2318
 4740TIP3   OH235634   2.973   1.602   2.170  0.1566  0.0018  0.1751
 4740TIP3    H135635   2.975   1.693   2.140 -1.6744  0.2747  0.7880
 4740TIP3    H235636   3.014   1.605   2.257 -2.2888  0.7989  1.4004
 4741TIP3   OH235637   1.813   4.738  14.855  0.1976 -0.1172  0.0485
 4741TIP3    H135638   1.854   4.730  14.941 -0.1135 -0.8148  0.1364
 4741TIP3    H235639   1.826   4.830  14.831  2.3516 -0.4256 -0.2039
 4742TIP3   OH235640   1.743   0.188  16.387  0.1687  0.3504 -0.2474
 4742TIP3    H135641   1.733   0.188  16.482 -2.8936 -0.4156 -0.4750
 4742TIP3    H235642   1.798   0.112  16.369  0.8061  0.5154  0.8736
 4743TIP3   OH235643   4.706   5.143   5.429  0.8899  0.5947 -0.0729
 4743TIP3    H135644   4.655   5.063   5.419 -0.1452  1.3383 -0.9482
 4743TIP3    H235645   4.791   5.121   5.392  0.1124  0.3614 -1.8166
 4744TIP3   OH235646   6.591   6.587   1.216 -0.0431 -0.0024 -0.5815
 4744TIP3    H135647   6.564   6.501   1.184 -0.5652  0.1430 -0.5315
 4744TIP3    H235648   6.581   6.644   1.140  1.3108 -0.1815 -0.9190
 4745TIP3   OH235649   4.482   6.394  17.231  0.0008  0.4192  0.0145
 4745TIP3    H135650   4.509   6.459  17.297 -0.2197 -0.0184  0.5461
 4745TIP3    H235651   4.478   6.312  17.279  1.1713 -0.1739 -0.8518
 4746TIP3   OH235652   0.014   1.053  16.418 -0.4187  0.0167  0.5683
 4746TIP3    H135653   0.042   1.095  16.337 -0.4799  1.4682  1.2765
 4746TIP3    H235654  -0.022   0.969  16.390 -2.0370  1.1880 -1.1290
 4747TIP3   OH235655   0.340   5.505   3.802  0.2866 -0.2943 -0.5142
 4747TIP3    H135656   0.249   5.528   3.783  0.9275  1.0993 -2.2161
 4747TIP3    H235657   0.364   5.562   3.875  0.2677  0.6141 -1.1908
 4748TIP3   OH235658   2.044   0.573   5.856  0.0738  0.3273  0.1379
 4748TIP3    H135659   1.955   0.592   5.888 -0.2626 -0.4655 -0.2885
 4748TIP3    H235660   2.047   0.478   5.848 -0.1154  0.4498 -2.7820
 4749TIP3   OH235661   2.047   5.233   0.974 -0.4205 -0.2647 -0.3912
 4749TIP3    H135662   2.103   5.263   0.903 -1.7180 -1.3024 -1.9041
 4749TIP3    H235663   1.962   5.273   0.957 -1.5737 -2.8685 -1.1851
 4750TIP3   OH235664   2.501   1.376   4.994 -0.0131  0.0317 -0.3388
 4750TIP3    H135665   2.593   1.357   5.013  0.0232  0.5988  0.0588
 4750TIP3    H235666   2.503   1.429   4.914  0.1630  1.8619  0.8212
 4751TIP3   OH235667   3.133   0.650   2.517 -0.0017  0.2745 -0.0818
 4751TIP3    H135668   3.075   0.579   2.492  0.7474 -0.5248  0.3928
 4751TIP3    H235669   3.096   0.684   2.598 -1.2020  1.4381 -1.0686
 4752TIP3   OH235670   5.406   5.599  16.879 -0.2150  0.0119  0.1272
 4752TIP3    H135671   5.327   5.546  16.884 -0.1769 -0.3055 -1.8320
 4752TIP3    H235672   5.396   5.663  16.949 -0.8762 -1.7343  1.7050
 4753TIP3   OH235673   6.479   5.459   0.457 -0.0783  0.2953 -0.4996
 4753TIP3    H135674   6.427   5.443   0.379  1.3222  0.9171 -1.5926
 4753TIP3    H235675   6.567   5.478   0.425  0.2785  1.7010  1.1528
 4754TIP3   OH235676   1.316   0.994   5.775  0.5633 -0.1409 -0.3471
 4754TIP3    H135677   1.268   0.987   5.692 -1.7214 -1.0845  0.9658
 4754TIP3    H235678   1.326   1.088   5.790  1.1348  0.0447 -1.7233
 4755TIP3   OH235679   5.863   1.366  15.429 -0.3082 -0.4613 -0.1104
 4755TIP3    H135680   5.902   1.326  15.351  0.9631 -2.6927  1.5632
 4755TIP3    H235681   5.920   1.341  15.501 -3.2559 -1.4611  2.0853
 4756TIP3   OH235682   0.784   5.061   6.037  0.7811  0.5060 -0.0394
 4756TIP3    H135683   0.819   4.985   5.991  0.7138  0.2635  0.3018
 4756TIP3    H235684   0.825   5.136   5.996 -1.5161  0.5268 -2.5670
 4757TIP3   OH235685   6.315   5.074  13.299  0.0066 -0.4466 -0.0015
 4757TIP3    H135686   6.343   4.989  13.266  0.6194 -0.8172  1.4036
 4757TIP3    H235687   6.376   5.093  13.371  0.3628  1.5274 -0.7460
 4758TIP3   OH235688   0.501   3.452  16.778  0.0930  0.4696  0.4406
 4758TIP3    H135689   0.474   3.448  16.687  1.4232 -0.8987  0.0583
 4758TIP3    H235690   0.453   3.526  16.815 -1.9257 -0.1423 -0.8541
 4759TIP3   OH235691   1.358   6.116   3.975 -0.1505  0.0504 -0.5255
 4759TIP3    H135692   1.306   6.163   4.040  1.0326  1.2010 -0.3631
 4759TIP3    H235693   1.339   6.024   3.991 -1.2899  0.3876  0.2259
 4760TIP3   OH235694   3.421   1.084   5.266  0.0679 -0.9258  0.0177
 4760TIP3    H135695   3.378   1.013   5.313  0.1395 -0.7537  0.3460
 4760TIP3    H235696   3.483   1.040   5.208  0.7223 -1.0968  0.8349
 4761TIP3   OH235697   6.258   5.747   0.355 -0.2628  0.4954 -0.2409
 4761TIP3    H135698   6.335   5.719   0.405 -0.0103  2.3213  0.4708
 4761TIP3    H235699   6.212   5.806   0.414 -0.5820  1.8189 -1.7456
 4762TIP3   OH235700   3.747   0.529  15.683  0.3960 -0.4940 -0.6641
 4762TIP3    H135701   3.834   0.552  15.650  0.6918 -1.3534 -0.5181
 4762TIP3    H235702   3.761   0.509  15.776 -0.3474  1.4520 -0.0779
 4763TIP3   OH235703   6.046   5.510  14.923  0.6025 -0.5122 -0.0330
 4763TIP3    H135704   6.042   5.592  14.875  1.4257  0.0547  0.8390
 4763TIP3    H235705   6.132   5.474  14.903  1.2229  0.0521  1.4867
 4764TIP3   OH235706   3.730   1.025   2.325 -0.6489  0.8210 -0.1379
 4764TIP3    H135707   3.810   0.972   2.316  0.3089  2.2173 -0.2441
 4764TIP3    H235708   3.707   1.049   2.236 -0.8854  0.8560 -0.0670
 4765TIP3   OH235709   3.494   6.545  11.087 -0.0220 -0.7848  0.2538
 4765TIP3    H135710   3.459   6.489  11.018  0.1510  1.3556 -1.6974
 4765TIP3    H235711   3.588   6.549  11.070 -0.1023  0.4908  0.0094
 4766TIP3   OH235712   0.278   5.484   4.599  0.4698 -0.1211 -0.5050
 4766TIP3    H135713   0.270   5.469   4.505  0.9605 -0.1619 -0.5433
 4766TIP3    H235714   0.196   5.526   4.624  0.5292  0.3280 -1.0430
 4767TIP3   OH235715   5.740   2.414  13.244 -0.2539  0.0165  0.3078
 4767TIP3    H135716   5.657   2.379  13.277 -0.7090  2.1436  1.5655
 4767TIP3    H235717   5.733   2.508  13.255  1.9652  0.3338 -0.4785
 4768TIP3   OH235718   3.450   5.042  10.638 -0.2189  0.1236  0.2359
 4768TIP3    H135719   3.383   5.098  10.599 -1.7854 -1.5643  0.3755
 4768TIP3    H235720   3.480   4.987  10.566  0.5560  0.3899  0.3384
 4769TIP3   OH235721   6.011   5.608   1.091 -0.1138  0.2797  0.1678
 4769TIP3    H135722   6.089   5.641   1.136  1.4502  1.0503 -2.8197
 4769TIP3    H235723   5.999   5.519   1.125  0.9448  0.7947  2.0162
 4770TIP3   OH235724   4.911   2.057  15.229  0.4784  0.7011  0.0522
 4770TIP3    H135725   5.006   2.049  15.237  0.4318 -1.7235 -0.7155
 4770TIP3    H235726   4.897   2.075  15.136  0.1806 -0.8587 -0.2365
 4771TIP3   OH235727   4.113   3.187  14.063 -0.2954  0.4402  0.1146
 4771TIP3    H135728   4.040   3.175  14.124  1.0996 -1.1975  1.5688
 4771TIP3    H235729   4.080   3.152  13.980 -2.3031  2.9028 -0.2629
 4772TIP3   OH235730   0.899   5.876   1.782 -0.1578  0.3230  0.6087
 4772TIP3    H135731   0.915   5.921   1.699 -1.8752  0.6101  0.3759
 4772TIP3    H235732   0.976   5.822   1.796 -0.0201 -0.1186 -1.4435
 4773TIP3   OH235733   5.797   3.200  12.470  0.5935  0.1439  0.5469
 4773TIP3    H135734   5.809   3.109  12.494 -1.0445  0.1144  1.4547
 4773TIP3    H235735   5.855   3.249  12.529 -0.0743 -0.2122  1.5283
 4774TIP3   OH235736   0.459   3.311   2.701 -0.0704  0.3823 -0.2389
 4774TIP3    H135737   0.444   3.319   2.607  0.3586  0.9117 -0.2680
 4774TIP3    H235738   0.374   3.329   2.740  0.3050  2.9671 -0.4179
 4775TIP3   OH235739   6.434   6.517   5.062  0.0073  0.0548  0.1704
 4775TIP3    H135740   6.529   6.514   5.077  0.4138  3.0952 -1.0857
 4775TIP3    H235741   6.422   6.480   4.974 -0.3267 -2.5053  1.2352
 4776TIP3   OH235742   6.391   6.635   1.972 -0.4803  0.4315 -0.3450
 4776TIP3    H135743   6.350   6.676   1.895 -2.3547  0.7890  0.7685
 4776TIP3    H235744   6.405   6.708   2.033 -0.1942 -0.0216  0.1336
 4777TIP3   OH235745   6.463   3.438   1.205 -0.3751  0.1228 -0.3245
 4777TIP3    H135746   6.425   3.509   1.256 -0.0666  0.6706 -0.8522
 4777TIP3    H235747   6.515   3.481   1.137  2.4068 -0.5679  1.2056
 4778TIP3   OH235748   1.398   2.841   5.226  0.0928  0.2284  0.1980
 4778TIP3    H135749   1.489   2.871   5.226 -0.3514  1.7513 -1.3941
 4778TIP3    H235750   1.392   2.783   5.302  2.6115 -0.6578 -0.1801
 4779TIP3   OH235751   0.718   6.661   5.739 -0.2746  0.0646 -0.3325
 4779TIP3    H135752   0.757   6.646   5.653 -0.3307  1.2463 -0.5702
 4779TIP3    H235753   0.778   6.618   5.800  0.5317  0.4675 -0.8317
 4780TIP3   OH235754   2.984   0.813   1.899 -1.0052 -0.2232 -0.2340
 4780TIP3    H135755   3.074   0.801   1.930 -0.6463 -1.3844 -1.5942
 4780TIP3    H235756   2.931   0.764   1.961 -0.8611  1.3866  1.2294
 4781TIP3   OH235757   5.489   6.472   6.872  0.0075  0.5560  1.3324
 4781TIP3    H135758   5.441   6.555   6.862  0.3765  0.5578 -1.3670
 4781TIP3    H235759   5.579   6.499   6.892  0.0796  0.8350  0.6756
 4782TIP3   OH235760   5.359   4.305   5.433  0.1403  0.1652  0.6935
 4782TIP3    H135761   5.351   4.246   5.358 -0.9203  1.2777 -0.1099
 4782TIP3    H235762   5.341   4.249   5.509 -3.1381 -0.1911 -0.1688
 4783TIP3   OH235763   6.522   3.429  17.268 -0.2900  0.1524 -0.1328
 4783TIP3    H135764   6.504   3.391  17.354 -1.5167  0.5034 -0.2224
 4783TIP3    H235765   6.436   3.452  17.233  0.0929 -0.8938 -1.8864
 4784TIP3   OH235766   2.051   0.037  15.007  0.3671 -0.2183  0.2087
 4784TIP3    H135767   2.058  -0.037  15.068  1.6207  1.2133  1.9009
 4784TIP3    H235768   2.139   0.075  15.005 -0.0786  0.8335 -1.1771
 4785TIP3   OH235769   4.248   6.262   0.705  0.0559 -0.0480  0.1097
 4785TIP3    H135770   4.218   6.341   0.750 -1.9406 -1.0755  0.7072
 4785TIP3    H235771   4.234   6.192   0.769  1.5041 -0.9620 -0.5126
 4786TIP3   OH235772   3.863   1.270   1.688 -0.1338 -0.2752  0.5367
 4786TIP3    H135773   3.860   1.346   1.746  0.1730 -0.2618  0.5369
 4786TIP3    H235774   3.938   1.285   1.632 -2.1297  1.1991 -1.9511
 4787TIP3   OH235775   4.494   2.502   6.605 -0.0861  0.7224 -0.6454
 4787TIP3    H135776   4.407   2.482   6.640  0.5669  0.1093  0.7191
 4787TIP3    H235777   4.512   2.591   6.635  0.3557  0.2991  0.4155
 4788TIP3   OH235778   4.662   1.367   3.329 -0.0676  0.4327  1.1104
 4788TIP3    H135779   4.698   1.351   3.416  1.9392 -1.5982  0.0241
 4788TIP3    H235780   4.670   1.283   3.284 -2.2629  1.0653 -0.6597
 4789TIP3   OH235781   1.100   1.952   3.661 -0.1709  0.1002 -0.4269
 4789TIP3    H135782   1.129   1.958   3.569  1.0568 -1.4914 -0.2063
 4789TIP3    H235783   1.017   1.905   3.657 -0.6529  0.9734 -0.7912
 4790TIP3   OH235784   5.616   6.460  14.878 -0.0314 -0.4589  0.0143
 4790TIP3    H135785   5.663   6.466  14.961 -0.8396  2.5725  0.3747
 4790TIP3    H235786   5.680   6.486  14.812  0.6333 -2.9433 -0.3932
 4791TIP3   OH235787   0.673   6.687   5.128  0.2824  0.5323  0.1061
 4791TIP3    H135788   0.730   6.742   5.076  1.7457 -1.0209 -0.0103
 4791TIP3    H235789   0.683   6.599   5.091 -0.1296 -0.2634  1.7542
 4792TIP3   OH235790   4.320   5.607   0.639  0.1093  0.3844  0.3810
 4792TIP3    H135791   4.336   5.648   0.554  0.0843 -0.7842 -0.2105
 4792TIP3    H235792   4.225   5.600   0.644  0.1055  0.5809  0.5653
 4793TIP3   OH235793   5.723   2.248   5.100 -0.0530 -0.4754  0.2096
 4793TIP3    H135794   5.635   2.261   5.136  0.4698  1.0232  1.0469
 4793TIP3    H235795   5.720   2.163   5.058 -3.2951  1.3181 -3.8064
 4794TIP3   OH235796   3.457   1.437  12.375 -0.0640  0.4003 -0.1199
 4794TIP3    H135797   3.404   1.360  12.354  0.2735  0.1974 -0.2235
 4794TIP3    H235798   3.537   1.402  12.414 -0.5181  0.7513  1.1720
 4795TIP3   OH235799   0.572   2.271   5.429 -0.7709 -0.5292  0.2041
 4795TIP3    H135800   0.656   2.235   5.458 -0.0671  0.6423 -0.3321
 4795TIP3    H235801   0.547   2.333   5.497  0.0228  0.9245 -0.7843
 4796TIP3   OH235802   6.588   2.338  14.544 -0.2756 -0.1147 -0.3121
 4796TIP3    H135803   6.604   2.270  14.610 -1.3587 -0.6143 -0.5396
 4796TIP3    H235804   6.494   2.356  14.551 -0.0611  1.1242 -0.4896
 4797TIP3   OH235805   6.047   4.335  15.362 -0.0144 -0.1819 -0.0614
 4797TIP3    H135806   5.959   4.315  15.330 -0.3320 -1.4387  1.5004
 4797TIP3    H235807   6.032   4.373  15.449  0.8733  2.3087 -0.8881
 4798TIP3   OH235808   4.172   0.736  12.665 -0.5117  0.2169  0.0200
 4798TIP3    H135809   4.228   0.806  12.633 -0.2257 -0.9630 -2.2803
 4798TIP3    H235810   4.189   0.732  12.759  1.6782  1.2651 -0.2744
 4799TIP3   OH235811   6.592   6.513   0.613 -0.0216 -0.4050  0.3042
 4799TIP3    H135812   6.554   6.477   0.533 -0.6704  0.2861  0.2890
 4799TIP3    H235813   6.679   6.543   0.587  0.5325 -1.9189  0.3139
 4800TIP3   OH235814   4.206   4.235  14.103 -0.5372  0.1254 -0.6893
 4800TIP3    H135815   4.215   4.311  14.162 -2.2164  1.7190 -2.3568
 4800TIP3    H235816   4.277   4.176  14.130  0.0256  1.6709  1.5540
 4801TIP3   OH235817   5.380   6.347  10.649 -0.2473 -0.0447 -0.2732
 4801TIP3    H135818   5.370   6.398  10.730  2.4831 -0.4790  0.4391
 4801TIP3    H235819   5.453   6.388  10.604 -0.9121 -0.6126 -1.9358
 4802TIP3   OH235820   0.666   0.686   6.181 -0.0665  0.4553 -0.5475
 4802TIP3    H135821   0.591   0.646   6.136 -1.1581  1.3744  0.3843
 4802TIP3    H235822   0.713   0.733   6.111 -0.3792 -0.0847 -1.1332
 4803TIP3   OH235823   4.648   6.069  15.737 -0.1840 -0.1787 -0.2716
 4803TIP3    H135824   4.666   6.069  15.831 -0.3095  1.6411 -0.2126
 4803TIP3    H235825   4.718   6.122  15.700 -1.0705  0.5162 -0.9883
 4804TIP3   OH235826   3.717   3.738   3.177 -0.2032  0.0346 -0.1521
 4804TIP3    H135827   3.635   3.707   3.216  0.0932  0.2546  0.6596
 4804TIP3    H235828   3.755   3.660   3.137 -0.0347 -0.4208  0.8614
 4805TIP3   OH235829   2.865   5.688  12.759 -0.8117  0.0829 -0.1031
 4805TIP3    H135830   2.787   5.634  12.758 -1.4450  0.9018  1.6345
 4805TIP3    H235831   2.840   5.768  12.712 -0.6358 -0.1272 -0.5628
 4806TIP3   OH235832   1.254   6.216  13.050 -0.3632  0.3513 -0.1347
 4806TIP3    H135833   1.342   6.207  13.013  0.9038  0.3067  2.6499
 4806TIP3    H235834   1.195   6.205  12.976  1.9396 -0.6955 -1.9098
 4807TIP3   OH235835   5.113   6.625  17.121 -0.8204 -0.4424 -0.4489
 4807TIP3    H135836   5.107   6.530  17.109 -0.0571 -0.7493  1.3062
 4807TIP3    H235837   5.057   6.644  17.196 -0.8445  0.4872 -0.6848
 4808TIP3   OH235838   4.107   0.625  12.136  0.2253  0.6286  0.2208
 4808TIP3    H135839   4.198   0.653  12.132  0.7231 -0.7089  1.2287
 4808TIP3    H235840   4.058   0.705  12.156  1.2756  1.2299  0.4667
 4809TIP3   OH235841   2.885   6.730  11.971  0.1382  0.1828 -0.1841
 4809TIP3    H135842   2.893   6.735  12.066 -1.4527  1.2590 -0.0612
 4809TIP3    H235843   2.887   6.821  11.942 -1.8966  0.0673 -0.8831
 4810TIP3   OH235844   2.927   0.779   0.265  0.3464 -0.1225 -0.3939
 4810TIP3    H135845   2.943   0.825   0.347  1.7620 -3.7156  1.5692
 4810TIP3    H235846   3.010   0.785   0.218  0.9342 -1.5432  0.4094
 4811TIP3   OH235847   6.199   3.185  12.582  0.1722 -0.0452 -0.0179
 4811TIP3    H135848   6.254   3.257  12.552  2.0288 -0.1385  2.7816
 4811TIP3    H235849   6.133   3.227  12.638 -0.3537 -0.2946 -0.4412
 4812TIP3   OH235850   6.169   2.846  16.019 -0.2367 -0.4907  0.2749
 4812TIP3    H135851   6.228   2.889  16.082 -0.5601  0.1879  0.1185
 4812TIP3    H235852   6.218   2.769  15.990 -0.0496 -0.7699  1.2970
 4813TIP3   OH235853   5.616   3.998  15.743 -0.0873 -0.1534  0.0327
 4813TIP3    H135854   5.594   4.015  15.835 -0.8219 -2.7239  0.3915
 4813TIP3    H235855   5.701   3.955  15.747  0.8053  1.4555 -0.6938
 4814TIP3   OH235856   5.005   4.598  13.094  0.5144 -0.3014  0.2777
 4814TIP3    H135857   4.964   4.592  13.008 -2.2869  0.5085  1.4447
 4814TIP3    H235858   4.983   4.517  13.138  0.8560 -0.1845  0.6773
 4815TIP3   OH235859   1.351   5.102   4.327 -0.0510  0.8148 -0.3229
 4815TIP3    H135860   1.423   5.045   4.356 -0.0862 -0.9384 -3.3525
 4815TIP3    H235861   1.278   5.079   4.384  0.4683 -0.8623 -0.2927
 4816TIP3   OH235862   3.765   4.557  14.480 -0.4929 -0.0846 -0.2013
 4816TIP3    H135863   3.791   4.478  14.527 -0.1215 -0.7953 -1.5457
 4816TIP3    H235864   3.696   4.528  14.421 -0.1661  0.5248 -0.8953
 4817TIP3   OH235865   3.191   1.437  14.420 -0.4648  0.7025  0.2541
 4817TIP3    H135866   3.119   1.471  14.367 -0.6423  0.9941  0.6783
 4817TIP3    H235867   3.167   1.345  14.436 -0.4549  0.6388 -0.0911
 4818TIP3   OH235868   5.765   5.257  14.596 -0.2262 -0.5457 -0.0347
 4818TIP3    H135869   5.823   5.328  14.623  0.9732 -1.6975  0.5918
 4818TIP3    H235870   5.721   5.289  14.517  1.0832  0.4820 -0.3754
 4819TIP3   OH235871   5.298   6.572  15.456 -0.7105  0.2030  0.4289
 4819TIP3    H135872   5.250   6.608  15.531 -0.6005 -0.6337  0.9134
 4819TIP3    H235873   5.275   6.630  15.383 -2.4541 -0.1555  0.6446
 4820TIP3   OH235874   1.464   5.529  15.506  0.4038 -0.3586 -0.4524
 4820TIP3    H135875   1.475   5.509  15.413 -1.6216 -2.4954 -0.3110
 4820TIP3    H235876   1.396   5.596  15.508 -0.1103 -0.8734 -0.4916
 4821TIP3   OH235877   6.061   5.556  15.421  0.0140 -0.3943  0.6651
 4821TIP3    H135878   6.080   5.617  15.492 -0.1725  1.1276 -0.5458
 4821TIP3    H235879   6.065   5.609  15.341 -2.8368 -1.3374 -0.2425
 4822TIP3   OH235880   4.395   0.783  11.701 -0.0880 -0.1186 -0.5751
 4822TIP3    H135881   4.476   0.736  11.722  0.4500  1.1519  0.3291
 4822TIP3    H235882   4.328   0.715  11.700  0.6925 -0.9460  0.4673
 4823TIP3   OH235883   4.524   0.429  11.225 -0.1853  0.5892 -0.1674
 4823TIP3    H135884   4.617   0.442  11.244 -0.1985  1.0381 -0.3818
 4823TIP3    H235885   4.520   0.345  11.178  0.0509  0.3278  0.2783
 4824TIP3   OH235886   1.283   1.982  14.280 -0.0182  0.2630 -0.5405
 4824TIP3    H135887   1.343   2.051  14.253  1.2088 -0.6842 -0.2984
 4824TIP3    H235888   1.208   1.992  14.221  1.2115  0.2409 -2.1935
 4825TIP3   OH235889   5.838   5.866   4.287 -0.0148 -1.1396 -0.2544
 4825TIP3    H135890   5.795   5.781   4.291 -0.5959 -0.8973 -0.9439
 4825TIP3    H235891   5.931   5.846   4.282 -0.0848 -1.7000  0.5983
 4826TIP3   OH235892   5.273   2.705  15.696 -0.1790 -0.3759 -0.4201
 4826TIP3    H135893   5.195   2.666  15.657 -0.4603 -0.1080 -0.1292
 4826TIP3    H235894   5.244   2.790  15.729  0.4228  0.0695 -1.0233
 4827TIP3   OH235895   5.521   6.116   2.521  0.1311  0.7929 -0.7548
 4827TIP3    H135896   5.488   6.026   2.519  2.6434 -0.1969 -3.2823
 4827TIP3    H235897   5.503   6.150   2.434  2.1992  1.5122 -0.9559
 4828TIP3   OH235898   3.100   1.772  13.396  0.2458 -0.1094  0.2996
 4828TIP3    H135899   3.155   1.768  13.318 -1.0678 -0.8984 -0.6484
 4828TIP3    H235900   3.108   1.862  13.426  0.0151  0.5164 -1.3656
 4829TIP3   OH235901   5.119   2.062   5.825 -0.0504  0.0380  0.0312
 4829TIP3    H135902   5.136   2.153   5.850 -0.3909 -0.2855  1.5609
 4829TIP3    H235903   5.106   2.017   5.909  0.2120 -1.4391 -0.7002
 4830TIP3   OH235904   4.304   2.458  11.797 -0.1412 -0.1266  0.3695
 4830TIP3    H135905   4.350   2.382  11.760  0.6141  0.4559  0.0755
 4830TIP3    H235906   4.298   2.439  11.890  0.2128 -0.4708  0.3271
 4831TIP3   OH235907   2.585   4.202   6.557 -0.3992 -0.1126  0.3406
 4831TIP3    H135908   2.560   4.192   6.465 -0.4363 -4.1435  0.5921
 4831TIP3    H235909   2.505   4.234   6.600 -1.9315 -2.6044 -0.4454
 4832TIP3   OH235910   3.555   5.154  14.978  0.0333 -0.5612  0.2217
 4832TIP3    H135911   3.544   5.202  14.895 -0.5049 -1.1591 -0.0591
 4832TIP3    H235912   3.533   5.217  15.046 -0.4823 -0.3474 -0.1380
 4833TIP3   OH235913   5.893   3.304  16.869  0.4765  0.4682 -0.1632
 4833TIP3    H135914   5.955   3.244  16.911 -0.0342 -0.9471 -1.3671
 4833TIP3    H235915   5.890   3.275  16.778 -0.9511  1.3700 -0.4221
 4834TIP3   OH235916   0.696   3.401  12.113  0.2742  0.1145 -0.0741
 4834TIP3    H135917   0.715   3.475  12.056  1.3307 -0.8622 -1.0582
 4834TIP3    H235918   0.782   3.368  12.139 -0.1858 -0.3531  0.9021
 4835TIP3   OH235919   5.406   2.567  11.648  0.4022 -0.6356 -0.0535
 4835TIP3    H135920   5.328   2.590  11.697 -0.6839  0.6221 -2.2168
 4835TIP3    H235921   5.462   2.644  11.654 -0.3706  0.1204 -1.8889
 4836TIP3   OH235922   2.848   5.422   5.653 -0.9251 -0.1541 -0.2344
 4836TIP3    H135923   2.753   5.414   5.655 -1.0877  1.4683 -0.5256
 4836TIP3    H235924   2.879   5.356   5.715 -2.2441 -0.4722  0.1094
 4837TIP3   OH235925   1.879   4.014   4.936 -0.4074  0.3192 -0.3037
 4837TIP3    H135926   1.905   4.105   4.954  0.2505  0.6915 -2.7703
 4837TIP3    H235927   1.956   3.976   4.893 -1.8332 -0.3238 -2.4594
 4838TIP3   OH235928   4.685   1.098   2.543  0.5077  0.2094 -0.1141
 4838TIP3    H135929   4.677   1.062   2.631 -0.4887  2.4519  0.7894
 4838TIP3    H235930   4.752   1.166   2.551  0.1949  0.6372 -0.9849
 4839TIP3   OH235931   1.244   5.741   2.323  0.0207  0.2352 -0.3602
 4839TIP3    H135932   1.169   5.782   2.367  0.3744 -1.3775  1.9795
 4839TIP3    H235933   1.303   5.814   2.304 -0.9125  1.2228  0.3534
 4840TIP3   OH235934   1.897   1.878  12.037  0.4548  0.1587  0.1420
 4840TIP3    H135935   1.843   1.821  11.981  1.5145 -2.7128  1.7945
 4840TIP3    H235936   1.851   1.878  12.121  0.9170  1.1191  0.3973
 4841TIP3   OH235937   1.225   0.530  13.228  0.5056 -0.1042  0.1299
 4841TIP3    H135938   1.262   0.453  13.272  0.3626 -0.6468 -0.6705
 4841TIP3    H235939   1.150   0.496  13.179  0.0066  0.6760  0.3402
 4842TIP3   OH235940   0.051   1.695  16.909 -0.3607 -0.3643  0.1069
 4842TIP3    H135941   0.047   1.634  16.982 -0.1005 -1.4727 -0.7819
 4842TIP3    H235942   0.052   1.640  16.831 -0.7659  0.7962 -0.7479
 4843TIP3   OH235943   3.378   0.395   1.228 -0.3291 -0.0116 -0.3082
 4843TIP3    H135944   3.426   0.468   1.190  1.0117  0.2231  1.7053
 4843TIP3    H235945   3.339   0.430   1.308  0.1752 -1.4380  0.5967
 4844TIP3   OH235946   2.154   4.079   3.188  0.1285 -0.0686 -0.8004
 4844TIP3    H135947   2.094   4.088   3.262  1.3331  3.3847 -0.1062
 4844TIP3    H235948   2.175   3.985   3.186 -3.4562 -1.0787  0.2737
 4845TIP3   OH235949   2.688   1.860  15.181  0.2035 -0.2069  0.1571
 4845TIP3    H135950   2.637   1.786  15.213 -0.4293  0.1134 -0.1005
 4845TIP3    H235951   2.774   1.849  15.222  0.8104 -2.2155 -1.4708
 4846TIP3   OH235952   3.425   5.060   1.872  0.2189 -0.6831 -0.2414
 4846TIP3    H135953   3.438   5.034   1.781  0.3463  1.4841 -0.8963
 4846TIP3    H235954   3.492   5.126   1.887  1.1320 -1.9964  1.9132
 4847TIP3   OH235955   2.553   3.302   4.837  0.2082  0.0022 -0.0782
 4847TIP3    H135956   2.566   3.397   4.836 -0.4160  0.1088  0.6723
 4847TIP3    H235957   2.505   3.283   4.757  0.9159  0.2169 -0.5673
 4848TIP3   OH235958   3.820   3.782   5.606  0.1097 -0.1224 -0.1125
 4848TIP3    H135959   3.867   3.865   5.613  0.2264 -0.1732 -0.2958
 4848TIP3    H235960   3.882   3.723   5.564  0.1132 -0.3684  0.2292
 4849TIP3   OH235961   4.763   0.421  16.370  0.1190 -0.2293 -0.3363
 4849TIP3    H135962   4.690   0.472  16.334  0.3553 -0.4696 -1.1870
 4849TIP3    H235963   4.722   0.352  16.421 -0.2206  0.3723  0.2162
 4850TIP3   OH235964   6.662   3.431   1.945  0.4536  0.1232 -0.4040
 4850TIP3    H135965   6.729   3.494   1.921  1.2601 -1.1371 -1.5840
 4850TIP3    H235966   6.588   3.484   1.975  0.8246  1.6602 -2.0626
 4851TIP3   OH235967   6.257   5.157   0.122 -0.2468 -0.4312 -0.3907
 4851TIP3    H135968   6.265   5.207   0.203 -0.2160 -1.4895  0.2923
 4851TIP3    H235969   6.325   5.192   0.064  1.1795 -1.0718  0.8258
 4852TIP3   OH235970   0.942   1.699   3.854 -0.4453 -0.3717 -0.2224
 4852TIP3    H135971   0.890   1.675   3.777  0.6522 -0.2504 -1.0219
 4852TIP3    H235972   0.899   1.778   3.887 -1.4411 -0.9051 -0.1763
 4853TIP3   OH235973   3.112   0.366  14.786  0.6159 -0.4476  0.2361
 4853TIP3    H135974   3.033   0.390  14.737  1.9404  1.7891 -0.9932
 4853TIP3    H235975   3.081   0.313  14.859 -1.9274 -0.1189 -0.5313
 4854TIP3   OH235976   0.153   1.390  14.405 -0.1780 -0.0157 -0.5750
 4854TIP3    H135977   0.166   1.415  14.496  0.0894 -0.9769 -0.3390
 4854TIP3    H235978   0.105   1.307  14.410 -0.9170  0.3522 -1.3278
 4855TIP3   OH235979   2.996   6.121  14.804 -0.5365  0.0946  0.2015
 4855TIP3    H135980   2.982   6.114  14.709  1.2987  0.4597 -0.1327
 4855TIP3    H235981   2.992   6.031  14.836 -0.0368 -0.1505 -0.4107
 4856TIP3   OH235982   4.046   5.226  10.982  0.5977  0.5662  0.1856
 4856TIP3    H135983   4.123   5.210  11.037  1.1962  1.8162 -0.2507
 4856TIP3    H235984   4.054   5.162  10.911  0.1465 -0.6410  1.1661
 4857TIP3   OH235985   5.707   4.601   4.180 -0.7316  0.1798  0.5735
 4857TIP3    H135986   5.722   4.686   4.222 -0.3116  0.0548  0.6748
 4857TIP3    H235987   5.646   4.556   4.239 -1.4174  0.6284  0.2313
 4858TIP3   OH235988   0.607   4.300   2.590 -0.2641  0.8521  0.0011
 4858TIP3    H135989   0.631   4.244   2.517 -1.7659  2.7829 -2.1164
 4858TIP3    H235990   0.527   4.261   2.625 -0.7986  1.1267 -0.8791
 4859TIP3   OH235991   5.810   6.741   6.250  0.1453 -0.2837 -0.2243
 4859TIP3    H135992   5.853   6.824   6.230 -0.2790 -0.2661 -1.1649
 4859TIP3    H235993   5.771   6.714   6.166 -0.4807 -0.9782  0.2733
 4860TIP3   OH235994   2.846   0.534   2.824 -0.4265 -0.0840  0.4019
 4860TIP3    H135995   2.801   0.539   2.740 -1.8371  0.7171  1.1730
 4860TIP3    H235996   2.929   0.579   2.809 -0.0808 -1.1209 -0.9106
 4861TIP3   OH235997   6.288   2.147  16.208 -0.3377 -0.6584 -0.2292
 4861TIP3    H135998   6.357   2.161  16.273  0.5826  0.0735 -1.3298
 4861TIP3    H235999   6.209   2.134  16.260  0.1595  1.0104  1.0499
 4862TIP3   OH236000   2.393   1.821   2.166  0.2436 -0.2521 -0.8052
 4862TIP3    H136001   2.339   1.843   2.090 -0.6130 -1.5085 -0.5834
 4862TIP3    H236002   2.482   1.811   2.131  0.1060  0.4841 -1.3988
 4863TIP3   OH236003   1.785   3.817  14.763  0.3353 -0.6181  0.2952
 4863TIP3    H136004   1.791   3.725  14.788 -0.8312 -1.0578 -0.9370
 4863TIP3    H236005   1.701   3.847  14.799  0.4765 -0.1729  0.2684
 4864TIP3   OH236006   2.811   0.231  16.436 -0.2650  0.0522 -0.2867
 4864TIP3    H136007   2.766   0.181  16.368 -0.1537 -0.5274  0.0530
 4864TIP3    H236008   2.903   0.211  16.423 -0.2673 -0.3362  0.2348
 4865TIP3   OH236009   0.240   4.032  16.014 -0.5739  0.0266 -0.0998
 4865TIP3    H136010   0.333   4.035  16.038 -0.6356  0.5990  0.0686
 4865TIP3    H236011   0.213   4.124  16.010 -2.0741 -0.1152  3.4310
 4866TIP3   OH236012   0.189   0.881  14.396  0.3991 -0.1453 -0.0344
 4866TIP3    H136013   0.137   0.844  14.468 -1.0153 -0.0026 -0.9479
 4866TIP3    H236014   0.177   0.819  14.324  0.5805  0.4882 -0.6111
 4867TIP3   OH236015   3.671   1.424  17.028 -0.0136 -0.5005 -0.3129
 4867TIP3    H136016   3.603   1.414  17.095  0.1449  0.0004 -0.0760
 4867TIP3    H236017   3.666   1.516  17.002  0.1215 -0.6253 -0.7840
 4868TIP3   OH236018   5.317   2.461  15.081  0.5170 -0.3856  0.0648
 4868TIP3    H136019   5.374   2.533  15.112 -0.9444  0.6707  0.3963
 4868TIP3    H236020   5.301   2.408  15.158  0.3653 -0.2065  0.1555
 4869TIP3   OH236021   1.011   3.615  15.065 -0.4525 -0.0390 -0.2286
 4869TIP3    H136022   1.055   3.542  15.109  1.3434  0.1507 -1.5773
 4869TIP3    H236023   1.047   3.693  15.107  0.4012  0.1167 -1.2163
 4870TIP3   OH236024   3.141   3.076  12.886 -0.1987  0.2347  0.0057
 4870TIP3    H136025   3.120   2.988  12.854 -1.2169 -0.0574  1.3451
 4870TIP3    H236026   3.091   3.135  12.830 -2.3040 -0.2856  1.2062
 4871TIP3   OH236027   1.640   2.961  14.008  0.3891  1.0272 -0.2022
 4871TIP3    H136028   1.671   2.901  13.940 -0.0856  0.4293  0.0998
 4871TIP3    H236029   1.707   2.956  14.076 -0.8875 -1.2256  1.0111
 4872TIP3   OH236030   3.234   4.278   3.436 -0.0891 -0.3212  0.3693
 4872TIP3    H136031   3.309   4.335   3.421 -1.6217  1.7203 -0.1277
 4872TIP3    H236032   3.227   4.271   3.531 -0.8712  1.8715  0.5306
 4873TIP3   OH236033   2.380   2.397   2.037  0.4379 -0.0858 -0.3479
 4873TIP3    H136034   2.412   2.486   2.049  0.6177 -0.4688  3.1895
 4873TIP3    H236035   2.310   2.387   2.102 -1.0991 -1.9029 -2.1322
 4874TIP3   OH236036   6.538   3.762  12.226  0.1204 -0.1253 -0.2853
 4874TIP3    H136037   6.607   3.817  12.262  1.9573 -0.5942 -2.7654
 4874TIP3    H236038   6.564   3.748  12.134 -2.8877 -0.9807 -1.1306
 4875TIP3   OH236039   5.149   2.965  11.261  0.0723  0.2871 -0.0083
 4875TIP3    H136040   5.201   3.045  11.267 -0.6502  0.7201  0.8345
 4875TIP3    H236041   5.074   2.981  11.320  1.1171 -1.8960  2.0837
 4876TIP3   OH236042   0.602   4.869   4.379 -0.3744 -0.1480 -0.2333
 4876TIP3    H136043   0.635   4.956   4.355 -2.0052  1.0032  1.4453
 4876TIP3    H236044   0.601   4.870   4.475 -0.9954 -1.7994 -0.2006
 4877TIP3   OH236045   4.131   5.353   0.732  0.2300  0.1570 -0.4024
 4877TIP3    H136046   4.077   5.294   0.784  0.1115  0.3643 -0.2888
 4877TIP3    H236047   4.087   5.438   0.739  1.9938  0.9936  1.9129
 4878TIP3   OH236048   6.432   2.607   1.514 -0.4622  0.0804 -0.3654
 4878TIP3    H136049   6.438   2.533   1.453  1.3303  0.5713 -0.8612
 4878TIP3    H236050   6.344   2.642   1.500 -0.8591 -1.1490 -1.0978
 4879TIP3   OH236051   3.065   6.022  11.781 -0.6618  0.0468  0.2142
 4879TIP3    H136052   3.147   6.000  11.736 -0.1387  1.0484  0.6589
 4879TIP3    H236053   3.064   5.966  11.858  0.2599  0.9385  0.8989
 4880TIP3   OH236054   0.370   0.411   4.206 -0.4105  0.1752  0.2591
 4880TIP3    H136055   0.343   0.360   4.282  0.0737 -0.8346 -0.2305
 4880TIP3    H236056   0.462   0.431   4.221 -0.8744  1.9914  1.0210
 4881TIP3   OH236057   2.172   1.871  15.710 -0.0464 -0.3773 -0.3098
 4881TIP3    H136058   2.165   1.826  15.794 -2.8444  1.3061  0.4981
 4881TIP3    H236059   2.097   1.840  15.660 -0.3353  1.1142 -0.8653
 4882TIP3   OH236060   1.002   6.061   2.224  0.2063 -0.5927  0.0156
 4882TIP3    H136061   1.074   6.111   2.186  2.6334 -3.3396  0.6250
 4882TIP3    H236062   0.940   6.127   2.253  1.9290  1.8951 -1.5605
 4883TIP3   OH236063   6.329   5.249  11.542 -0.5506  0.1231  0.0637
 4883TIP3    H136064   6.325   5.287  11.630 -1.4213  1.1053 -0.3832
 4883TIP3    H236065   6.418   5.215  11.535 -0.2826  0.5648  1.1128
 4884TIP3   OH236066   2.514   1.362  13.289  0.4552  0.2424 -0.8466
 4884TIP3    H136067   2.512   1.280  13.240 -2.0499 -0.1210 -0.2902
 4884TIP3    H236068   2.504   1.430  13.221 -2.1462 -0.2144 -1.0181
 4885TIP3   OH236069   6.147   5.764   3.754  0.0606  0.1989  0.3094
 4885TIP3    H136070   6.163   5.695   3.690 -1.4644 -0.5677  0.6989
 4885TIP3    H236071   6.053   5.759   3.770  0.3893  0.3962  2.5585
 4886TIP3   OH236072   3.862   6.376  15.603  0.1648  0.1491  0.3866
 4886TIP3    H136073   3.872   6.300  15.545 -1.1946 -0.6418  1.1271
 4886TIP3    H236074   3.828   6.340  15.685  0.5088  1.4380  1.1325
 4887TIP3   OH236075   3.970   1.957  13.347  0.0240  0.2974  0.7068
 4887TIP3    H136076   3.942   2.049  13.348  1.9044  0.9374 -0.0960
 4887TIP3    H236077   3.934   1.922  13.266  0.8060  0.8851  0.0831
 4888TIP3   OH236078   6.103   5.431   3.823 -0.7293  0.5742 -0.1840
 4888TIP3    H136079   6.179   5.427   3.881 -1.6493  1.4050  1.1461
 4888TIP3    H236080   6.136   5.467   3.741  0.9502 -2.1493 -0.8469
 4889TIP3   OH236081   1.167   6.233  15.612  0.5037  0.5753  0.3204
 4889TIP3    H136082   1.098   6.225  15.678  0.7206 -1.4071  0.3777
 4889TIP3    H236083   1.143   6.169  15.545  0.8586  1.7970 -1.0143
 4890TIP3   OH236084   5.383   3.604  17.170  0.3186 -0.2016  0.3025
 4890TIP3    H136085   5.447   3.675  17.169  0.1423  0.0246  2.0099
 4890TIP3    H236086   5.328   3.621  17.094 -0.7043  2.4775  1.5049
 4891TIP3   OH236087   4.930   5.262   1.971  0.4555  0.6375 -0.4346
 4891TIP3    H136088   4.858   5.208   1.938 -0.1246  0.6809  0.7072
 4891TIP3    H236089   4.892   5.349   1.981  0.0371  0.2432  2.0650
 4892TIP3   OH236090   6.573   0.747  11.562 -0.3397 -0.3918  0.1443
 4892TIP3    H136091   6.615   0.688  11.500  0.2136  0.1700 -0.0212
 4892TIP3    H236092   6.582   0.703  11.647  1.6967  0.2742  0.3200
 4893TIP3   OH236093   0.464   6.394  14.429  0.3464 -0.6810  0.1486
 4893TIP3    H136094   0.405   6.328  14.464 -0.8808 -0.5531 -1.5503
 4893TIP3    H236095   0.529   6.407  14.498 -1.5313 -0.9059  2.0615
 4894TIP3   OH236096   0.090   1.714   5.629  0.0760  0.0813 -0.1223
 4894TIP3    H136097   0.126   1.723   5.541  0.8548  0.9960  0.2687
 4894TIP3    H236098   0.134   1.781   5.680  0.7601 -1.3752  1.3187
 4895TIP3   OH236099   1.811   6.427   6.001  0.0348 -0.3085  0.0009
 4895TIP3    H136100   1.765   6.508   6.023 -0.2817 -0.3798 -0.3959
 4895TIP3    H236101   1.785   6.365   6.070 -1.6944 -0.8138 -1.0469
 4896TIP3   OH236102   6.104   5.008  11.521 -0.2224  0.6054 -0.0144
 4896TIP3    H136103   6.155   5.051  11.589  1.1610  0.5082 -0.9420
 4896TIP3    H236104   6.155   4.930  11.499 -0.7673  0.5118 -0.9937
 4897TIP3   OH236105   0.733   6.483  13.079  0.1415  0.0227  0.1143
 4897TIP3    H136106   0.768   6.399  13.052  1.2437  0.6173 -0.3393
 4897TIP3    H236107   0.734   6.480  13.175 -0.7921 -0.8509  0.1173
 4898TIP3   OH236108   6.320   2.694   0.405 -0.0689 -0.1030  0.0764
 4898TIP3    H136109   6.300   2.755   0.334  1.6105  0.8116  0.3247
 4898TIP3    H236110   6.340   2.750   0.480  1.0959 -0.9365  0.4311
 4899TIP3   OH236111   5.699   3.997  11.269  0.3794 -0.4375  0.8892
 4899TIP3    H136112   5.711   3.919  11.323  0.6982 -1.4732 -0.6138
 4899TIP3    H236113   5.747   3.979  11.189 -1.7497  0.1426 -0.6220
 4900TIP3   OH236114   2.209   6.256   5.261 -0.3724  0.3949  0.3929
 4900TIP3    H136115   2.240   6.258   5.352  0.4408 -2.0309  0.2574
 4900TIP3    H236116   2.240   6.338   5.223 -1.4485  1.8486  2.4784
 4901TIP3   OH236117   2.064   6.297   0.112  0.0395  0.2350  0.2587
 4901TIP3    H136118   2.030   6.384   0.091 -0.7493 -0.4085 -1.2076
 4901TIP3    H236119   2.069   6.252   0.028 -2.2430 -2.1170  1.2856
 4902TIP3   OH236120   0.605   0.650  16.624 -0.7320 -0.7278 -0.2442
 4902TIP3    H136121   0.529   0.616  16.671 -0.1511  0.9736  2.1104
 4902TIP3    H236122   0.679   0.633  16.682  0.5101 -1.1803 -1.9003
 4903TIP3   OH236123   5.739   4.902  14.380 -0.2848 -0.1232 -0.0237
 4903TIP3    H136124   5.831   4.924  14.395 -0.5737  0.5296  0.9243
 4903TIP3    H236125   5.723   4.926  14.289 -0.4279  3.3091  0.7743
 4904TIP3   OH236126   2.801   1.745  16.705 -0.6430  0.3114  0.4993
 4904TIP3    H136127   2.749   1.684  16.756  0.9173 -0.1531  1.6182
 4904TIP3    H236128   2.847   1.689  16.641 -1.7038  0.7489 -0.6804
 4905TIP3   OH236129   6.284   0.599  16.637 -0.2440  0.5853 -1.1980
 4905TIP3    H136130   6.218   0.570  16.699  2.7289  0.7808  2.4262
 4905TIP3    H236131   6.328   0.518  16.609  0.5260  0.6908 -0.3516
 4906TIP3   OH236132   2.234   3.847   5.269 -0.5863 -0.2818 -0.0644
 4906TIP3    H136133   2.145   3.826   5.241 -0.7025  0.0859  0.0188
 4906TIP3    H236134   2.291   3.803   5.206 -0.7997 -1.6034  0.6400
 4907TIP3   OH236135   4.129   1.992  12.183 -0.0938  0.3571  0.1986
 4907TIP3    H136136   4.169   2.063  12.132 -0.3439 -1.2174 -2.3182
 4907TIP3    H236137   4.202   1.937  12.210 -0.2047 -0.6728 -1.4890
 4908TIP3   OH236138   0.152   5.091   1.315  0.6175  0.1951  0.0828
 4908TIP3    H136139   0.059   5.074   1.298  0.5920  2.3595 -2.5238
 4908TIP3    H236140   0.162   5.077   1.410 -2.3293 -0.0698  0.4453
 4909TIP3   OH236141   2.912   4.804   1.182  0.9213  0.4422 -0.3459
 4909TIP3    H136142   2.847   4.737   1.202  0.7697  0.0185 -2.1188
 4909TIP3    H236143   2.887   4.878   1.238  0.0728 -0.3714  0.3946
 4910TIP3   OH236144   6.701   2.538   0.003 -0.2919 -0.3044 -0.4528
 4910TIP3    H136145   6.776   2.525  -0.055  1.0798 -1.7773  1.4970
 4910TIP3    H236146   6.720   2.621   0.048  1.5710 -1.8071  1.7954
 4911TIP3   OH236147   5.326   4.797   3.266  0.1009  0.3352  0.1637
 4911TIP3    H136148   5.396   4.732   3.255 -1.1105 -0.8643 -0.7242
 4911TIP3    H236149   5.282   4.771   3.347 -1.5222 -1.1246 -1.1203
 4912TIP3   OH236150   4.866   0.337   3.141  0.7417 -0.2731 -0.8910
 4912TIP3    H136151   4.859   0.319   3.047  0.6540  0.3526 -1.0046
 4912TIP3    H236152   4.959   0.358   3.154  0.7270 -0.2269 -0.8615
 4913TIP3   OH236153   0.391   0.282   4.994 -0.4005  0.7139 -0.6907
 4913TIP3    H136154   0.426   0.241   5.074 -1.0723 -1.8282 -1.5898
 4913TIP3    H236155   0.437   0.237   4.923 -2.3122  0.4162 -1.7841
 4914TIP3   OH236156   4.230   1.396  16.599  0.4056  0.1125 -0.4563
 4914TIP3    H136157   4.249   1.470  16.541  1.7229  0.1596 -0.0066
 4914TIP3    H236158   4.150   1.359  16.564 -0.1169  1.5602 -0.8838
 4915TIP3   OH236159   3.507   3.118  14.657  0.2296 -0.3894  0.0233
 4915TIP3    H136160   3.596   3.097  14.629  1.0414  0.4522  1.7874
 4915TIP3    H236161   3.478   3.039  14.705 -0.5637 -1.2165 -1.7260
 4916TIP3   OH236162   4.768   2.435  16.245  0.0709  0.7398 -0.0401
 4916TIP3    H136163   4.685   2.480  16.230 -1.2283 -1.1666  1.0372
 4916TIP3    H236164   4.818   2.450  16.164 -1.6775  1.1829 -1.0913
 4917TIP3   OH236165   2.754   6.020   4.103 -0.3919 -0.6620  0.3467
 4917TIP3    H136166   2.828   6.057   4.152 -1.1637  3.7912 -1.4066
 4917TIP3    H236167   2.786   6.015   4.013 -1.7777  0.0741 -0.2096
 4918TIP3   OH236168   3.375   1.172  12.450 -0.6653 -0.1174 -0.3258
 4918TIP3    H136169   3.445   1.106  12.450  0.1395  0.6918 -1.4099
 4918TIP3    H236170   3.296   1.123  12.428 -0.2736 -0.8899 -0.0622
 4919TIP3   OH236171   5.544   1.903  13.625  0.0247 -0.0480  0.1695
 4919TIP3    H136172   5.572   1.911  13.534  0.9677  1.4303  0.5611
 4919TIP3    H236173   5.457   1.942  13.627 -0.1863 -0.4878 -0.1698
 4920TIP3   OH236174   4.133   4.198   1.586  0.0263 -0.4423  0.2779
 4920TIP3    H136175   4.112   4.161   1.672  0.6791 -1.1736  0.1375
 4920TIP3    H236176   4.228   4.198   1.582  0.0268 -2.3401 -1.2105
 4921TIP3   OH236177   1.137   1.307  14.874 -0.0817  0.3807 -0.0979
 4921TIP3    H136178   1.107   1.229  14.827  0.2984 -0.3165  0.7745
 4921TIP3    H236179   1.085   1.307  14.955  1.4538 -0.2224  0.9223
 4922TIP3   OH236180   3.754   2.068   5.591 -0.3123  0.2380 -0.0785
 4922TIP3    H136181   3.785   2.093   5.503  0.0560 -0.1409 -0.0616
 4922TIP3    H236182   3.740   2.151   5.636 -3.5520  0.6097 -1.4854
 4923TIP3   OH236183   0.123   2.341  11.654 -0.1710  0.3223  0.0396
 4923TIP3    H136184   0.162   2.313  11.737 -2.6878 -0.1928  1.1320
 4923TIP3    H236185   0.105   2.260  11.607  0.5879  0.5832 -0.7345
 4924TIP3   OH236186   2.411   0.583   0.840 -0.1827 -0.5458 -0.0413
 4924TIP3    H136187   2.473   0.635   0.790 -1.3172  0.5938 -0.3046
 4924TIP3    H236188   2.459   0.502   0.860  0.3838 -0.9802 -2.7620
 4925TIP3   OH236189   0.726   4.951  16.200  0.3798 -0.1355  0.0995
 4925TIP3    H136190   0.810   4.936  16.157 -0.0530  0.1802 -0.8819
 4925TIP3    H236191   0.723   5.045  16.217 -0.8163  0.3004 -2.1784
 4926TIP3   OH236192   1.418   5.719   5.266  0.1343  0.0184 -0.0179
 4926TIP3    H136193   1.385   5.802   5.233  0.4204 -0.0999 -0.6121
 4926TIP3    H236194   1.342   5.661   5.265  0.0354  0.1491 -0.0249
 4927TIP3   OH236195   2.664   4.351   3.455 -0.0904 -0.4349  0.5495
 4927TIP3    H136196   2.664   4.355   3.360  0.2288 -0.3030  0.5526
 4927TIP3    H236197   2.576   4.319   3.478 -0.2564 -0.2168  0.2254
 4928TIP3   OH236198   3.410   4.585  13.139  0.3044  0.4017  0.3853
 4928TIP3    H136199   3.478   4.642  13.176 -0.5386  0.6068  1.6632
 4928TIP3    H236200   3.391   4.623  13.053  2.3186 -0.0915 -0.3371
 4929TIP3   OH236201   1.621   6.654  14.547 -0.0127 -0.0596 -0.2484
 4929TIP3    H136202   1.544   6.617  14.504  0.7587 -3.3588  0.9707
 4929TIP3    H236203   1.692   6.637  14.486 -0.0808  2.8795 -1.3175
 4930TIP3   OH236204   4.609   1.486  11.195  0.7415 -0.3148  0.0687
 4930TIP3    H136205   4.564   1.436  11.264  2.0201 -0.2014  1.0358
 4930TIP3    H236206   4.586   1.577  11.213  2.3758 -0.1100  1.4370
 4931TIP3   OH236207   2.821   4.453   5.237 -0.1195 -0.8050 -0.1159
 4931TIP3    H136208   2.777   4.479   5.318  0.4450 -1.1142  0.2901
 4931TIP3    H236209   2.885   4.522   5.221 -0.9007 -0.2251 -0.8419
 4932TIP3   OH236210   5.445   5.001   4.842  0.5739  0.1786 -0.2559
 4932TIP3    H136211   5.501   5.056   4.787  2.2269 -0.6884  0.5243
 4932TIP3    H236212   5.405   5.063   4.903 -0.1221  0.9397 -1.4334
 4933TIP3   OH236213   4.743   2.363  11.970  0.4630 -0.0249  0.9813
 4933TIP3    H136214   4.826   2.340  11.928  0.8016 -0.0048  1.6148
 4933TIP3    H236215   4.694   2.411  11.903  0.9824 -0.0004  0.6138
 4934TIP3   OH236216   0.798   1.794  14.558  0.0985  0.1065  0.2000
 4934TIP3    H136217   0.724   1.790  14.618 -1.5236  1.9691 -1.5145
 4934TIP3    H236218   0.864   1.846  14.605 -0.4104 -0.0081  1.0561
 4935TIP3   OH236219   3.603   3.720   0.997  0.2256 -0.0015  0.2227
 4935TIP3    H136220   3.641   3.633   0.995 -0.7830 -0.4848  1.3594
 4935TIP3    H236221   3.678   3.779   1.004  0.8494 -0.8485  0.8358
 4936TIP3   OH236222   5.480   1.840  14.294  0.4173  0.6134  0.6248
 4936TIP3    H136223   5.395   1.864  14.258  0.4410  0.0888  0.2156
 4936TIP3    H236224   5.495   1.903  14.365 -0.1715  0.8941  0.5010
 4937TIP3   OH236225   1.858   6.386  10.557 -0.0226  0.5195 -1.1418
 4937TIP3    H136226   1.772   6.370  10.519 -0.3119 -0.6007 -0.0752
 4937TIP3    H236227   1.854   6.476  10.589 -1.6469 -0.2357  0.9568
 4938TIP3   OH236228   3.541   3.227  11.066  0.1940  0.4004  0.1306
 4938TIP3    H136229   3.482   3.157  11.095 -0.2593  0.5414 -0.4305
 4938TIP3    H236230   3.556   3.208  10.973  1.4322  0.0912  0.3675
 4939TIP3   OH236231   6.733   1.779   3.763 -0.3341  0.0786  0.1051
 4939TIP3    H136232   6.677   1.795   3.687  0.6372 -0.7911 -0.8073
 4939TIP3    H236233   6.794   1.853   3.764 -0.2419  0.0033 -0.0481
 4940TIP3   OH236234   1.963   0.873   6.377 -0.3382 -0.4358 -0.0299
 4940TIP3    H136235   1.877   0.891   6.338 -0.5833 -1.2884  0.0961
 4940TIP3    H236236   1.959   0.916   6.463  0.0659  1.1199 -0.7441
 4941TIP3   OH236237   1.610   6.297   2.106 -0.4036 -0.2916 -0.0504
 4941TIP3    H136238   1.575   6.373   2.060  1.5773  1.3122  0.9546
 4941TIP3    H236239   1.562   6.293   2.188 -1.2105 -0.7668 -0.5362
 4942TIP3   OH236240   1.776   1.905   1.163  0.7746  0.2735 -0.3208
 4942TIP3    H136241   1.853   1.860   1.127  2.0032  2.4560 -0.6272
 4942TIP3    H236242   1.728   1.837   1.211  1.8443 -1.5802 -1.7534
 4943TIP3   OH236243   5.358   1.347  16.337 -0.1247  0.4230  0.0353
 4943TIP3    H136244   5.401   1.352  16.423 -0.6683  0.1547  0.3286
 4943TIP3    H236245   5.426   1.373  16.275  0.7153 -0.7536  0.4096
 4944TIP3   OH236246   6.400   0.258  14.949 -0.4584 -0.7104  0.7557
 4944TIP3    H136247   6.429   0.182  14.898  1.4376  0.5249 -0.1347
 4944TIP3    H236248   6.456   0.258  15.027  0.7331  0.6482 -0.0531
 4945TIP3   OH236249   0.859   1.790  16.880 -0.0383  0.7306 -0.1051
 4945TIP3    H136250   0.921   1.848  16.836  1.9515  0.0295  1.6452
 4945TIP3    H236251   0.877   1.802  16.974 -0.5047 -1.6772  0.3497
 4946TIP3   OH236252   5.771   0.276   5.666 -0.4925  0.4295 -0.3396
 4946TIP3    H136253   5.743   0.359   5.627  0.3176  0.1352 -1.5817
 4946TIP3    H236254   5.712   0.264   5.740  0.4564  2.9819  0.9650
 4947TIP3   OH236255   1.166   0.240   3.833 -0.1537 -0.4423  0.1828
 4947TIP3    H136256   1.203   0.162   3.875  0.4687 -0.5421 -0.5354
 4947TIP3    H236257   1.190   0.231   3.741  0.9481  1.1980  0.2803
 4948TIP3   OH236258   5.489   0.177   2.186 -0.1357  0.2412 -0.3630
 4948TIP3    H136259   5.526   0.202   2.101  2.7520  0.2104  0.7480
 4948TIP3    H236260   5.536   0.232   2.249  1.0314 -2.7030  1.5354
 4949TIP3   OH236261   6.104   3.150  11.287  0.3271  0.2187 -0.6280
 4949TIP3    H136262   6.174   3.096  11.250  1.0583 -0.3367  1.3849
 4949TIP3    H236263   6.150   3.223  11.329 -0.2768 -0.1387  0.7087
 4950TIP3   OH236264   6.133   1.487  16.747 -0.1650  0.1111  0.2794
 4950TIP3    H136265   6.185   1.409  16.729 -1.7867 -0.6556 -1.4365
 4950TIP3    H236266   6.156   1.549  16.678 -1.4253 -0.2205 -0.4779
 4951TIP3   OH236267   5.641   0.879   3.615  0.3858  0.3282  0.0190
 4951TIP3    H136268   5.649   0.788   3.646 -0.2749  0.1592 -0.2817
 4951TIP3    H236269   5.731   0.910   3.610  0.8013 -0.9786 -1.8152
 4952TIP3   OH236270   4.838   5.037  12.698 -0.8772  0.1545  0.1068
 4952TIP3    H136271   4.923   5.028  12.742 -1.0831 -1.2724  0.2531
 4952TIP3    H236272   4.774   5.031  12.768 -1.1330  0.3619 -0.1072
 4953TIP3   OH236273   5.215   5.157  15.652  0.4049  0.2258  0.2071
 4953TIP3    H136274   5.126   5.122  15.647  1.4199 -2.5609  0.0112
 4953TIP3    H236275   5.237   5.178  15.561  0.4255 -0.4034  0.0620
 4954TIP3   OH236276   0.053   2.563  10.689  0.4370 -0.0665  0.4358
 4954TIP3    H136277   0.008   2.511  10.755 -0.2351  0.2974  0.2832
 4954TIP3    H236278   0.016   2.533  10.606  1.7874 -1.0191  0.1541
 4955TIP3   OH236279   3.136   2.311   0.347 -0.0733  0.0267  0.1110
 4955TIP3    H136280   3.157   2.284   0.436 -0.0299  0.2777  0.1772
 4955TIP3    H236281   3.177   2.396   0.337  0.2837 -0.1851 -0.2914
 4956TIP3   OH236282   4.637   4.982  17.258  0.2457 -0.8525 -0.3745
 4956TIP3    H136283   4.554   5.022  17.232 -0.0747 -0.0440  1.7333
 4956TIP3    H236284   4.620   4.888  17.254 -0.6592 -0.7055 -0.3193
 4957TIP3   OH236285   0.579   0.119  16.289  0.4134 -0.0795  0.3699
 4957TIP3    H136286   0.523   0.046  16.316 -0.1237  0.5027  0.8613
 4957TIP3    H236287   0.656   0.077  16.251 -0.1329 -0.8982  0.1386
 4958TIP3   OH236288   2.489   2.839  15.356 -0.1818 -0.2179  0.2218
 4958TIP3    H136289   2.467   2.798  15.439 -0.4931  0.3020  0.4025
 4958TIP3    H236290   2.557   2.784  15.319 -0.3832 -0.7220  0.5984
 4959TIP3   OH236291   4.372   3.744  16.285  0.5961 -0.3651  0.1329
 4959TIP3    H136292   4.362   3.678  16.217  1.0903 -1.1241  0.7725
 4959TIP3    H236293   4.459   3.726  16.322 -0.0715 -0.6053  1.6225
 4960TIP3   OH236294   6.100   4.160  13.254  0.0096 -0.2357 -0.0270
 4960TIP3    H136295   6.007   4.141  13.250  0.0646 -1.1293  1.9383
 4960TIP3    H236296   6.138   4.085  13.300  1.4801  0.7747  0.4674
 4961TIP3   OH236297   3.337   3.330   4.554 -0.4440  0.3407 -0.1897
 4961TIP3    H136298   3.371   3.385   4.625  0.1718 -0.5131  0.1867
 4961TIP3    H236299   3.259   3.288   4.592 -0.3663  0.2181 -0.1684
 4962TIP3   OH236300   4.551   6.724   3.838  0.2634  0.2989  0.3052
 4962TIP3    H136301   4.510   6.646   3.877 -1.1861  0.6603 -0.4187
 4962TIP3    H236302   4.587   6.693   3.755  0.4532  0.2257  0.4131
 4963TIP3   OH236303   5.817   4.932   5.668 -0.1918 -0.2899 -0.0560
 4963TIP3    H136304   5.767   4.927   5.587 -0.3923 -2.6843  0.1342
 4963TIP3    H236305   5.895   4.879   5.652  0.4549  0.3339  0.8807
 4964TIP3   OH236306   2.695   5.814   3.930  0.0235 -0.8080 -0.0422
 4964TIP3    H136307   2.670   5.805   4.022 -0.9246 -0.6069 -0.2692
 4964TIP3    H236308   2.628   5.765   3.882 -0.7649  0.8876 -0.7663
 4965TIP3   OH236309   2.572   5.232  12.328  0.0070  0.1737 -0.4296
 4965TIP3    H136310   2.508   5.252  12.396  0.6759  1.5620 -0.1733
 4965TIP3    H236311   2.642   5.186  12.373 -0.4392 -0.6532 -0.5639
 4966TIP3   OH236312   0.315   0.257   6.830 -0.3161 -0.1720 -0.1787
 4966TIP3    H136313   0.387   0.194   6.826 -0.6355 -0.4618 -3.0920
 4966TIP3    H236314   0.353   0.339   6.798 -0.4779  0.6135  1.5025
 4967TIP3   OH236315   5.601   1.577  13.276  0.7013 -0.3961  0.2416
 4967TIP3    H136316   5.594   1.583  13.371  0.3897  0.2932  0.1781
 4967TIP3    H236317   5.613   1.483  13.259  1.2598 -0.4663  0.9868
 4968TIP3   OH236318   3.514   1.621  15.249 -0.1080  0.3873  0.3153
 4968TIP3    H136319   3.509   1.654  15.159 -0.7668 -1.0908 -0.2331
 4968TIP3    H236320   3.452   1.675  15.298 -2.3075 -0.9238 -0.8780
 4969TIP3   OH236321   0.695   6.426  15.751 -0.5432 -0.1918 -0.6339
 4969TIP3    H136322   0.648   6.413  15.833  0.9069 -0.2313  0.2371
 4969TIP3    H236323   0.627   6.437  15.685 -1.7443 -0.1498  0.5759
 4970TIP3   OH236324   3.986   1.061   3.659 -0.4652 -0.3792  0.5210
 4970TIP3    H136325   4.067   1.074   3.708 -0.0643 -0.3179 -0.1448
 4970TIP3    H236326   3.961   1.149   3.630 -0.9108 -0.3652  0.9467
 4971TIP3   OH236327   1.497   2.215  12.467  0.1150  0.0341  0.1652
 4971TIP3    H136328   1.576   2.268  12.482  1.3545 -1.7603  0.3136
 4971TIP3    H236329   1.499   2.195  12.374 -0.2313  0.0904  0.1462
 4972TIP3   OH236330   3.635   2.579  11.538  0.1284 -0.1445  0.0243
 4972TIP3    H136331   3.547   2.564  11.503 -0.3582 -1.3725  1.6512
 4972TIP3    H236332   3.690   2.516  11.491  0.0612  0.2946 -0.6543
 4973TIP3   OH236333   1.023   5.520  15.213  0.2407  0.1184  0.1616
 4973TIP3    H136334   0.982   5.538  15.297  1.6595 -1.7148  1.3228
 4973TIP3    H236335   1.061   5.604  15.186  0.6839  0.5003  1.8874
 4974TIP3   OH236336   2.042   4.885  11.587  0.1647  0.2588 -0.1386
 4974TIP3    H136337   1.974   4.904  11.652  0.6054  1.3913  0.0134
 4974TIP3    H236338   2.005   4.815  11.533 -1.6819  1.7237 -0.8806
 4975TIP3   OH236339   1.341   3.073  13.372 -0.5519  0.2883  0.6062
 4975TIP3    H136340   1.428   3.106  13.392 -0.5244  0.0485  0.8895
 4975TIP3    H236341   1.282   3.121  13.430 -0.5106 -0.1577  1.0253
 4976TIP3   OH236342   1.747   1.823   1.656 -0.0736  0.5146 -0.6514
 4976TIP3    H136343   1.668   1.867   1.627  0.7314  2.6021  0.1131
 4976TIP3    H236344   1.731   1.803   1.748 -0.2976 -0.5549 -0.9032
 4977TIP3   OH236345   4.363   2.399   4.094 -0.6190  0.4126 -0.7107
 4977TIP3    H136346   4.336   2.309   4.078 -1.9149  0.5070  0.7495
 4977TIP3    H236347   4.286   2.442   4.132  0.5476  1.6124  0.4311
 4978TIP3   OH236348   4.781   1.072   4.936 -0.7447  0.5189  0.4015
 4978TIP3    H136349   4.827   1.119   5.006 -0.5391  0.7986  0.0834
 4978TIP3    H236350   4.706   1.127   4.916 -0.1938  1.0143 -0.3664
 4979TIP3   OH236351   1.277   4.696  12.100  0.1940 -0.4793 -0.2100
 4979TIP3    H136352   1.275   4.657  12.188 -0.8280 -0.0810 -0.0398
 4979TIP3    H236353   1.223   4.638  12.047  1.4923 -1.1839 -0.7939
 4980TIP3   OH236354   2.769   3.999   4.993 -0.7155  0.5764  0.1933
 4980TIP3    H136355   2.843   3.990   5.053  0.8854  0.9406 -1.5981
 4980TIP3    H236356   2.799   3.957   4.912 -2.4004  0.9166 -0.6538
 4981TIP3   OH236357   3.156   3.080  13.997  0.1176  0.4147  0.0980
 4981TIP3    H136358   3.061   3.068  13.998  0.1908 -0.2220 -0.1241
 4981TIP3    H236359   3.174   3.119  13.911 -0.0695  1.6857  0.6257
 4982TIP3   OH236360   0.648   3.391   1.438  0.4469 -0.1201  0.4935
 4982TIP3    H136361   0.609   3.304   1.446 -0.0378  0.1428  1.0026
 4982TIP3    H236362   0.662   3.401   1.343 -2.3662  0.4672  0.0542
 4983TIP3   OH236363   3.103   0.618   4.534 -0.2940  0.7063 -0.5292
 4983TIP3    H136364   3.028   0.677   4.523 -0.0277  0.7804 -2.2027
 4983TIP3    H236365   3.107   0.568   4.452  1.3725  0.5700 -0.3991
 4984TIP3   OH236366   0.075   2.373  15.948 -0.6026 -0.0255  0.1188
 4984TIP3    H136367   0.103   2.457  15.913 -0.9331 -0.3862 -1.0699
 4984TIP3    H236368  -0.018   2.385  15.969 -0.5877 -0.0231  0.1834
 4985TIP3   OH236369   3.443   3.010   5.157 -0.5440  0.0545  0.3805
 4985TIP3    H136370   3.506   2.977   5.221 -1.2660 -2.0259  0.1099
 4985TIP3    H236371   3.425   2.934   5.100 -0.2063  1.7127 -2.0867
 4986TIP3   OH236372   4.250   1.834  11.763 -0.4956  0.1526 -0.6816
 4986TIP3    H136373   4.271   1.920  11.799 -2.7747  1.2498 -1.7938
 4986TIP3    H236374   4.190   1.796  11.827 -0.1606 -0.2766 -0.6157
 4987TIP3   OH236375   3.904   3.136  11.460 -0.2590 -0.7018 -0.7341
 4987TIP3    H136376   3.858   3.207  11.503  0.0649 -2.0319  2.0238
 4987TIP3    H236377   3.845   3.109  11.389 -0.5533  1.9562 -1.5975
 4988TIP3   OH236378   3.413   0.921   2.141  0.4705 -0.0803  0.2519
 4988TIP3    H136379   3.417   0.929   2.236  0.8091  0.5889  0.1822
 4988TIP3    H236380   3.493   0.961   2.109 -0.1401  0.6818 -0.3787
 4989TIP3   OH236381   2.345   4.217  13.477  0.2457  0.5479 -0.5696
 4989TIP3    H136382   2.327   4.189  13.387  0.0266 -0.0319 -0.3490
 4989TIP3    H236383   2.262   4.253  13.508 -0.4686 -1.6430  0.2683
 4990TIP3   OH236384   1.262   1.103  14.303 -0.2046  0.3428 -0.7530
 4990TIP3    H136385   1.308   1.161  14.242 -1.0731  1.3923 -0.4407
 4990TIP3    H236386   1.212   1.044  14.247 -0.3268  0.7410 -1.0694
 4991TIP3   OH236387   4.146   5.321  11.630  0.2218  0.3259  0.4999
 4991TIP3    H136388   4.133   5.350  11.721  3.5051  2.1090  0.5872
 4991TIP3    H236389   4.108   5.234  11.627 -2.1893  1.1541  2.8659
 4992TIP3   OH236390   6.490   0.134   6.391 -0.6897  0.4413 -0.1279
 4992TIP3    H136391   6.474   0.041   6.377  1.4532  0.0294 -0.2325
 4992TIP3    H236392   6.557   0.137   6.459  0.3594  1.8243 -1.1576
 4993TIP3   OH236393   0.123   5.774  15.329 -0.3752  0.1138 -0.2542
 4993TIP3    H136394   0.213   5.748  15.352 -0.2241  0.8816  0.0730
 4993TIP3    H236395   0.115   5.753  15.236  0.1027 -0.0776 -0.2566
 4994TIP3   OH236396   3.729   3.245  16.218  0.1110  0.0612 -0.1622
 4994TIP3    H136397   3.813   3.284  16.240  1.3964 -1.3371 -2.2710
 4994TIP3    H236398   3.731   3.234  16.123 -1.5273 -2.0622 -0.0352
 4995TIP3   OH236399   2.941   1.810  15.332  0.0713 -0.1405  0.2488
 4995TIP3    H136400   3.000   1.878  15.364  0.2991  0.6455 -1.7046
 4995TIP3    H236401   2.871   1.807  15.398  0.9366  0.7704  1.2506
 4996TIP3   OH236402   5.390   0.286   5.560  0.2441 -0.0649 -0.0465
 4996TIP3    H136403   5.395   0.203   5.512  0.9323 -0.8621  1.3512
 4996TIP3    H236404   5.337   0.266   5.637  2.3294  0.1492  1.5120
 4997TIP3   OH236405   4.645   0.714  11.807  0.7500 -0.4340  0.5218
 4997TIP3    H136406   4.678   0.766  11.880  0.3431 -0.2191  0.5553
 4997TIP3    H236407   4.691   0.630  11.815 -0.0772 -0.8096  1.6699
 4998TIP3   OH236408   4.153   6.212  13.398 -0.4660 -0.0837  0.1721
 4998TIP3    H136409   4.095   6.143  13.428 -0.3619 -0.4139 -0.3688
 4998TIP3    H236410   4.206   6.171  13.329 -0.0301  0.3822  0.2185
 4999TIP3   OH236411   0.951   4.405  11.281 -0.3451 -0.0802 -0.9442
 4999TIP3    H136412   1.004   4.430  11.205  0.2880 -0.7309 -0.7356
 4999TIP3    H236413   1.011   4.413  11.355 -0.7914 -0.0054 -0.5895
 5000TIP3   OH236414   0.164   1.918   5.184  0.2048 -0.1774  0.3321
 5000TIP3    H136415   0.116   1.993   5.218  1.5059  0.1135  1.6605
 5000TIP3    H236416   0.117   1.842   5.219  1.3584  0.1105  2.7409
 5001TIP3   OH236417   4.609   3.699  15.315 -0.3549 -0.2254  0.1177
 5001TIP3    H136418   4.669   3.764  15.278 -0.2945 -0.0228  0.5522
 5001TIP3    H236419   4.534   3.698  15.257 -0.5967  0.6363  0.4100
 5002TIP3   OH236420   0.093   6.129   5.984  0.3185 -0.3399 -0.3338
 5002TIP3    H136421   0.106   6.224   5.991  2.2716 -0.4585 -1.6203
 5002TIP3    H236422   0.059   6.104   6.070 -1.4949  1.6650 -0.3630
 5003TIP3   OH236423   4.696   1.059  14.139  0.2199  0.3205 -0.7547
 5003TIP3    H136424   4.768   1.090  14.194  0.7328  1.0076 -1.7866
 5003TIP3    H236425   4.675   1.134  14.083 -2.6424  0.8843  0.8234
 5004TIP3   OH236426   6.591   6.678   3.581  0.2300  0.2401  0.4766
 5004TIP3    H136427   6.591   6.719   3.667 -1.4538 -0.1671  0.7111
 5004TIP3    H236428   6.499   6.679   3.554  0.3596 -1.9564 -0.1914
 5005TIP3   OH236429   3.835   1.548  14.961  0.1890  0.4399  0.2847
 5005TIP3    H136430   3.930   1.563  14.965  0.1542  0.5415  0.7542
 5005TIP3    H236431   3.798   1.615  15.018 -0.0720 -0.5061  1.2511
 5006TIP3   OH236432   4.943   2.244   5.249  0.1429  0.4470 -0.2668
 5006TIP3    H136433   4.913   2.175   5.308 -1.0301  1.2467  0.0955
 5006TIP3    H236434   4.976   2.197   5.172 -1.2149 -0.5087 -0.2965
 5007TIP3   OH236435   6.217   3.690  11.977  0.0908  0.5548 -0.1280
 5007TIP3    H136436   6.159   3.733  12.040 -1.5556 -0.4220 -0.9139
 5007TIP3    H236437   6.268   3.629  12.029 -1.0860 -0.0756  0.3350
 5008TIP3   OH236438   0.266   1.350  15.976 -0.2486  0.1508 -0.4062
 5008TIP3    H136439   0.328   1.278  15.976 -0.4852 -0.0564 -0.5589
 5008TIP3    H236440   0.296   1.409  16.045  0.0117 -0.0360 -0.3611
 5009TIP3   OH236441   0.354   6.024   5.272 -0.1424  0.1249 -0.1449
 5009TIP3    H136442   0.356   5.930   5.289 -1.3608  0.2236  0.6935
 5009TIP3    H236443   0.280   6.056   5.323  1.1249  1.7788  0.7657
 5010TIP3   OH236444   2.522   1.692   2.399 -0.3911  0.2411 -0.5704
 5010TIP3    H136445   2.438   1.668   2.438 -1.5596 -3.9111 -4.6718
 5010TIP3    H236446   2.501   1.760   2.336 -0.1662  0.9258  0.0857
 5011TIP3   OH236447   1.159   4.287  12.713  0.9457  0.4055  0.3816
 5011TIP3    H136448   1.230   4.291  12.776  0.6408 -1.1972  0.8882
 5011TIP3    H236449   1.189   4.339  12.639  3.2947 -1.3626 -0.0340
 5012TIP3   OH236450   5.361   5.933   0.215  0.2912 -0.1806 -0.0461
 5012TIP3    H136451   5.384   5.840   0.211  0.5138 -0.1594  0.6650
 5012TIP3    H236452   5.364   5.962   0.124  1.5748 -0.5477 -0.1345
 5013TIP3   OH236453   2.548   5.447  13.489 -0.0681  0.0086  0.1634
 5013TIP3    H136454   2.469   5.477  13.445  0.2197  0.2498 -0.1931
 5013TIP3    H236455   2.528   5.357  13.516  0.1683 -0.5704 -1.4860
 5014TIP3   OH236456   6.498   4.249   4.274  0.1449  0.1453  0.2537
 5014TIP3    H136457   6.517   4.338   4.305  1.5850  0.7420 -2.0824
 5014TIP3    H236458   6.582   4.204   4.275 -0.2249 -0.5845 -0.3366
 5015TIP3   OH236459   5.447   0.428  17.266 -0.0245  0.0158 -0.9360
 5015TIP3    H136460   5.490   0.346  17.244 -0.4178  0.2072 -2.5181
 5015TIP3    H236461   5.481   0.450  17.353 -0.8115 -2.3849  0.0766
 5016TIP3   OH236462   2.430   3.182  15.629  0.7506  0.0046  0.4515
 5016TIP3    H136463   2.378   3.114  15.587 -2.1793  0.5635  2.8557
 5016TIP3    H236464   2.404   3.263  15.585 -0.1615  0.2250  1.3514
 5017TIP3   OH236465   4.301   0.569  13.665 -0.5722  0.4982 -0.0117
 5017TIP3    H136466   4.283   0.504  13.733  0.7515  1.1205  0.9643
 5017TIP3    H236467   4.279   0.653  13.706 -1.8122  0.7384 -1.1035
 5018TIP3   OH236468   5.691   6.333  12.530 -0.7201  0.3320 -0.2114
 5018TIP3    H136469   5.680   6.380  12.448  0.9613  0.0414 -0.6495
 5018TIP3    H236470   5.739   6.394  12.587 -0.9413  0.1496  0.1800
 5019TIP3   OH236471   3.811   3.719  14.893  0.0912 -0.4084  0.2961
 5019TIP3    H136472   3.875   3.743  14.960  0.1687 -0.2501  0.1675
 5019TIP3    H236473   3.791   3.802  14.849  0.1368 -0.5325  0.0411
 5020TIP3   OH236474   1.629   5.117  10.876 -0.0976 -0.1326  0.0392
 5020TIP3    H136475   1.574   5.060  10.823  2.1041 -0.9877 -1.4430
 5020TIP3    H236476   1.615   5.204  10.840 -0.8167 -0.2509  0.0094
 5021TIP3   OH236477   6.014   1.285  13.724  0.1537 -0.5972  0.0595
 5021TIP3    H136478   6.006   1.370  13.680  1.4505 -0.7487 -0.5229
 5021TIP3    H236479   6.061   1.304  13.805  1.5161 -0.8890 -0.6247
 5022TIP3   OH236480   0.444   2.835   6.008 -0.0370 -0.1002 -0.0280
 5022TIP3    H136481   0.446   2.876   6.094 -0.3017  0.2091 -0.1671
 5022TIP3    H236482   0.382   2.888   5.958 -0.1643 -0.4971 -0.2965
 5023TIP3   OH236483   0.104   3.654   2.937 -0.2410 -0.0719 -0.7234
 5023TIP3    H136484   0.065   3.648   3.024 -0.4340 -3.3260 -0.8973
 5023TIP3    H236485   0.030   3.664   2.878 -0.3397 -0.3339 -0.6489
 5024TIP3   OH236486   4.665   3.204   0.448 -0.2857 -0.0891 -0.2828
 5024TIP3    H136487   4.756   3.193   0.475 -1.1285 -0.4294  2.7912
 5024TIP3    H236488   4.651   3.299   0.451 -0.4161 -0.1365  0.6954
 5025TIP3   OH236489   3.153   0.968   1.649 -0.0991  0.3134  0.1584
 5025TIP3    H136490   3.177   0.887   1.694 -1.4575 -0.7490 -0.9506
 5025TIP3    H236491   3.077   1.000   1.696 -1.1818 -0.5030 -0.9851
 5026TIP3   OH236492   1.047   6.004   0.171 -0.5054 -0.1468 -0.1051
 5026TIP3    H136493   1.077   5.982   0.259 -1.6323  0.4238  0.4404
 5026TIP3    H236494   1.039   5.920   0.127  1.8428 -0.3299 -0.2910
 5027TIP3   OH236495   5.515   6.596   4.980  0.1454 -0.0820 -0.2738
 5027TIP3    H136496   5.520   6.684   4.943  4.0737  0.4827  1.0942
 5027TIP3    H236497   5.527   6.538   4.905  0.8150  0.7192 -0.8098
 5028TIP3   OH236498   5.962   4.558  14.853  0.0348  0.1253 -0.0401
 5028TIP3    H136499   6.007   4.539  14.936  0.3058  0.8031 -0.0222
 5028TIP3    H236500   5.989   4.647  14.832 -1.0218  0.4105 -0.2209
 5029TIP3   OH236501   1.342   3.055   2.110  0.2507  0.3014 -0.1262
 5029TIP3    H136502   1.319   3.066   2.018  0.8286  0.4719 -0.2576
 5029TIP3    H236503   1.260   3.034   2.153 -0.1668  1.0244 -0.5524
 5030TIP3   OH236504   4.268   5.260   5.153  0.4757  0.0441  0.0119
 5030TIP3    H136505   4.182   5.284   5.120 -0.1508 -0.3624  1.3126
 5030TIP3    H236506   4.313   5.343   5.168  0.1311  0.2690 -0.1965
 5031TIP3   OH236507   2.666   5.012   1.632  0.4225 -0.7371 -0.7283
 5031TIP3    H136508   2.654   5.105   1.648 -0.5722 -1.1337  0.9539
 5031TIP3    H236509   2.736   4.986   1.692 -1.5662 -1.6998  1.3240
 5032TIP3   OH236510   5.605   6.469   5.750  0.3022  0.0789 -0.5429
 5032TIP3    H136511   5.652   6.509   5.677 -1.3587  0.2071 -1.6088
 5032TIP3    H236512   5.579   6.382   5.717 -1.2132  0.4730 -0.4579
 5033TIP3   OH236513   0.556   5.173  14.607 -0.2788  0.3073  0.1925
 5033TIP3    H136514   0.636   5.144  14.651  0.2420 -0.2517 -1.0833
 5033TIP3    H236515   0.539   5.105  14.542 -1.2465  0.9287 -0.2231
 5034TIP3   OH236516   3.820   0.204  12.731 -0.4934 -0.6161 -0.2363
 5034TIP3    H136517   3.883   0.266  12.768 -2.1572  2.8651 -2.6123
 5034TIP3    H236518   3.873   0.139  12.686  1.4053  0.4069  0.4133
 5035TIP3   OH236519   4.760   1.621  16.566  0.0941 -0.2625 -0.0606
 5035TIP3    H136520   4.689   1.685  16.575 -0.6459 -1.1887  0.9828
 5035TIP3    H236521   4.838   1.668  16.594 -0.3457  0.3593  0.1583
 5036TIP3   OH236522   0.157   2.591   1.299 -0.0944 -0.2327 -0.5679
 5036TIP3    H136523   0.067   2.560   1.290  0.6842 -2.4081 -1.6167
 5036TIP3    H236524   0.196   2.532   1.363  0.5229  0.9493  0.1874
 5037TIP3   OH236525   0.642   1.731   2.900  0.2348  0.3739 -0.3257
 5037TIP3    H136526   0.684   1.697   2.979 -0.4513  0.0827 -0.0798
 5037TIP3    H236527   0.549   1.737   2.923 -0.5362 -2.7504 -2.1031
 5038TIP3   OH236528   0.068   4.752  10.995  0.4211  0.2604  0.0611
 5038TIP3    H136529   0.136   4.745  10.928  1.4243 -1.5817  1.1981
 5038TIP3    H236530   0.015   4.673  10.985 -0.9076  1.1443 -0.0931
 5039TIP3   OH236531   2.552   4.790  16.041  0.0469  0.6414  0.6653
 5039TIP3    H136532   2.577   4.851  16.110 -1.6502  1.2517  0.7777
 5039TIP3    H236533   2.622   4.724  16.041  3.3308  3.7301 -1.0445
 5040TIP3   OH236534   0.397   5.992   2.763  0.3042  0.2604 -0.0771
 5040TIP3    H136535   0.445   6.063   2.807 -0.3715  0.5595  0.1849
 5040TIP3    H236536   0.405   5.918   2.823 -0.7595  0.7149  0.6530
 5041TIP3   OH236537   0.404   5.471   0.377 -0.7755 -0.3870 -0.4095
 5041TIP3    H136538   0.381   5.536   0.310 -1.6662 -0.0849  0.1697
 5041TIP3    H236539   0.351   5.395   0.355 -2.6340  0.3967  1.0747
 5042TIP3   OH236540   4.960   5.828   0.306 -0.7022  0.2300 -0.1751
 5042TIP3    H136541   4.874   5.861   0.329 -1.9896 -0.6190 -3.2830
 5042TIP3    H236542   4.966   5.744   0.351 -0.0345  1.6979  2.6699
 5043TIP3   OH236543   3.938   6.235   4.994 -0.1608  0.3356  0.4254
 5043TIP3    H136544   3.884   6.256   5.070 -1.7616  0.5725 -0.7238
 5043TIP3    H236545   3.880   6.249   4.919  1.4821  0.5008 -0.8726
 5044TIP3   OH236546   3.271   4.787  13.778  0.0757  0.5417  0.3728
 5044TIP3    H136547   3.263   4.731  13.701 -0.3302  1.5171 -0.3104
 5044TIP3    H236548   3.189   4.774  13.826  1.0892 -1.5674  1.7369
 5045TIP3   OH236549   1.780   4.281   3.375 -0.1879 -0.1748 -0.2575
 5045TIP3    H136550   1.875   4.290   3.377  0.1157 -2.4523 -1.0422
 5045TIP3    H236551   1.765   4.188   3.358 -2.5668  0.1277 -0.2044
 5046TIP3   OH236552   4.959   0.966   5.942 -0.0630 -0.1818  0.1756
 5046TIP3    H136553   5.033   0.905   5.942 -0.7759 -1.1144 -1.1713
 5046TIP3    H236554   4.910   0.944   6.022  1.2365  0.6588  1.2430
 5047TIP3   OH236555   4.876   6.431   2.800 -0.0571  0.1800 -0.4550
 5047TIP3    H136556   4.865   6.493   2.727  1.0163  1.4757  0.4476
 5047TIP3    H236557   4.970   6.428   2.815 -0.1843 -0.8600  0.2496
 5048TIP3   OH236558   6.195   2.706  12.292  0.4324  0.2719 -0.2734
 5048TIP3    H136559   6.139   2.661  12.228  0.6799 -0.4485  0.0087
 5048TIP3    H236560   6.280   2.664  12.284  0.6505  0.6430  0.0509
 5049TIP3   OH236561   1.225   3.627  12.536 -0.1506  0.1044  0.3228
 5049TIP3    H136562   1.261   3.672  12.612 -1.3794 -0.4308  1.2599
 5049TIP3    H236563   1.258   3.537  12.543  1.1363  0.4565 -0.7594
 5050TIP3   OH236564   2.945   5.556  13.000 -0.3170 -0.2920  0.2658
 5050TIP3    H136565   2.947   5.464  12.973 -1.0184 -0.4296  0.6407
 5050TIP3    H236566   2.948   5.605  12.919  1.7761 -0.5940  0.1117
 5051TIP3   OH236567   6.248   0.685  17.245 -0.1103 -0.5386 -0.3546
 5051TIP3    H136568   6.262   0.733  17.327 -0.2960 -0.8204 -0.1554
 5051TIP3    H236569   6.153   0.684  17.235 -0.0972 -0.7013 -0.4562
 5052TIP3   OH236570   1.991   6.258  16.231  0.1181 -0.0842  0.0146
 5052TIP3    H136571   2.065   6.315  16.210  2.0343 -2.3811  0.0114
 5052TIP3    H236572   1.974   6.210  16.149  0.2505 -1.2460  0.6408
 5053TIP3   OH236573   6.325   6.689   2.397 -0.0346 -0.5116  0.9138
 5053TIP3    H136574   6.359   6.732   2.475 -0.1894 -0.2394  0.8303
 5053TIP3    H236575   6.233   6.671   2.416 -0.6414  1.4110  0.0250
 5054TIP3   OH236576   3.382   0.186   1.088 -0.0077 -0.4846 -0.2512
 5054TIP3    H136577   3.335   0.256   1.135  0.3582 -0.6137  0.3103
 5054TIP3    H236578   3.470   0.220   1.076 -0.3686 -0.0007 -1.8281
 5055TIP3   OH236579   5.592   5.788  15.133  0.5865  0.5144  0.2229
 5055TIP3    H136580   5.576   5.854  15.065 -0.4716  0.9377  0.8653
 5055TIP3    H236581   5.506   5.749  15.150  1.2149 -1.2498 -0.3269
 5056TIP3   OH236582   4.953   2.744  16.952  0.1511 -0.3607  0.2165
 5056TIP3    H136583   4.868   2.786  16.937  1.4480  1.3653 -3.1155
 5056TIP3    H236584   4.963   2.684  16.878  1.7257 -0.7370  0.7002
 5057TIP3   OH236585   4.655   1.214  13.865 -0.4711 -0.4039  0.5488
 5057TIP3    H136586   4.642   1.305  13.890  1.4180  0.3892 -1.1333
 5057TIP3    H236587   4.632   1.211  13.772  0.3794 -1.4248  0.3476
 5058TIP3   OH236588   3.530   3.064   6.242 -0.4984 -0.4907  0.4533
 5058TIP3    H136589   3.586   3.141   6.236 -0.8705 -0.2322  0.2325
 5058TIP3    H236590   3.585   2.997   6.283 -0.2916  0.0020  0.9822
 5059TIP3   OH236591   4.062   0.140  14.856  0.1613 -0.1927  0.5685
 5059TIP3    H136592   4.017   0.205  14.801  0.3460 -1.3252 -0.9967
 5059TIP3    H236593   4.024   0.152  14.943 -1.1498  0.7542 -0.0917
 5060TIP3   OH236594   3.763   0.452  16.180  0.7030 -0.1070 -0.1238
 5060TIP3    H136595   3.687   0.508  16.168  0.6253 -0.1395  0.2054
 5060TIP3    H236596   3.829   0.508  16.219  1.1851  0.1719 -1.2960
 5061TIP3   OH236597   5.588   0.845  11.368 -0.3244  0.4881 -0.6511
 5061TIP3    H136598   5.574   0.933  11.401 -1.2743 -0.4056  1.4539
 5061TIP3    H236599   5.506   0.799  11.385  1.0343 -1.5502  0.8973
 5062TIP3   OH236600   3.638   4.917   4.408  0.9256  0.0016 -0.0647
 5062TIP3    H136601   3.622   4.965   4.490  0.0691  0.3537 -0.4192
 5062TIP3    H236602   3.653   4.827   4.435 -0.1951 -0.0540  0.4477
 5063TIP3   OH236603   1.209   2.129   2.941  0.3306 -0.4024  0.3940
 5063TIP3    H136604   1.187   2.130   3.034 -0.3665 -0.8670  0.2357
 5063TIP3    H236605   1.162   2.204   2.904  0.9913  0.0745  0.4902
 5064TIP3   OH236606   1.441   0.813  10.816  0.0289 -0.5531  1.0902
 5064TIP3    H136607   1.357   0.858  10.825 -0.2490 -0.4644 -1.1390
 5064TIP3    H236608   1.418   0.725  10.785  0.7375 -0.4694  0.2767
 5065TIP3   OH236609   5.394   4.666   2.198 -0.1159  0.3930  0.6819
 5065TIP3    H136610   5.356   4.753   2.189  2.4270  1.5557  0.5178
 5065TIP3    H236611   5.329   4.617   2.250 -1.6635  2.3058  0.6590
 5066TIP3   OH236612   5.780   5.538   5.526 -0.3495 -0.1212 -0.1290
 5066TIP3    H136613   5.688   5.530   5.553  0.0527 -0.3537  1.2618
 5066TIP3    H236614   5.823   5.581   5.600  0.4346  1.1654 -1.2889
 5067TIP3   OH236615   6.426   5.560  13.516 -0.1850 -0.3691  0.2079
 5067TIP3    H136616   6.339   5.600  13.522  0.0141 -0.0046  0.6883
 5067TIP3    H236617   6.438   5.516  13.600  0.2686 -0.0648  0.3048
 5068TIP3   OH236618   6.241   1.160  10.629  0.4452 -0.1588 -0.4392
 5068TIP3    H136619   6.241   1.239  10.574  0.3062  0.0707 -0.1137
 5068TIP3    H236620   6.203   1.092  10.573 -0.7605  0.3442 -0.2531
 5069TIP3   OH236621   5.225   6.392  12.945  0.1239 -0.4877 -0.4180
 5069TIP3    H136622   5.161   6.396  13.016  0.0035  0.1762 -0.5626
 5069TIP3    H236623   5.282   6.319  12.969  1.5818  1.2294  1.6185
 5070TIP3   OH236624   1.707   3.191  15.627  0.3400 -0.1143  0.2157
 5070TIP3    H136625   1.731   3.122  15.688  0.6800  0.1229  0.3547
 5070TIP3    H236626   1.784   3.202  15.571  0.3432  0.2470  0.2859
 5071TIP3   OH236627   0.092   2.710   2.849  0.0361  0.4944  0.3076
 5071TIP3    H136628   0.170   2.736   2.897  0.7183 -0.2977 -0.3488
 5071TIP3    H236629   0.031   2.680   2.917  0.5950  0.3645  0.7610
 5072TIP3   OH236630   2.516   1.179  15.380 -0.2746  0.4283 -0.1308
 5072TIP3    H136631   2.573   1.237  15.430 -0.8716  1.3473 -0.4869
 5072TIP3    H236632   2.548   1.187  15.290 -1.5924  1.7706 -0.5102
 5073TIP3   OH236633   4.006   3.107   0.772  0.3662  0.0874 -0.2271
 5073TIP3    H136634   4.091   3.068   0.755  0.0422 -0.4957 -0.5246
 5073TIP3    H236635   3.969   3.056   0.843 -0.5895 -0.9872 -1.4494
 5074TIP3   OH236636   1.668   1.060  16.495  0.0131 -0.2876  0.2870
 5074TIP3    H136637   1.579   1.084  16.523  0.5949  0.5287  1.5336
 5074TIP3    H236638   1.702   1.141  16.456  0.6279 -0.2295  0.9358
 5075TIP3   OH236639   1.483   4.065  11.893 -0.1942  0.0837 -0.0389
 5075TIP3    H136640   1.497   4.138  11.953  0.9006 -1.2176  1.3893
 5075TIP3    H236641   1.450   4.105  11.813 -0.1765  2.0615  0.8858
 5076TIP3   OH236642   2.859   1.171  11.975 -0.3661 -0.5708  0.0668
 5076TIP3    H136643   2.891   1.094  12.021  1.0247  0.5941  1.1429
 5076TIP3    H236644   2.823   1.227  12.044  0.3027  0.5234 -0.4644
 5077TIP3   OH236645   3.368   6.174   3.545 -0.1022  0.3912  0.0764
 5077TIP3    H136646   3.334   6.105   3.603 -0.0481  0.2851 -0.0189
 5077TIP3    H236647   3.440   6.133   3.497  0.3236  0.6879  0.4529
 5078TIP3   OH236648   0.852   4.266   3.444  0.2209 -0.1419  0.0895
 5078TIP3    H136649   0.770   4.315   3.440  0.5016  0.3157 -0.0696
 5078TIP3    H236650   0.898   4.301   3.520  0.4738 -0.0787 -0.0905
 5079TIP3   OH236651   1.005   6.059  16.534 -0.0977 -0.2540 -0.3381
 5079TIP3    H136652   0.937   6.042  16.600 -0.7110  0.2281 -0.8317
 5079TIP3    H236653   1.068   5.988  16.546  1.3103  1.3458  2.6775
 5080TIP3   OH236654   1.043   0.780   6.498  0.2903  0.6044  0.4929
 5080TIP3    H136655   0.982   0.741   6.435  0.8370  2.4802 -1.3267
 5080TIP3    H236656   0.995   0.778   6.581 -1.4378  0.1637 -0.4460
 5081TIP3   OH236657   4.139   5.089   1.654 -0.0556  0.3290 -0.6933
 5081TIP3    H136658   4.090   5.142   1.716  0.3493 -1.0373  0.8824
 5081TIP3    H236659   4.199   5.150   1.611 -0.3964  1.3400  0.2301
 5082TIP3   OH236660   5.615   0.449   5.469  0.1334  0.6366 -0.1401
 5082TIP3    H136661   5.664   0.385   5.418  0.2295  0.0417  0.6744
 5082TIP3    H236662   5.546   0.398   5.511  0.0459  1.1147  0.3014
 5083TIP3   OH236663   2.691   3.583   6.479  0.0001  0.4597  0.3238
 5083TIP3    H136664   2.644   3.529   6.543 -1.4561 -0.6995 -1.5844
 5083TIP3    H236665   2.753   3.522   6.438 -1.1948  0.3383 -1.3988
 5084TIP3   OH236666   5.523   0.851   2.393  0.0103 -0.1571  0.4412
 5084TIP3    H136667   5.527   0.903   2.473  0.3935 -1.2064  1.1253
 5084TIP3    H236668   5.612   0.817   2.382 -0.5056 -1.7065  0.7338
 5085TIP3   OH236669   2.213   5.190  12.249 -0.7207  0.6869 -0.0417
 5085TIP3    H136670   2.256   5.110  12.280  0.5512  0.3285 -2.5088
 5085TIP3    H236671   2.127   5.190  12.292 -0.4221 -1.5626  0.6429
 5086TIP3   OH236672   5.845   1.783   1.045 -0.2314 -0.7506 -0.8397
 5086TIP3    H136673   5.820   1.757   1.133  3.1357  0.8498  0.7540
 5086TIP3    H236674   5.855   1.878   1.050  0.2565 -0.6432 -2.8908
 5087TIP3   OH236675   0.440   6.641  14.115  0.3675  0.6768 -0.5698
 5087TIP3    H136676   0.442   6.731  14.081 -0.0030  0.5022 -1.0734
 5087TIP3    H236677   0.381   6.646  14.191 -0.2429  0.7198 -1.0369
 5088TIP3   OH236678   2.541   2.323   0.036 -0.1898  0.1187 -0.2007
 5088TIP3    H136679   2.547   2.373  -0.046  2.7038  0.7039  0.2563
 5088TIP3    H236680   2.449   2.328   0.060 -1.1468  0.0335 -3.3348
 5089TIP3   OH236681   1.161   0.105   4.586  0.0676 -0.2286  0.6689
 5089TIP3    H136682   1.114   0.079   4.507 -0.3750 -1.4920  1.3285
 5089TIP3    H236683   1.253   0.107   4.560 -0.2182  1.1649 -0.3384
 5090TIP3   OH236684   0.219   5.115  16.534  0.5351  0.1824  0.3042
 5090TIP3    H136685   0.205   5.116  16.440 -2.4828  0.6899  0.6555
 5090TIP3    H236686   0.188   5.029  16.562  0.6036  0.3578  0.9335
 5091TIP3   OH236687   6.593   4.036  11.602  0.6908 -0.0165  0.1609
 5091TIP3    H136688   6.506   4.033  11.642  0.9023  0.0892  0.6239
 5091TIP3    H236689   6.612   3.945  11.578 -0.6248  0.2506 -2.2780
 5092TIP3   OH236690   0.792   1.863  11.662 -0.6213 -0.4217  0.4300
 5092TIP3    H136691   0.794   1.810  11.582 -0.3676  2.0422 -1.3215
 5092TIP3    H236692   0.700   1.889  11.671 -0.3603  0.7976 -0.1794
 5093TIP3   OH236693   1.378   0.528   3.285  0.3234 -0.5353  0.4002
 5093TIP3    H136694   1.363   0.560   3.196 -0.4480  0.1578  0.7780
 5093TIP3    H236695   1.346   0.438   3.283  2.6267 -1.4305 -0.6970
 5094TIP3   OH236696   3.192   1.379   0.831  0.3553 -0.3157 -0.6620
 5094TIP3    H136697   3.194   1.283   0.835  1.2831 -0.3491 -1.6240
 5094TIP3    H236698   3.277   1.404   0.796  0.3092  0.9023  0.0372
 5095TIP3   OH236699   2.258   2.759   0.438 -0.8473 -0.2139 -0.2331
 5095TIP3    H136700   2.351   2.775   0.420 -0.4197 -0.6041  1.4468
 5095TIP3    H236701   2.228   2.840   0.477 -2.2896  1.3985 -4.1676
 5096TIP3   OH236702   6.098   0.783   2.083 -0.2523 -0.0396  0.3928
 5096TIP3    H136703   6.051   0.720   2.137 -0.6008 -0.3577 -0.2647
 5096TIP3    H236704   6.033   0.850   2.063 -0.5445 -0.6342 -0.7686
 5097TIP3   OH236705   3.828   3.155  16.861 -0.3906  0.2940  0.4497
 5097TIP3    H136706   3.820   3.195  16.947  1.0081  0.4245  0.5472
 5097TIP3    H236707   3.920   3.168  16.837 -0.4057 -1.0125 -0.4373
 5098TIP3   OH236708   4.661   4.468   0.400 -0.0825 -0.2276  0.0883
 5098TIP3    H136709   4.658   4.410   0.476  0.1518  1.7150  1.6807
 5098TIP3    H236710   4.675   4.410   0.325 -1.3765 -2.3200  1.3852
 5099TIP3   OH236711   6.654   5.513  13.301 -0.9743 -0.1734  0.2103
 5099TIP3    H136712   6.567   5.537  13.334 -0.8947 -0.9257  1.0114
 5099TIP3    H236713   6.666   5.422  13.329  0.4659  0.2150  0.9686
 5100TIP3   OH236714   3.168   2.287   2.812  0.4835 -0.2188  0.9837
 5100TIP3    H136715   3.144   2.268   2.902 -1.1397 -0.2242  0.5995
 5100TIP3    H236716   3.158   2.382   2.804  0.4875 -0.2352  0.7778
 5101TIP3   OH236717   6.706   4.846   3.676 -0.0113 -0.2126  0.0400
 5101TIP3    H136718   6.781   4.794   3.648 -0.2303 -1.0030  0.8816
 5101TIP3    H236719   6.683   4.811   3.762  0.9763  2.4845  1.5036
 5102TIP3   OH236720   2.680   3.951   5.467 -0.0905 -0.6421  0.2868
 5102TIP3    H136721   2.641   4.024   5.420  1.6218 -0.6843 -1.3258
 5102TIP3    H236722   2.610   3.887   5.476 -0.6300 -0.3866 -1.7598
 5103TIP3   OH236723   3.154   1.700  15.215 -0.1004 -0.7606  0.0665
 5103TIP3    H136724   3.076   1.752  15.236 -0.6716 -1.7768  0.5340
 5103TIP3    H236725   3.130   1.610  15.237  2.1601 -0.8053  3.1288
 5104TIP3   OH236726   3.982   2.740  12.846 -0.0137 -0.3873  0.5333
 5104TIP3    H136727   4.073   2.725  12.871  0.3648  0.0351 -0.4904
 5104TIP3    H236728   3.958   2.663  12.795 -0.1922 -0.4483  0.7097
 5105TIP3   OH236729   0.861   1.094  16.172 -0.1898 -0.3911  0.3923
 5105TIP3    H136730   0.920   1.060  16.239  0.6683  1.1938  0.4781
 5105TIP3    H236731   0.778   1.050  16.188  0.5371 -1.4817  1.2580
 5106TIP3   OH236732   2.896   3.162  13.968  0.1067 -0.4359  0.1784
 5106TIP3    H136733   2.816   3.141  14.018 -0.5065  0.5986 -0.3323
 5106TIP3    H236734   2.914   3.254  13.990 -0.1187  0.0104 -1.3929
 5107TIP3   OH236735   5.659   0.361  11.538  0.5269  0.0194 -0.0061
 5107TIP3    H136736   5.748   0.345  11.506  1.2134  1.5837  1.0038
 5107TIP3    H236737   5.670   0.423  11.609 -1.3355 -0.3024  0.6143
 5108TIP3   OH236738   5.338   2.802  15.303 -0.4349  0.0234 -0.0932
 5108TIP3    H136739   5.275   2.741  15.341  2.6907 -3.5040  0.0914
 5108TIP3    H236740   5.359   2.863  15.373 -2.3389  0.2248  0.3460
 5109TIP3   OH236741   3.140   5.057  10.751 -0.4267 -0.5155  0.5178
 5109TIP3    H136742   3.162   5.116  10.678 -2.2201  0.3708  0.6375
 5109TIP3    H236743   3.090   4.987  10.711  0.7577 -1.4109  0.5515
 5110TIP3   OH236744   5.522   3.873  14.724 -0.5619 -0.5876 -0.1344
 5110TIP3    H136745   5.539   3.792  14.772  0.9751 -0.1967  0.0340
 5110TIP3    H236746   5.487   3.933  14.790  0.5069 -0.3983  0.2805
 5111TIP3   OH236747   6.010   2.630  15.349  0.1554  0.0226  0.6256
 5111TIP3    H136748   6.091   2.663  15.310 -0.1879  0.0333 -0.0868
 5111TIP3    H236749   6.029   2.625  15.443  0.6433  1.0060  0.5889
 5112TIP3   OH236750   5.589   0.156   0.052 -0.0822 -0.0051  0.0805
 5112TIP3    H136751   5.594   0.061   0.039  0.3809 -0.0385  0.4687
 5112TIP3    H236752   5.556   0.166   0.141  0.3208  0.1972  0.2086
 5113TIP3   OH236753   4.645   0.923   0.245  0.0828  0.0343 -0.6297
 5113TIP3    H136754   4.650   0.975   0.165 -1.8888  3.3708  1.1459
 5113TIP3    H236755   4.727   0.942   0.291 -0.2493  0.9414 -0.3886
 5114TIP3   OH236756   5.768   4.899   6.350  0.6157 -0.6303 -0.3155
 5114TIP3    H136757   5.778   4.905   6.445 -1.0810 -0.5505 -0.1079
 5114TIP3    H236758   5.740   4.809   6.334 -1.7580  0.0667 -0.4175
 5115TIP3   OH236759   0.125   4.074   5.449  0.5629 -0.2352  0.1431
 5115TIP3    H136760   0.114   4.015   5.523  0.4981 -1.2070 -0.6155
 5115TIP3    H236761   0.048   4.131   5.453  1.4969  0.9873  1.8942
 5116TIP3   OH236762   0.398   0.437   3.915 -0.2888 -0.6857 -0.4575
 5116TIP3    H136763   0.338   0.413   3.986 -0.7258  0.8301 -0.2806
 5116TIP3    H236764   0.483   0.448   3.958 -0.5241  0.0944 -0.1810
 5117TIP3   OH236765   3.219   5.257  16.132  0.2307  0.0393  0.6953
 5117TIP3    H136766   3.168   5.196  16.185  1.5262  0.0601  2.0486
 5117TIP3    H236767   3.310   5.238  16.155  0.7616  1.1172 -0.3827
 5118TIP3   OH236768   3.517   1.362   3.584 -0.4753  0.1592 -0.5189
 5118TIP3    H136769   3.560   1.446   3.601 -1.4696  0.4419  0.6947
 5118TIP3    H236770   3.442   1.360   3.643 -1.1622 -1.0740 -1.3771
 5119TIP3   OH236771   5.951   3.604   4.790  0.5998 -0.4345 -0.0704
 5119TIP3    H136772   5.934   3.522   4.743  0.8137 -1.4736  1.5685
 5119TIP3    H236773   5.873   3.616   4.845  0.0724  1.0863 -1.1009
 5120TIP3   OH236774   5.484   3.254  14.136 -0.4868 -0.0789 -0.0403
 5120TIP3    H136775   5.415   3.274  14.200 -0.7522 -0.0339 -0.3387
 5120TIP3    H236776   5.516   3.167  14.161 -3.3199 -1.9218 -2.1709
 5121TIP3   OH236777   2.816   2.230  13.036  0.2787 -0.6023  0.3629
 5121TIP3    H136778   2.889   2.243  13.097 -0.6295 -0.8683  1.5529
 5121TIP3    H236779   2.741   2.270  13.080 -0.2540 -0.0627 -0.9751
 5122TIP3   OH236780   1.327   3.694  16.641  0.1423  0.1238  0.3375
 5122TIP3    H136781   1.363   3.778  16.670  1.4926 -0.2174 -0.3144
 5122TIP3    H236782   1.357   3.631  16.706  2.4868 -0.5025 -1.2337
 5123TIP3   OH236783   0.361   4.199   3.412  0.5172 -1.0802 -0.2972
 5123TIP3    H136784   0.330   4.205   3.503 -0.5934 -2.5099 -0.5543
 5123TIP3    H236785   0.399   4.112   3.405  0.1244 -1.1795 -1.3478
 5124TIP3   OH236786   3.553   1.548  14.493 -0.5464 -0.5939  0.7151
 5124TIP3    H136787   3.476   1.603  14.507 -2.6017 -3.0791 -0.1551
 5124TIP3    H236788   3.586   1.530  14.581 -0.4905  1.0698  1.0600
 5125TIP3   OH236789   0.851   1.807   1.550 -0.0123 -0.3088 -0.2371
 5125TIP3    H136790   0.899   1.886   1.527  0.8567 -0.1963  1.7364
 5125TIP3    H236791   0.842   1.759   1.468  2.0628  0.4437 -0.9597
 5126TIP3   OH236792   2.525   4.692  10.561  0.8186 -0.4209  0.1623
 5126TIP3    H136793   2.481   4.658  10.483 -0.6443 -0.2168  0.8593
 5126TIP3    H236794   2.509   4.626  10.628  2.0671 -0.5974  0.3074
 5127TIP3   OH236795   6.770   6.633  11.915 -0.0471 -0.4856 -0.2821
 5127TIP3    H136796   6.847   6.583  11.943  0.9961  0.7501 -0.8622
 5127TIP3    H236797   6.780   6.642  11.820 -0.5278  0.2943 -0.2678
 5128TIP3   OH236798   4.345   2.322  15.562 -0.2449 -0.1359  0.2300
 5128TIP3    H136799   4.291   2.400  15.572 -0.6535 -0.4389  0.4234
 5128TIP3    H236800   4.282   2.250  15.556  0.0691 -0.3084 -1.4231
 5129TIP3   OH236801   0.249   4.832   0.624 -0.0545 -0.1970 -0.6972
 5129TIP3    H136802   0.287   4.886   0.693  1.9265 -1.4476 -0.7132
 5129TIP3    H236803   0.269   4.879   0.543  0.0591 -0.0578 -0.5887
 5130TIP3   OH236804   6.447   3.428  15.279  0.2657 -0.0346 -0.0882
 5130TIP3    H136805   6.379   3.478  15.324  0.4253 -0.6644  0.9038
 5130TIP3    H236806   6.423   3.336  15.293  1.1213 -0.2619 -0.0151
 5131TIP3   OH236807   0.504   5.142  11.781 -0.3484  0.0273 -0.2036
 5131TIP3    H136808   0.464   5.088  11.712 -0.0974  0.6408 -0.8348
 5131TIP3    H236809   0.574   5.189  11.737  0.5983 -0.4757  0.7407
 5132TIP3   OH236810   5.498   5.722   1.286  0.7930 -0.2887  0.8876
 5132TIP3    H136811   5.522   5.637   1.321 -0.7632 -0.0912  2.5654
 5132TIP3    H236812   5.404   5.717   1.271  0.9413  0.6119 -0.6139
 5133TIP3   OH236813   4.630   5.063   1.949 -0.0293 -0.3466 -0.0431
 5133TIP3    H136814   4.678   5.024   1.876 -0.7918 -1.5770  0.0829
 5133TIP3    H236815   4.544   5.084   1.914  0.8719  2.9640 -0.5946
 5134TIP3   OH236816   6.020   0.680  15.358 -0.3609  0.4012 -0.4624
 5134TIP3    H136817   5.984   0.769  15.359 -0.8195  0.2386 -1.7210
 5134TIP3    H236818   5.996   0.645  15.272 -0.4058 -1.0354  0.1099
 5135TIP3   OH236819   5.645   5.299  15.427  0.2758  0.5516 -0.2436
 5135TIP3    H136820   5.710   5.370  15.425  0.2904  0.5680  0.6683
 5135TIP3    H236821   5.625   5.286  15.520 -1.2966  0.7741 -0.5237
 5136TIP3   OH236822   0.508   0.713  10.736  0.1480  0.0877  0.4597
 5136TIP3    H136823   0.468   0.692  10.651  1.5330 -0.4849 -0.0700
 5136TIP3    H236824   0.488   0.636  10.791 -0.4612  0.3145  0.5696
 5137TIP3   OH236825   2.221   1.117  11.711  0.0737 -0.1616  0.1438
 5137TIP3    H136826   2.310   1.115  11.676  0.3191  0.0830  0.7463
 5137TIP3    H236827   2.229   1.074  11.796 -0.5904 -1.1027 -0.2484
 5138TIP3   OH236828   6.554   5.759   0.329  0.8514 -0.3475  0.1519
 5138TIP3    H136829   6.604   5.817   0.270  0.9412 -0.4060  0.1701
 5138TIP3    H236830   6.559   5.803   0.414 -0.7582  0.6562 -0.2292
 5139TIP3   OH236831   4.800   5.595   1.070  0.4182 -0.4129  0.0454
 5139TIP3    H136832   4.861   5.634   1.008 -0.6132  1.0466 -0.0952
 5139TIP3    H236833   4.775   5.667   1.128 -0.6227 -1.1432  0.5350
 5140TIP3   OH236834   5.909   3.307  13.863 -0.3143  0.5782 -0.1031
 5140TIP3    H136835   5.814   3.314  13.869 -0.1450  2.6620  0.8327
 5140TIP3    H236836   5.934   3.253  13.938 -0.7388  0.1433 -0.2706
 5141TIP3   OH236837   3.166   2.773  12.502  0.1419  1.0045 -0.3198
 5141TIP3    H136838   3.243   2.809  12.458  0.4387 -0.2041 -0.8496
 5141TIP3    H236839   3.187   2.680  12.512 -2.0515  0.1982 -2.2966
 5142TIP3   OH236840   0.287   4.507   1.835 -0.2421 -0.5693 -0.4684
 5142TIP3    H136841   0.369   4.471   1.869  0.5079  1.1888 -0.3189
 5142TIP3    H236842   0.279   4.470   1.747  0.3016 -1.3715 -0.1922
 5143TIP3   OH236843   5.420   4.786   3.696 -0.1696  0.3742 -0.3077
 5143TIP3    H136844   5.422   4.832   3.779 -0.3233  1.8444 -1.0896
 5143TIP3    H236845   5.477   4.838   3.638  0.0898 -0.7192 -1.0746
 5144TIP3   OH236846   1.731   1.967  14.992  0.4289  0.5257 -0.2458
 5144TIP3    H136847   1.752   2.033  14.926 -0.0095  0.7702 -0.1481
 5144TIP3    H236848   1.663   1.913  14.952 -0.2215  1.0005  0.1915
 5145TIP3   OH236849   4.573   3.033  16.109 -0.4393  0.2054 -0.2051
 5145TIP3    H136850   4.496   2.977  16.110  0.8489 -1.7026  1.2050
 5145TIP3    H236851   4.642   2.979  16.070  0.4223  1.5112 -0.5621
 5146TIP3   OH236852   0.791   2.230  11.850  0.0144 -0.0981 -0.1282
 5146TIP3    H136853   0.821   2.142  11.871  0.0827 -0.5343 -1.9297
 5146TIP3    H236854   0.860   2.267  11.795 -0.3944  0.7733 -0.0749
 5147TIP3   OH236855   6.041   1.385   3.951  0.6988  0.4862  0.0445
 5147TIP3    H136856   6.008   1.408   4.038 -2.5329 -0.8780 -0.6631
 5147TIP3    H236857   6.098   1.309   3.967  0.4044  0.4502  1.0090
 5148TIP3   OH236858   1.590   5.550   5.580 -0.1846 -0.6540  0.6754
 5148TIP3    H136859   1.632   5.463   5.584  0.2377 -0.4768  0.1809
 5148TIP3    H236860   1.651   5.608   5.625  1.0231 -0.0488 -1.5828
 5149TIP3   OH236861   3.226   4.609   3.656 -0.1200 -0.0876  0.5052
 5149TIP3    H136862   3.250   4.545   3.724 -0.3207 -0.2701  0.4055
 5149TIP3    H236863   3.305   4.621   3.605  0.2989  0.7434  1.3298
 5150TIP3   OH236864   3.639   1.915   1.121 -0.5781 -0.2314  0.4087
 5150TIP3    H136865   3.552   1.875   1.113 -0.7677  0.5148 -1.9580
 5150TIP3    H236866   3.685   1.888   1.041  0.6806  0.9897  0.6830
 5151TIP3   OH236867   0.802   5.745   4.953 -0.4783  0.5131 -0.0396
 5151TIP3    H136868   0.797   5.750   5.049 -1.0385  0.8879 -0.0885
 5151TIP3    H236869   0.714   5.767   4.923 -0.9677 -1.8101 -0.5591
 5152TIP3   OH236870   4.394   0.445   2.625 -0.0706  0.0098 -0.0223
 5152TIP3    H136871   4.471   0.412   2.670 -1.0184  0.0439  1.6981
 5152TIP3    H236872   4.400   0.408   2.537  1.9955  0.1947 -0.0113
 5153TIP3   OH236873   2.352   0.066  14.932  0.8912 -0.0141 -0.0395
 5153TIP3    H136874   2.408   0.059  15.010  0.8613 -0.6580 -0.0655
 5153TIP3    H236875   2.364  -0.018  14.887  1.1361  0.4678 -0.8905
 5154TIP3   OH236876   1.953   0.269   0.957  0.6228 -0.2864 -0.2677
 5154TIP3    H136877   2.029   0.298   1.008  0.1795 -0.1300  0.3034
 5154TIP3    H236878   1.880   0.322   0.990  0.5360  0.6381 -1.8399
 5155TIP3   OH236879   5.521   1.075   2.087  0.4337  0.3541 -0.0486
 5155TIP3    H136880   5.592   1.069   2.152  0.6293  0.6701 -0.2285
 5155TIP3    H236881   5.486   0.986   2.081  0.3732  0.3398  0.5365
 5156TIP3   OH236882   4.245   3.765  14.521 -0.1472 -0.3407 -0.1834
 5156TIP3    H136883   4.163   3.814  14.524 -0.2516 -0.5662  2.0128
 5156TIP3    H236884   4.223   3.678  14.553  0.9650 -0.3503  0.6211
 5157TIP3   OH236885   1.118   1.233   0.337 -0.1018 -0.4436 -0.1951
 5157TIP3    H136886   1.023   1.237   0.324 -0.3006 -1.0577  0.8955
 5157TIP3    H236887   1.129   1.167   0.406  1.3036 -2.6045 -2.3129
 5158TIP3   OH236888   2.000   3.417   5.734 -0.1595 -0.1434  0.1420
 5158TIP3    H136889   1.919   3.449   5.773 -0.9068 -1.2958 -0.3929
 5158TIP3    H236890   2.031   3.349   5.794  2.0379  2.2211  1.8832
 5159TIP3   OH236891   4.079   3.719   0.445 -0.1020 -0.3725  0.1358
 5159TIP3    H136892   4.002   3.676   0.407 -1.0919  1.7469 -0.4024
 5159TIP3    H236893   4.151   3.691   0.389 -1.0253  0.1174 -1.3925
 5160TIP3   OH236894   2.843   6.627   0.463  0.4365  0.1190  0.0566
 5160TIP3    H136895   2.919   6.569   0.466 -0.2653 -0.7960  0.6944
 5160TIP3    H236896   2.791   6.602   0.539  0.6472  2.3551  1.0166
 5161TIP3   OH236897   1.667   5.309  16.067  0.0297  0.7422 -0.2058
 5161TIP3    H136898   1.626   5.326  16.152 -1.0372 -0.4278 -0.4508
 5161TIP3    H236899   1.702   5.394  16.039 -0.5226  1.3593  0.9185
 5162TIP3   OH236900   6.449   3.857  13.169  0.0947  0.1145 -0.0340
 5162TIP3    H136901   6.532   3.826  13.205  0.2221  0.7145  0.2055
 5162TIP3    H236902   6.426   3.932  13.223 -1.2976 -0.8436  0.7571
 5163TIP3   OH236903   2.892   4.810  10.867 -0.2043  0.3215  0.7135
 5163TIP3    H136904   2.827   4.827  10.798  0.7643  0.1439 -0.2781
 5163TIP3    H236905   2.866   4.726  10.903 -1.6183  1.1114  1.6465
 5164TIP3   OH236906   6.232   0.148   1.509  0.0503  0.1007  0.3224
 5164TIP3    H136907   6.257   0.123   1.420 -0.1423  1.3832 -0.1183
 5164TIP3    H236908   6.247   0.069   1.561  2.2418 -0.0701 -0.4390
 5165TIP3   OH236909   4.602   5.659   5.309 -0.1622  0.6805 -0.2983
 5165TIP3    H136910   4.600   5.665   5.405 -1.7025  0.9156 -0.3309
 5165TIP3    H236911   4.613   5.566   5.291 -0.3305  0.5787  0.1024
 5166TIP3   OH236912   2.328   3.101  14.519 -0.0009 -0.2112  0.4112
 5166TIP3    H136913   2.391   3.172  14.527  0.7874 -0.9411  0.7713
 5166TIP3    H236914   2.255   3.127  14.575  0.8087 -0.2329  1.5215
 5167TIP3   OH236915   4.305   6.313  16.578  0.3981 -0.3940 -0.3318
 5167TIP3    H136916   4.359   6.330  16.501 -0.1952  0.2655 -0.6156
 5167TIP3    H236917   4.366   6.315  16.652  0.7184  0.7512 -0.6096
 5168TIP3   OH236918   5.116   0.743  12.438 -0.2154  0.5246 -0.2912
 5168TIP3    H136919   5.111   0.817  12.378  1.3076 -0.5728 -1.8701
 5168TIP3    H236920   5.206   0.744  12.470 -0.3312 -0.3366  0.0841
 5169TIP3   OH236921   5.744   0.293  10.776 -0.3814 -0.6123 -0.6887
 5169TIP3    H136922   5.811   0.256  10.720 -0.3225 -1.3153 -0.1736
 5169TIP3    H236923   5.701   0.217  10.815 -1.1092 -0.1592 -0.5886
 5170TIP3   OH236924   0.601   2.019   1.399  0.5478 -0.1510 -0.5741
 5170TIP3    H136925   0.584   1.931   1.365  1.2983  0.1709 -1.8580
 5170TIP3    H236926   0.522   2.041   1.448  0.2644 -1.4521 -0.4025
 5171TIP3   OH236927   1.474   5.157   3.143  0.0235  0.5068 -0.1264
 5171TIP3    H136928   1.543   5.223   3.153 -0.0720  1.0347 -2.4491
 5171TIP3    H236929   1.467   5.143   3.049 -0.8668 -1.9052  0.2241
 5172TIP3   OH236930   5.015   0.395  14.842 -0.5068 -0.3447 -0.1801
 5172TIP3    H136931   4.930   0.435  14.825 -0.0850  0.0233 -1.5502
 5172TIP3    H236932   5.011   0.310  14.798  0.0638 -0.0205 -0.8963
 5173TIP3   OH236933   5.289   3.049   3.446  0.3430  0.2879  0.7285
 5173TIP3    H136934   5.323   3.078   3.531  2.2175  0.6431 -0.0866
 5173TIP3    H236935   5.307   3.122   3.387  0.8190 -0.6700 -0.3608
 5174TIP3   OH236936   4.203   5.081  11.167  0.0962 -0.0316 -0.4917
 5174TIP3    H136937   4.178   5.132  11.245 -1.4543  1.5523 -1.9429
 5174TIP3    H236938   4.133   5.016  11.157  0.2182 -0.1379 -0.6598
 5175TIP3   OH236939   3.852   4.179  15.127  0.3403  0.4588  0.1523
 5175TIP3    H136940   3.884   4.268  15.145  1.0539  0.4693 -1.0465
 5175TIP3    H236941   3.900   4.152  15.049  0.4893 -1.1809  0.7748
 5176TIP3   OH236942   3.270   5.578  11.560 -0.2893  0.4618 -0.3906
 5176TIP3    H136943   3.196   5.638  11.546 -1.6948 -1.6442 -2.7729
 5176TIP3    H236944   3.340   5.613  11.505 -0.2083  1.2672  0.2021
 5177TIP3   OH236945   4.303   2.855  15.645 -0.0095  0.3672  0.0883
 5177TIP3    H136946   4.321   2.948  15.639 -1.7995  0.7383 -0.3126
 5177TIP3    H236947   4.387   2.812  15.627  0.6623  1.8836 -0.5260
 5178TIP3   OH236948   3.926   3.529  12.766 -0.1277 -0.4127  0.0454
 5178TIP3    H136949   3.877   3.486  12.836  1.9413 -0.2698  1.6749
 5178TIP3    H236950   3.865   3.532  12.692 -1.8819 -1.9233  1.3500
 5179TIP3   OH236951   6.302   3.184   1.410  0.1467 -0.9056  0.0217
 5179TIP3    H136952   6.276   3.266   1.453  1.0176  0.4352 -1.8767
 5179TIP3    H236953   6.220   3.148   1.377 -0.0061  0.4352 -1.1387
 5180TIP3   OH236954   3.412   3.535   0.944 -0.5662 -0.2194  0.3239
 5180TIP3    H136955   3.478   3.475   0.910  0.1334  0.0737  1.1402
 5180TIP3    H236956   3.461   3.610   0.975 -1.1349 -0.6234  2.3009
 5181TIP3   OH236957   4.186   4.500   5.638  0.2052 -0.0679  0.1271
 5181TIP3    H136958   4.106   4.451   5.618 -0.2859  1.1160 -0.9316
 5181TIP3    H236959   4.183   4.512   5.733 -0.3824 -0.8611  0.2206
 5182TIP3   OH236960   4.762   5.384   1.426 -0.0300  0.3016  0.0308
 5182TIP3    H136961   4.712   5.385   1.344 -0.0559  0.8702  0.0503
 5182TIP3    H236962   4.830   5.318   1.412 -0.1990  0.2028 -0.3450
 5183TIP3   OH236963   6.512   3.410   5.423  0.3061 -0.3143 -0.3471
 5183TIP3    H136964   6.508   3.353   5.501 -0.8283  1.5110  1.0170
 5183TIP3    H236965   6.520   3.349   5.350  0.2792 -2.1790  1.1115
 5184TIP3   OH236966   6.164   3.009  10.936  0.0156  0.3836 -1.0364
 5184TIP3    H136967   6.244   2.974  10.977  0.1349  1.5723 -0.1892
 5184TIP3    H236968   6.120   2.933  10.899  0.9560 -0.4528 -0.4727
 5185TIP3   OH236969   0.446   3.814   3.838  0.4532 -0.1096 -0.4875
 5185TIP3    H136970   0.475   3.759   3.911 -4.0404  0.0318  1.6989
 5185TIP3    H236971   0.459   3.904   3.869  2.7109  0.1207 -1.8591
 5186TIP3   OH236972   3.462   3.169   1.157 -0.4212  0.5565  0.0637
 5186TIP3    H136973   3.449   3.264   1.157  0.1908  0.6958  2.3544
 5186TIP3    H236974   3.373   3.133   1.158 -0.7945  1.2559  3.0060
 5187TIP3   OH236975   2.746   4.305  13.064  0.2662  0.5190 -0.1400
 5187TIP3    H136976   2.833   4.342  13.045  0.0013  1.0486 -0.3227
 5187TIP3    H236977   2.741   4.229  13.007  0.2627  0.9904 -0.7785
 5188TIP3   OH236978   5.207   1.439  14.861 -0.3793  0.1154 -0.1732
 5188TIP3    H136979   5.123   1.470  14.896  0.0283  3.9313 -2.0626
 5188TIP3    H236980   5.207   1.468  14.770  2.5622 -0.7893 -0.5656
 5189TIP3   OH236981   1.533   5.539  16.495 -0.0242  0.1177 -0.0413
 5189TIP3    H136982   1.546   5.458  16.447 -0.5825 -1.0404  1.6749
 5189TIP3    H236983   1.621   5.569  16.517  0.1989  0.2326 -1.0269
 5190TIP3   OH236984   0.388   0.581  16.755 -0.1138  0.3185 -0.1814
 5190TIP3    H136985   0.349   0.541  16.833  0.5317 -1.3769 -0.6989
 5190TIP3    H236986   0.314   0.624  16.711 -1.5347 -2.9025 -1.2113
 5191TIP3   OH236987   5.051   2.360  14.348 -0.5248  0.1838  0.6307
 5191TIP3    H136988   4.960   2.388  14.356  0.0639  1.9875  1.4876
 5191TIP3    H236989   5.084   2.359  14.438  0.7112  1.0385  0.2190
 5192TIP3   OH236990   1.121   6.707   3.603 -0.0277  0.1667 -0.3208
 5192TIP3    H136991   1.177   6.750   3.539  0.5759 -1.2351 -0.7825
 5192TIP3    H236992   1.183   6.667   3.665 -0.5817  0.6542  0.5596
 5193TIP3   OH236993   2.674   4.709  11.379  0.6485 -0.1603  0.3253
 5193TIP3    H136994   2.694   4.760  11.300  2.4834 -0.0333  0.8159
 5193TIP3    H236995   2.687   4.618  11.352 -2.4935 -0.4841 -0.5132
 5194TIP3   OH236996   1.609   2.086  16.188  0.2561 -0.5624 -0.1965
 5194TIP3    H136997   1.591   1.993  16.172  0.8652 -0.8015  0.4810
 5194TIP3    H236998   1.523   2.128  16.178  0.0310 -1.1428 -0.8343
 5195TIP3   OH236999   4.557   0.068   3.489  0.5324  0.1606  0.0443
 5195TIP3    H137000   4.600   0.149   3.514  0.4975  1.1085 -2.6298
 5195TIP3    H237001   4.466   0.093   3.472  0.9304  0.0444 -2.6340
 5196TIP3   OH237002   0.907   5.350  10.550  0.2014 -0.1548  0.3905
 5196TIP3    H137003   0.878   5.393  10.630 -0.0378  0.4599 -0.0134
 5196TIP3    H237004   0.963   5.415  10.507  1.5714 -1.0391  0.7844
 5197TIP3   OH237005   0.048   3.371  13.901 -0.2044 -0.0507  0.0989
 5197TIP3    H137006  -0.043   3.345  13.890  0.5384 -3.1092  0.0782
 5197TIP3    H237007   0.085   3.366  13.812 -0.1180  1.7762  0.0066
 5198TIP3   OH237008   0.662   6.257  16.518 -0.2677 -0.0432  0.2149
 5198TIP3    H137009   0.750   6.281  16.490  0.0067  2.3362  2.6555
 5198TIP3    H237010   0.676   6.195  16.590 -0.6787 -0.6811 -0.2402
 5199TIP3   OH237011   5.730   4.161   5.263  0.0190  0.2270  0.2772
 5199TIP3    H137012   5.639   4.131   5.254 -0.0954  0.9932 -1.5907
 5199TIP3    H237013   5.726   4.255   5.247  0.8745  0.7015  2.4653
 5200TIP3   OH237014   1.484   1.253   0.593  0.0050  0.0793  0.1958
 5200TIP3    H137015   1.392   1.251   0.567 -0.1218 -1.1529  0.6613
 5200TIP3    H237016   1.522   1.173   0.556  1.0064  0.7872 -0.3581
 5201TIP3   OH237017   0.973   3.391  13.719  0.4679  0.1205  0.3846
 5201TIP3    H137018   1.061   3.395  13.757  0.0934 -0.8583  1.4031
 5201TIP3    H237019   0.927   3.465  13.759  0.3578 -0.3334  1.1112
 5202TIP3   OH237020   3.057   4.584   5.334  0.0816 -0.3875 -0.3517
 5202TIP3    H137021   3.113   4.508   5.353  0.7771  0.0971 -0.4296
 5202TIP3    H237022   3.051   4.631   5.417  1.8331  0.8839 -0.8966
 5203TIP3   OH237023   1.835   1.910   3.845  0.1102 -0.1642  0.7267
 5203TIP3    H137024   1.760   1.861   3.880  0.2325  0.4255  1.8746
 5203TIP3    H237025   1.830   1.897   3.750 -0.8225 -1.0071  0.8694
 5204TIP3   OH237026   5.864   3.481  12.388  0.0740 -0.0081 -0.3518
 5204TIP3    H137027   5.863   3.388  12.407 -1.6676 -0.1062 -0.7593
 5204TIP3    H237028   5.794   3.494  12.324 -0.3519  1.7110  0.3878
 5205TIP3   OH237029   5.363   2.213   0.835 -0.1928  0.2304  0.2434
 5205TIP3    H137030   5.420   2.247   0.767 -1.7252 -0.2387 -1.3473
 5205TIP3    H237031   5.314   2.289   0.866 -1.3974  0.0623 -1.1222
 5206TIP3   OH237032   0.934   5.158  11.783  0.4376  0.0934 -0.0172
 5206TIP3    H137033   0.997   5.160  11.854 -0.7679  0.0345  1.0869
 5206TIP3    H237034   0.869   5.093  11.809 -0.4857  0.6835 -0.7518
 5207TIP3   OH237035   2.197   6.027  12.739 -0.6808  0.6972  0.0732
 5207TIP3    H137036   2.229   6.072  12.817 -2.1612  2.6723 -0.3749
 5207TIP3    H237037   2.169   6.097  12.681 -1.3525 -0.7876 -1.4883
 5208TIP3   OH237038   0.869   6.775  12.179 -0.2581 -0.1577 -0.4362
 5208TIP3    H137039   0.790   6.825  12.157 -0.4569 -0.1532  0.2711
 5208TIP3    H237040   0.910   6.824  12.250  0.9322  0.3838 -1.4444
 5209TIP3   OH237041   5.713   6.281  13.505 -0.7708  0.0750 -0.0588
 5209TIP3    H137042   5.732   6.320  13.419 -1.6711  0.5110 -0.0748
 5209TIP3    H237043   5.630   6.234  13.492 -0.5580 -0.4336  0.4025
 5210TIP3   OH237044   4.536   6.042  15.173  0.6160  0.6896  0.0316
 5210TIP3    H137045   4.578   6.123  15.203 -0.6558  0.8730  1.4732
 5210TIP3    H237046   4.501   6.003  15.253 -1.5799  0.3521 -1.0128
 5211TIP3   OH237047   0.956   5.983  10.918  0.4765 -0.0518  0.1386
 5211TIP3    H137048   0.879   6.001  10.971 -0.2315  0.2648 -0.9448
 5211TIP3    H237049   0.932   5.905  10.867  1.0777 -0.2701  0.1845
 5212TIP3   OH237050   6.314   2.834  13.703  0.2456  0.5457  0.2474
 5212TIP3    H137051   6.339   2.783  13.626  0.3797 -0.0990  0.7108
 5212TIP3    H237052   6.284   2.769  13.766  1.4975  0.9024  1.2716
 5213TIP3   OH237053   6.530   0.781  10.427  0.1113 -0.0863 -0.4763
 5213TIP3    H137054   6.488   0.712  10.377 -0.3335 -0.0110 -0.2109
 5213TIP3    H237055   6.486   0.779  10.512  0.6156  0.0211 -0.2088
 5214TIP3   OH237056   5.724   3.403  15.217 -0.1960  0.3602  0.3471
 5214TIP3    H137057   5.633   3.392  15.189 -0.0412  0.1100 -0.0634
 5214TIP3    H237058   5.767   3.447  15.143  0.0412  0.3904  0.5001
 5215TIP3   OH237059   6.640   5.730   2.100  0.6430  0.5874 -0.1154
 5215TIP3    H137060   6.665   5.776   2.180 -2.7330  0.6437  1.0935
 5215TIP3    H237061   6.683   5.644   2.107  0.0079  0.3865  2.0977
 5216TIP3   OH237062   4.370   5.203  16.633 -0.2393 -0.1513  0.4489
 5216TIP3    H137063   4.382   5.297  16.649  0.9923 -0.2932  0.4090
 5216TIP3    H237064   4.336   5.169  16.715 -0.1835  0.2417  0.6358
 5217TIP3   OH237065   5.762   3.079   2.282  0.4398 -0.1032  0.4712
 5217TIP3    H137066   5.674   3.104   2.310  0.6876  0.0348  1.1466
 5217TIP3    H237067   5.815   3.157   2.300  0.6075 -0.0027 -0.4086
 5218TIP3   OH237068   1.657   6.635   1.075  0.1189  0.2496 -0.6955
 5218TIP3    H137069   1.730   6.619   1.134  0.0644 -1.1500 -0.9627
 5218TIP3    H237070   1.679   6.717   1.031 -0.0093  1.5246  1.4761
 5219TIP3   OH237071   4.700   3.858  16.161 -0.6059  0.0150  0.1353
 5219TIP3    H137072   4.694   3.834  16.069 -2.4546 -0.3119  0.2885
 5219TIP3    H237073   4.674   3.779  16.208  1.6046 -0.2435  1.0326
 5220TIP3   OH237074   3.269   0.930  14.215 -0.5884  0.2223 -0.2967
 5220TIP3    H137075   3.314   0.855  14.178  0.4428  0.2081  0.9146
 5220TIP3    H237076   3.240   0.901  14.301  1.7533  1.7978  1.1389
 5221TIP3   OH237077   1.224   4.850  15.532 -0.1014  0.2396  0.6727
 5221TIP3    H137078   1.194   4.898  15.609 -1.6371 -0.2790  0.4343
 5221TIP3    H237079   1.164   4.876  15.463  1.0338  0.4157 -0.2799
 5222TIP3   OH237080   6.383   5.990   0.083  0.1711 -0.1635 -0.2827
 5222TIP3    H137081   6.388   5.998  -0.013  0.3265  0.9546 -0.1937
 5222TIP3    H237082   6.313   6.050   0.108 -0.9056 -1.5615  0.1896
 5223TIP3   OH237083   0.585   5.381   1.437  0.2587 -0.2304  0.3621
 5223TIP3    H137084   0.510   5.393   1.496  0.8726  0.3132  1.0476
 5223TIP3    H237085   0.647   5.330   1.488  0.6435 -0.0780  0.0456
 5224TIP3   OH237086   5.450   2.813   2.246  0.7570  0.0075 -0.0493
 5224TIP3    H137087   5.391   2.855   2.309  0.3669  0.7320 -0.8775
 5224TIP3    H237088   5.535   2.812   2.290  0.6036  0.9648  0.2994
 5225TIP3   OH237089   6.312   0.568  11.982 -0.1099  0.0299 -0.5128
 5225TIP3    H137090   6.365   0.506  11.932  1.2828  2.0991 -1.7888
 5225TIP3    H237091   6.361   0.584  12.062 -1.1665 -1.4811  0.4995
 5226TIP3   OH237092   6.141   0.224   3.225 -0.0642  0.5506 -0.3938
 5226TIP3    H137093   6.135   0.221   3.129 -0.9520 -0.1729 -0.3229
 5226TIP3    H237094   6.158   0.316   3.245  0.0422  0.7211 -1.2433
 5227TIP3   OH237095   5.228   0.376   0.207  0.1433  0.2342 -0.1726
 5227TIP3    H137096   5.280   0.309   0.251 -2.2462 -2.4379 -1.0999
 5227TIP3    H237097   5.208   0.338   0.121 -1.9174  1.8355 -0.4846
 5228TIP3   OH237098   0.048   5.510   3.599 -0.3314 -0.1670 -0.4858
 5228TIP3    H137099   0.121   5.522   3.538 -0.9936  1.4231 -0.9975
 5228TIP3    H237100   0.044   5.591   3.648 -0.5361 -0.9982  0.9157
 5229TIP3   OH237101   1.026   3.177  16.713 -0.2091  0.5013 -0.3102
 5229TIP3    H137102   0.953   3.154  16.656  0.1766 -0.5146 -0.4084
 5229TIP3    H237103   0.985   3.221  16.788 -1.2377 -2.2494  0.8717
 5230TIP3   OH237104   6.538   2.156   0.903  0.1072  0.6685  0.3673
 5230TIP3    H137105   6.483   2.219   0.858 -0.2300  1.3807  1.7364
 5230TIP3    H237106   6.504   2.153   0.992  0.8414 -0.5990  0.6305
 5231TIP3   OH237107   0.568   5.078   2.432  0.0609  0.6001  0.4496
 5231TIP3    H137108   0.550   5.023   2.355  1.8014 -0.8504  1.0277
 5231TIP3    H237109   0.505   5.048   2.498 -1.0934  1.4984 -0.2111
 5232TIP3   OH237110   5.840   1.340  13.954  0.3228 -0.4374 -0.4735
 5232TIP3    H137111   5.830   1.396  13.877  2.4917 -0.3766 -0.7638
 5232TIP3    H237112   5.872   1.257  13.919  1.7652 -0.2658  0.3768
 5233TIP3   OH237113   4.606   3.349   0.189  0.3603  0.2913  0.2803
 5233TIP3    H137114   4.535   3.289   0.212  0.5544  0.0457  0.2385
 5233TIP3    H237115   4.684   3.294   0.186  0.4919  0.4925 -0.0404
 5234TIP3   OH237116   5.986   5.895   2.464 -0.0090 -0.1791 -0.2775
 5234TIP3    H137117   5.914   5.956   2.474 -1.0917 -1.2842 -1.0773
 5234TIP3    H237118   6.052   5.944   2.414 -1.0379  0.2179 -1.3046
 5235TIP3   OH237119   1.392   2.870  12.399 -0.3369 -0.2404 -0.1709
 5235TIP3    H137120   1.379   2.801  12.333  0.7145 -1.0951  0.4898
 5235TIP3    H237121   1.485   2.892  12.393 -0.5830  0.9081 -0.1314
 5236TIP3   OH237122   1.276   1.325  13.371  0.2593 -0.8437  0.5110
 5236TIP3    H137123   1.272   1.364  13.283 -2.5939 -0.3575  0.7574
 5236TIP3    H237124   1.284   1.400  13.430  1.4402 -1.1233  0.7212
 5237TIP3   OH237125   5.231   4.818   2.637 -0.2027  0.3275 -0.9421
 5237TIP3    H137126   5.289   4.874   2.689 -1.0512  0.5105 -0.1587
 5237TIP3    H237127   5.212   4.744   2.694  2.3099 -1.7669 -2.5760
 5238TIP3   OH237128   4.952   2.971  14.278 -0.3978 -0.5185 -0.3645
 5238TIP3    H137129   4.885   2.972  14.346  0.6055 -1.9201  0.7099
 5238TIP3    H237130   4.997   2.887  14.290  1.9139  0.5975 -0.6758
 5239TIP3   OH237131   4.046   1.127   4.207  0.9559  0.0853 -0.4975
 5239TIP3    H137132   4.027   1.064   4.277 -0.4818  0.6231 -0.3682
 5239TIP3    H237133   4.090   1.075   4.139 -1.9000 -1.5768 -1.2431
 5240TIP3   OH237134   3.525   0.211   5.199 -0.0627 -0.2301  0.1752
 5240TIP3    H137135   3.541   0.305   5.213 -1.2777 -0.0098  0.1820
 5240TIP3    H237136   3.443   0.208   5.150  0.7867 -1.2332 -1.2804
 5241TIP3   OH237137   4.204   6.143  16.124  0.0126 -0.2446 -0.0240
 5241TIP3    H137138   4.285   6.189  16.103  0.1756 -0.3506  0.3437
 5241TIP3    H237139   4.201   6.145  16.220 -0.4745 -0.1480 -0.0431
 5242TIP3   OH237140   6.378   6.367  15.020 -0.1993  0.0325  0.1759
 5242TIP3    H137141   6.286   6.358  15.044 -0.0999 -1.3464  0.1535
 5242TIP3    H237142   6.382   6.448  14.969 -1.8475 -1.0252 -1.8190
 5243TIP3   OH237143   2.245   3.761  11.252 -0.4826  0.2514  0.0299
 5243TIP3    H137144   2.152   3.739  11.255 -1.1019  1.9787 -2.6526
 5243TIP3    H237145   2.283   3.700  11.188  0.2168 -0.3066  0.9526
 5244TIP3   OH237146   5.041   2.568   4.232 -0.2337  0.3629 -0.7967
 5244TIP3    H137147   5.071   2.520   4.310 -0.5819  2.0894  0.4579
 5244TIP3    H237148   4.955   2.531   4.214 -2.0284  2.6071  2.2214
 5245TIP3   OH237149   3.754   0.238   5.043  0.2967 -0.2292  0.9369
 5245TIP3    H137150   3.838   0.243   5.088  0.1621 -0.6004  1.2281
 5245TIP3    H237151   3.695   0.194   5.105  0.6289 -2.6318 -0.3508
 5246TIP3   OH237152   6.113   1.568   0.500 -0.1667  0.0648 -0.0150
 5246TIP3    H137153   6.055   1.523   0.439  1.0397 -1.2182 -0.2814
 5246TIP3    H237154   6.067   1.568   0.583 -1.1687  0.4267 -0.5608
 5247TIP3   OH237155   5.056   6.269   5.370  0.0129  0.2546  0.0492
 5247TIP3    H137156   5.079   6.348   5.419  0.2051  0.0668  0.2718
 5247TIP3    H237157   4.993   6.224   5.426 -1.3159  1.0205 -0.7941
 5248TIP3   OH237158   2.460   2.616  14.480 -0.5071  0.0212  0.4156
 5248TIP3    H137159   2.536   2.667  14.504 -0.2148  0.4092 -1.1770
 5248TIP3    H237160   2.387   2.678  14.482 -0.5145  0.0110  0.4622
 5249TIP3   OH237161   5.285   6.636   1.148  0.0499 -0.1092 -0.1631
 5249TIP3    H137162   5.264   6.724   1.117 -1.4976 -0.8975 -1.4958
 5249TIP3    H237163   5.282   6.582   1.069 -2.9561 -2.0298  1.0957
 5250TIP3   OH237164   3.434   0.876   0.424  0.0614  0.2159  0.0045
 5250TIP3    H137165   3.397   0.807   0.479 -0.1828  0.4150  0.0905
 5250TIP3    H237166   3.371   0.887   0.353 -0.4606  1.1077  0.5766
 5251TIP3   OH237167   5.660   5.973   0.358  0.1027  0.1552 -0.2094
 5251TIP3    H137168   5.701   5.913   0.420 -0.8089 -1.1820 -0.8243
 5251TIP3    H237169   5.666   5.928   0.273 -2.4822 -0.1220 -0.3463
 5252TIP3   OH237170   4.671   0.312   0.172 -0.1116 -0.6345 -0.1849
 5252TIP3    H137171   4.586   0.342   0.140 -0.4869 -1.1661  0.3115
 5252TIP3    H237172   4.654   0.279   0.259  0.8144  0.3146  0.3852
 5253TIP3   OH237173   4.989   3.978  14.640 -0.6623 -0.3994 -0.2465
 5253TIP3    H137174   5.052   3.911  14.614 -1.9581 -1.8561  0.1838
 5253TIP3    H237175   5.040   4.042  14.688  0.2065 -2.6834  2.0921
 5254TIP3   OH237176   5.176   3.611   5.747 -0.5925 -0.3730 -0.1733
 5254TIP3    H137177   5.225   3.570   5.818 -1.1405 -1.6128 -0.4822
 5254TIP3    H237178   5.243   3.653   5.692 -0.1961  1.0290  1.2913
 5255TIP3   OH237179   1.255   3.720  14.822 -0.1153 -0.1146 -0.6250
 5255TIP3    H137180   1.241   3.628  14.845  0.7549 -0.4982 -1.5706
 5255TIP3    H237181   1.167   3.757  14.816 -0.6891 -1.7025 -3.4629
 5256TIP3   OH237182   5.249   5.444   3.396  0.1075 -0.5938 -0.8328
 5256TIP3    H137183   5.177   5.505   3.411  0.6857  0.4851 -2.2448
 5256TIP3    H237184   5.260   5.443   3.301  1.3738 -1.4424 -0.7022
 5257TIP3   OH237185   3.529   2.161   3.620  0.1633 -0.1322 -0.0005
 5257TIP3    H137186   3.581   2.081   3.626  2.9030  1.4718 -0.6002
 5257TIP3    H237187   3.522   2.192   3.710  2.0808  0.6564 -0.0773
 5258TIP3   OH237188   1.243   5.769  16.886 -0.2321  0.7074 -0.1003
 5258TIP3    H137189   1.157   5.729  16.896 -0.3120  0.7870 -0.4491
 5258TIP3    H237190   1.305   5.699  16.904 -0.3704  0.7386  0.4966
 5259TIP3   OH237191   2.453   6.295  13.116 -0.0482 -0.1268  0.2041
 5259TIP3    H137192   2.406   6.217  13.089 -0.8281  0.7880 -1.2132
 5259TIP3    H237193   2.540   6.264  13.142 -0.8751 -1.6406  1.3132
 5260TIP3   OH237194   2.653   2.035  13.361 -0.1497  0.6831 -0.3109
 5260TIP3    H137195   2.717   2.016  13.430 -0.5131 -1.8560 -0.5698
 5260TIP3    H237196   2.572   2.057  13.408 -0.4401 -1.1913  0.1678
 5261TIP3   OH237197   0.380   2.219  14.108  0.2958 -0.5050  0.2629
 5261TIP3    H137198   0.396   2.304  14.066  3.3192 -2.0618 -2.1832
 5261TIP3    H237199   0.300   2.186  14.066 -0.7762  0.9314  1.0708
 5262TIP3   OH237200   3.412   4.926   6.129  0.1886 -0.2832  0.1796
 5262TIP3    H137201   3.503   4.900   6.116  0.0394 -0.5401 -0.3949
 5262TIP3    H237202   3.361   4.848   6.107 -0.2542  0.3937 -1.3481
 5263TIP3   OH237203   0.084   2.426   0.925 -0.2304  0.4999 -0.7418
 5263TIP3    H137204   0.070   2.347   0.976  2.3455  0.9523  0.8216
 5263TIP3    H237205   0.078   2.397   0.834  0.1277 -1.3898 -0.2034
 5264TIP3   OH237206   4.480   5.811   3.081 -0.2210  0.3019 -0.2009
 5264TIP3    H137207   4.393   5.773   3.070  0.2616 -1.5249  1.7045
 5264TIP3    H237208   4.538   5.753   3.032  0.0771  1.0183 -0.7309
 5265TIP3   OH237209   2.584   0.535   5.756 -0.1150 -0.1099  0.7654
 5265TIP3    H137210   2.646   0.494   5.816  0.1810 -0.6500  0.0964
 5265TIP3    H237211   2.533   0.463   5.720 -2.5639  0.4410  2.7960
 5266TIP3   OH237212   5.099   3.965  15.438  0.1965  0.6233 -0.3567
 5266TIP3    H137213   5.045   4.030  15.482 -0.2837  1.3810 -1.9649
 5266TIP3    H237214   5.124   3.903  15.506 -2.2939  0.5269  0.5457
 5267TIP3   OH237215   6.000   3.016  13.167 -0.1324 -0.1379 -0.0433
 5267TIP3    H137216   5.973   3.084  13.229 -0.1612 -0.7504  0.6300
 5267TIP3    H237217   5.926   2.956  13.163  0.5213 -1.0288  0.6667
 5268TIP3   OH237218   6.543   5.021   6.607  0.5138 -0.5054  0.5691
 5268TIP3    H137219   6.584   4.986   6.687  1.1351  0.8563  0.8787
 5268TIP3    H237220   6.606   5.085   6.574 -0.7784  0.6798  0.3045
 5269TIP3   OH237221   6.250   5.631  15.793 -0.0989 -0.1034  0.2524
 5269TIP3    H137222   6.212   5.672  15.715 -0.5975 -0.4071  0.3331
 5269TIP3    H237223   6.329   5.586  15.761 -0.8256 -1.0443 -0.2652
 5270TIP3   OH237224   1.850   3.343   4.815 -0.1729  0.2839 -0.3066
 5270TIP3    H137225   1.793   3.356   4.740  0.8131 -1.2985 -1.4135
 5270TIP3    H237226   1.850   3.248   4.829  0.5930  0.4397  0.9401
 5271TIP3   OH237227   2.389   5.302   0.093  0.3533  0.2232 -0.1229
 5271TIP3    H137228   2.328   5.270   0.160  0.0247  0.3984 -0.3301
 5271TIP3    H237229   2.446   5.363   0.139 -1.3570  2.1861 -0.4132
 5272TIP3   OH237230   5.985   5.794   6.149  0.1068  0.5430  0.2907
 5272TIP3    H137231   5.999   5.855   6.221 -0.1961  1.0254 -0.0505
 5272TIP3    H237232   6.014   5.842   6.071 -0.3793  0.3536 -0.0138
 5273TIP3   OH237233   3.931   0.629   1.943 -0.1224 -0.2004 -0.1346
 5273TIP3    H137234   4.010   0.675   1.915 -0.7393  2.3795  1.9418
 5273TIP3    H237235   3.880   0.620   1.862  0.8094  1.2314 -0.9397
 5274TIP3   OH237236   5.292   4.512  15.874 -0.1142 -0.4713 -0.0495
 5274TIP3    H137237   5.204   4.517  15.913  0.0188 -0.5049  0.2602
 5274TIP3    H237238   5.303   4.595  15.828 -0.2979 -0.4538 -0.0613
 5275TIP3   OH237239   6.161   2.752   4.927  0.6770  0.3343  0.3836
 5275TIP3    H137240   6.256   2.765   4.922  0.4015  2.3968 -0.2026
 5275TIP3    H237241   6.137   2.720   4.840  0.6484  1.3334  0.0132
 5276TIP3   OH237242   5.208   0.084   4.880  0.5869  0.6376  0.2449
 5276TIP3    H137243   5.197   0.009   4.822 -0.8451  1.4558 -0.5838
 5276TIP3    H237244   5.134   0.141   4.860  1.0534  1.7739  1.6248
 5277TIP3   OH237245   6.176   2.181   3.876  0.1361 -0.4835 -0.1562
 5277TIP3    H137246   6.246   2.239   3.906 -0.1751  0.5584 -1.3728
 5277TIP3    H237247   6.177   2.108   3.938  1.6462 -0.0066  0.4200
 5278TIP3   OH237248   4.918   0.929   1.686  0.0270 -0.0828 -0.0305
 5278TIP3    H137249   4.929   0.849   1.634  0.1982 -0.5244  0.6690
 5278TIP3    H237250   4.835   0.917   1.732 -0.2273  0.3970 -0.3603
 5279TIP3   OH237251   2.989   6.545   4.835  0.0966  0.5573  0.0721
 5279TIP3    H137252   3.003   6.509   4.922 -2.3061  0.8750  0.6721
 5279TIP3    H237253   2.957   6.634   4.850 -4.0042 -0.5613 -0.8029
 5280TIP3   OH237254   6.768   4.070   0.383  1.0284 -0.0827 -0.3643
 5280TIP3    H137255   6.725   3.997   0.338 -1.1437  0.4088  0.7635
 5280TIP3    H237256   6.844   4.031   0.426  0.8176 -1.3472 -1.0784
 5281TIP3   OH237257   6.645   1.311   4.747 -0.1510  0.1834 -0.3345
 5281TIP3    H137258   6.661   1.370   4.820  0.6215 -0.2875 -0.1244
 5281TIP3    H237259   6.719   1.324   4.688 -0.0309 -0.4971 -0.3410
 5282TIP3   OH237260   2.614   1.052  15.109  0.1284  0.4056  0.0825
 5282TIP3    H137261   2.522   1.043  15.084 -0.1608  2.1967  0.3431
 5282TIP3    H237262   2.662   0.995  15.049 -1.1371 -0.5733 -0.0371
 5283TIP3   OH237263   6.569   3.948   4.019 -0.6113 -0.4027  0.2304
 5283TIP3    H137264   6.517   4.025   3.996 -0.5185  0.3743  2.4161
 5283TIP3    H237265   6.505   3.877   4.022 -0.8254 -0.2887 -1.0574
 5284TIP3   OH237266   3.191   4.204  10.501  0.7831  0.0764 -0.7818
 5284TIP3    H137267   3.186   4.298  10.484 -1.0077 -0.0914 -1.2918
 5284TIP3    H237268   3.240   4.198  10.584 -2.7092  1.7647  1.6484
 5285TIP3   OH237269   6.309   3.141   4.210  0.4407  0.1725 -0.0814
 5285TIP3    H137270   6.220   3.106   4.207  0.5700 -0.1071 -1.8277
 5285TIP3    H237271   6.312   3.204   4.138  1.0364  1.7735  1.2963
 5286TIP3   OH237272   0.501   4.063  16.117  0.4290 -0.3001  0.2393
 5286TIP3    H137273   0.480   4.150  16.151  0.1781  0.1209 -0.9345
 5286TIP3    H237274   0.585   4.041  16.158  0.2188  0.2370  0.9868
 5287TIP3   OH237275   5.309   6.523   6.538 -0.4192 -0.2427  0.4925
 5287TIP3    H137276   5.272   6.551   6.622  0.0185  0.3718  0.4858
 5287TIP3    H237277   5.374   6.457   6.562  0.4199  0.6462  0.7330
 5288TIP3   OH237278   5.319   5.729  15.193  0.2046 -0.4997  0.1446
 5288TIP3    H137279   5.258   5.797  15.164 -0.5697 -0.9755  0.6202
 5288TIP3    H237280   5.303   5.722  15.288  1.8041  0.1652  0.4932
 5289TIP3   OH237281   6.608   1.405   6.240 -0.2023 -0.0625  0.5635
 5289TIP3    H137282   6.675   1.395   6.307  0.4855 -0.7166 -0.2148
 5289TIP3    H237283   6.632   1.343   6.171 -0.4064  1.1803 -0.6805
 5290TIP3   OH237284   2.683   1.843   1.648 -0.1626 -0.2997 -0.3242
 5290TIP3    H137285   2.729   1.769   1.608  0.4484  0.1347 -0.4275
 5290TIP3    H237286   2.614   1.865   1.586  0.3582 -0.0616 -0.8207
 5291TIP3   OH237287   5.610   3.752  16.139  0.0305 -0.2889  0.6035
 5291TIP3    H137288   5.594   3.771  16.231  0.2562 -1.2074  0.8446
 5291TIP3    H237289   5.690   3.698  16.139 -0.9571 -1.8192  0.0372
 5292TIP3   OH237290   2.760   5.263   1.238 -0.3550 -0.1235 -0.1581
 5292TIP3    H137291   2.813   5.254   1.159  0.8817 -3.0758  0.8393
 5292TIP3    H237292   2.819   5.302   1.302 -0.7480  0.4568 -0.1399
 5293TIP3   OH237293   4.171   1.262   1.801 -0.0463 -0.3967 -0.5951
 5293TIP3    H137294   4.127   1.270   1.885  0.0262 -0.1668 -0.5785
 5293TIP3    H237295   4.162   1.169   1.778 -1.3510 -0.1657 -1.0446
 5294TIP3   OH237296   6.415   6.649  14.915 -0.6823  0.2444 -0.4019
 5294TIP3    H137297   6.372   6.703  14.981 -1.8282  0.0637 -0.9811
 5294TIP3    H237298   6.406   6.699  14.834  2.0410  1.1904 -0.2208
 5295TIP3   OH237299   5.366   0.485  12.880 -0.0856  0.0988  0.3068
 5295TIP3    H137300   5.315   0.404  12.881 -2.4095  1.2741 -3.0331
 5295TIP3    H237301   5.309   0.550  12.921  0.4671  0.6378  0.2332
 5296TIP3   OH237302   2.234   5.571   5.235 -0.1829 -0.3983 -0.3563
 5296TIP3    H137303   2.297   5.574   5.163  1.4310  1.9893  1.0373
 5296TIP3    H237304   2.167   5.635   5.212 -0.5980 -0.8823 -0.5138
 5297TIP3   OH237305   0.049   4.253   6.332 -0.1420 -0.4002 -0.0046
 5297TIP3    H137306  -0.029   4.301   6.358 -0.2734 -0.0577 -0.9961
 5297TIP3    H237307   0.112   4.269   6.403 -0.4228  0.6677  0.0208
 5298TIP3   OH237308   3.256   1.762  10.741 -0.2460 -0.3097 -0.2033
 5298TIP3    H137309   3.274   1.791  10.651  0.9637  1.0004  0.4168
 5298TIP3    H237310   3.342   1.749  10.780 -0.7592 -1.2996  0.6474
 5299TIP3   OH237311   1.746   1.287  15.650 -0.6200 -0.2378  0.2202
 5299TIP3    H137312   1.667   1.271  15.701 -0.8752 -0.5446 -0.2704
 5299TIP3    H237313   1.715   1.312  15.563 -0.1828 -0.3246  0.0352
 5300TIP3   OH237314   4.602   6.466   3.257  0.2548  0.3912 -0.7168
 5300TIP3    H137315   4.636   6.388   3.302  0.2355  0.5572 -0.4163
 5300TIP3    H237316   4.665   6.482   3.186 -0.6448 -0.9277 -1.8698
 5301TIP3   OH237317   2.415   1.428  16.902  0.4249 -0.0433 -0.0078
 5301TIP3    H137318   2.466   1.348  16.884  0.4432 -0.8063  2.8891
 5301TIP3    H237319   2.328   1.395  16.926 -0.3945  1.0340 -1.3818
 5302TIP3   OH237320   1.412   4.984  14.585 -0.4275  0.4897  0.3100
 5302TIP3    H137321   1.347   5.028  14.529 -0.1772  0.9100  0.3522
 5302TIP3    H237322   1.493   5.032  14.570  0.0091 -0.3798 -0.1608
 5303TIP3   OH237323   1.583   2.724  13.300  0.2997 -0.0820  0.5296
 5303TIP3    H137324   1.651   2.780  13.262 -0.7950  1.1003  0.2528
 5303TIP3    H237325   1.501   2.755  13.260 -0.5548 -0.6648  1.7602
 5304TIP3   OH237326   0.829   3.064   1.219 -0.4461 -0.1042  0.1377
 5304TIP3    H137327   0.897   3.128   1.196  1.8243 -1.8895  1.4106
 5304TIP3    H237328   0.867   2.979   1.195 -1.4828 -1.3224  2.4776
 5305TIP3   OH237329   5.688   2.481   5.315  0.5445  0.4355 -0.0686
 5305TIP3    H137330   5.644   2.448   5.236  1.1883  0.7450 -0.5712
 5305TIP3    H237331   5.756   2.416   5.333 -1.3038 -1.0885  1.8667
 5306TIP3   OH237332   3.149   2.778  14.497 -0.0462  0.3047 -0.1248
 5306TIP3    H137333   3.223   2.758  14.555  0.2255 -0.6767 -0.7922
 5306TIP3    H237334   3.171   2.734  14.415 -1.9420 -1.0440  0.0377
 5307TIP3   OH237335   3.693   2.112   1.535  0.1773 -0.0397 -0.1349
 5307TIP3    H137336   3.705   2.182   1.599  0.7294  0.9682 -1.2825
 5307TIP3    H237337   3.772   2.059   1.542  0.6982  0.6448 -0.6319
 5308TIP3   OH237338   1.623   5.091  13.357 -0.0839 -0.1620 -0.0229
 5308TIP3    H137339   1.590   5.070  13.270 -0.3912  0.1381  0.0185
 5308TIP3    H237340   1.651   5.182  13.351  1.4028 -0.6107 -0.2525
 5309TIP3   OH237341   4.358   6.618   0.611  0.3854  0.3730  0.0588
 5309TIP3    H137342   4.301   6.584   0.541  1.3833 -1.3375  0.0206
 5309TIP3    H237343   4.363   6.712   0.594  0.0960  0.0898 -1.8096
 5310TIP3   OH237344   5.964   1.527  12.701  0.1457 -0.9774  0.5215
 5310TIP3    H137345   5.887   1.469  12.704 -0.8040  0.2052  0.0321
 5310TIP3    H237346   6.025   1.483  12.642 -0.8385 -1.1700 -0.3835
 5311TIP3   OH237347   3.433   5.694  14.029  0.5534 -0.5178  0.0707
 5311TIP3    H137348   3.456   5.732  13.944  1.1951  1.1282  0.9392
 5311TIP3    H237349   3.463   5.604  14.023  1.3315 -0.2078 -1.1748
 5312TIP3   OH237350   1.182   5.504   5.294  0.5073  0.1640 -0.4434
 5312TIP3    H137351   1.233   5.474   5.369 -1.2265 -0.2328  0.6302
 5312TIP3    H237352   1.095   5.523   5.329  0.2921  2.2992 -1.9254
 5313TIP3   OH237353   5.620   2.962   5.502  0.1875 -0.3846  0.1734
 5313TIP3    H137354   5.686   2.895   5.482 -0.7059 -0.8950 -1.2163
 5313TIP3    H237355   5.537   2.921   5.480 -0.4022  1.1453 -0.6045
 5314TIP3   OH237356   4.663   5.781   0.160 -0.4635  0.0482  0.6597
 5314TIP3    H137357   4.664   5.768   0.065 -0.1647  0.2291  0.6375
 5314TIP3    H237358   4.640   5.695   0.195 -2.5603  0.4229  0.3525
 5315TIP3   OH237359   4.400   2.557   2.318 -0.7000  0.5873  0.2310
 5315TIP3    H137360   4.370   2.645   2.339 -1.4111  0.6638 -1.0337
 5315TIP3    H237361   4.348   2.500   2.374 -1.6073  0.8640 -0.3227
 5316TIP3   OH237362   2.691   6.055  13.560 -0.1901 -0.1854  0.3848
 5316TIP3    H137363   2.597   6.062  13.580 -0.2295 -0.6686  0.3830
 5316TIP3    H237364   2.705   5.962  13.546  0.0496  0.0130 -0.8170
 5317TIP3   OH237365   4.706   3.062  13.456 -0.3026  0.5290 -0.0977
 5317TIP3    H137366   4.678   3.032  13.370  1.7633  0.7626 -0.9233
 5317TIP3    H237367   4.767   3.133  13.438 -0.7771  1.4354  1.6265
 5318TIP3   OH237368   4.272   3.867   4.885 -1.0633 -0.2053 -0.2668
 5318TIP3    H137369   4.185   3.834   4.863 -1.1222 -1.6005  1.7077
 5318TIP3    H237370   4.263   3.962   4.885 -2.7576 -0.3364  0.4583
 5319TIP3   OH237371   2.523   6.531   1.196 -0.0046 -0.0550  0.0054
 5319TIP3    H137372   2.570   6.569   1.270 -2.1362 -1.9012  2.4953
 5319TIP3    H237373   2.517   6.438   1.217 -0.1317 -0.7871 -2.8856
 5320TIP3   OH237374   5.594   2.149   3.513  0.5814  0.3131  0.8002
 5320TIP3    H137375   5.671   2.200   3.536  0.9269  0.0134  0.3041
 5320TIP3    H237376   5.625   2.059   3.506  0.2845  0.2522  0.1464
 5321TIP3   OH237377   2.638   5.864  11.462  0.3971 -0.2458 -0.2360
 5321TIP3    H137378   2.657   5.867  11.368  1.6874  0.5726  0.0252
 5321TIP3    H237379   2.724   5.863  11.504 -0.0989  1.9041  0.9886
 5322TIP3   OH237380   5.331   5.324  14.577  0.1815  0.8075  0.5468
 5322TIP3    H137381   5.244   5.324  14.616  0.0164  2.4342  0.2572
 5322TIP3    H237382   5.322   5.270  14.499 -1.4456  3.3241 -1.1658
 5323TIP3   OH237383   4.748   1.067  11.019 -0.0976  0.1290  0.2632
 5323TIP3    H137384   4.782   1.135  10.962 -2.6215  0.3038 -1.1882
 5323TIP3    H237385   4.788   0.986  10.987 -0.1026  0.4581 -0.6069
 5324TIP3   OH237386   0.190   1.977   1.778  0.1239  0.1977  0.0525
 5324TIP3    H137387   0.150   2.036   1.842 -2.0627 -0.8061 -0.2675
 5324TIP3    H237388   0.233   1.910   1.831 -1.2816 -0.3749  0.5122
 5325TIP3   OH237389   0.353   3.362  15.908  1.0130 -0.0991  0.1452
 5325TIP3    H137390   0.413   3.433  15.929  0.0828  0.9620 -0.6687
 5325TIP3    H237391   0.268   3.391  15.941  0.2718 -0.0208 -1.7022
 5326TIP3   OH237392   4.031   5.980   5.089 -0.2747  0.3054  0.0660
 5326TIP3    H137393   3.980   6.060   5.105 -0.3906  0.1266  0.6315
 5326TIP3    H237394   4.122   6.008   5.098 -0.2543  0.6384 -1.0002
 5327TIP3   OH237395   1.336   0.046   4.922 -0.0922 -0.1483 -0.3212
 5327TIP3    H137396   1.364   0.135   4.942  0.6865 -0.7275  1.3819
 5327TIP3    H237397   1.241   0.047   4.932 -0.6125  1.3150 -3.9809
 5328TIP3   OH237398   1.331   1.637  13.795 -0.4992 -0.6892 -0.0402
 5328TIP3    H137399   1.400   1.698  13.824 -1.3144 -0.0535  0.6475
 5328TIP3    H237400   1.334   1.642  13.700  1.9244 -2.4415 -0.1540
 5329TIP3   OH237401   4.882   1.557   0.943 -0.1620  0.4024 -0.3488
 5329TIP3    H137402   4.840   1.551   0.857 -0.2324  1.3181 -0.3849
 5329TIP3    H237403   4.834   1.628   0.987  0.1470  0.2141  0.2894
 5330TIP3   OH237404   1.777   6.280  13.187 -0.0766  0.3425 -0.0193
 5330TIP3    H137405   1.814   6.197  13.218  0.3382  0.7011  0.4673
 5330TIP3    H237406   1.853   6.338  13.177 -0.4934  1.1005  1.0218
 5331TIP3   OH237407   6.246   2.956  12.202  0.2164 -0.0181 -0.0341
 5331TIP3    H137408   6.203   2.878  12.237  1.4320 -0.9779 -0.5916
 5331TIP3    H237409   6.203   2.972  12.118  0.5335 -0.6297 -0.3221
 5332TIP3   OH237410   6.074   1.750   3.866  0.1984  0.1610  0.4716
 5332TIP3    H137411   6.035   1.835   3.844 -1.4318 -0.6685  0.0488
 5332TIP3    H237412   6.137   1.734   3.795  0.4515  0.9537  0.5015
 5333TIP3   OH237413   2.818   2.363  16.128 -0.8821  0.3614 -0.5312
 5333TIP3    H137414   2.833   2.321  16.043 -0.6226 -0.1466 -0.2463
 5333TIP3    H237415   2.868   2.445  16.124 -0.4935  0.1198 -0.7041
 5334TIP3   OH237416   0.756   5.890   4.622  0.0250  0.2413  0.2899
 5334TIP3    H137417   0.852   5.893   4.619  0.0798 -0.7334  0.7012
 5334TIP3    H237418   0.728   5.903   4.532  0.5704 -0.1736  0.0582
 5335TIP3   OH237419   0.067   2.733  16.626  0.0477 -0.2846 -0.7675
 5335TIP3    H137420   0.077   2.812  16.679 -0.6517  0.3977 -1.6285
 5335TIP3    H237421   0.119   2.667  16.672  0.6492  0.6697 -0.0334
 5336TIP3   OH237422   6.548   4.657  14.051  0.4913 -0.6707 -0.4819
 5336TIP3    H137423   6.541   4.721  13.980  0.6145  0.0892  0.1741
 5336TIP3    H237424   6.460   4.653  14.089  0.3043 -1.4520 -0.9976
 5337TIP3   OH237425   0.564   3.844   5.908 -0.1982  0.6143 -0.8622
 5337TIP3    H137426   0.533   3.934   5.897 -2.5445 -0.2415 -1.9105
 5337TIP3    H237427   0.531   3.817   5.994 -0.1064  0.5443 -0.8495
 5338TIP3   OH237428   6.137   0.087  12.548 -0.1674 -0.3978 -0.1611
 5338TIP3    H137429   6.055   0.129  12.574  0.0423 -0.4059  0.5279
 5338TIP3    H237430   6.149   0.112  12.456  0.2174  1.4885  0.3728
 5339TIP3   OH237431   2.217   4.076  14.936  0.1454  0.1645  0.0647
 5339TIP3    H137432   2.149   4.018  14.971  0.3856 -0.0993  0.1052
 5339TIP3    H237433   2.291   4.017  14.918  0.8437  0.6191  1.2910
 5340TIP3   OH237434   0.767   6.203  14.660 -0.4598  0.2860  0.5046
 5340TIP3    H137435   0.709   6.146  14.712  1.7533 -1.9363  0.7554
 5340TIP3    H237436   0.815   6.254  14.725 -2.0368  2.1589  0.2956
 5341TIP3   OH237437   1.795   2.785   6.601  0.1798 -0.5957  0.2180
 5341TIP3    H137438   1.706   2.777   6.637  0.3923 -0.6753  0.7289
 5341TIP3    H237439   1.817   2.878   6.613  0.0415 -0.5068 -0.2065
 5342TIP3   OH237440   0.133   3.996  14.821  0.6718 -0.3951  0.1513
 5342TIP3    H137441   0.220   3.956  14.828  0.2901 -1.2966 -0.2774
 5342TIP3    H237442   0.079   3.931  14.777  0.3930  1.1353 -1.8920
 5343TIP3   OH237443   2.624   4.979   0.048 -0.5460 -0.0819 -0.0099
 5343TIP3    H137444   2.537   4.947   0.023 -0.2170 -2.9621  2.0151
 5343TIP3    H237445   2.670   4.989  -0.035 -2.0691 -0.8786 -1.0069
 5344TIP3   OH237446   1.440   6.018  11.494  0.0993  0.0325  0.1284
 5344TIP3    H137447   1.384   6.017  11.572 -2.0885 -0.4485 -1.3481
 5344TIP3    H237448   1.494   6.096  11.504 -1.1159  0.7531  1.4548
 5345TIP3   OH237449   4.022   4.182   0.214 -0.3443 -0.2866  0.3775
 5345TIP3    H137450   3.944   4.207   0.264 -0.2346 -2.8525  2.0673
 5345TIP3    H237451   4.083   4.149   0.281  0.7001 -1.8024 -1.2426
 5346TIP3   OH237452   0.334   6.302  13.672  0.2585 -0.2906  0.5914
 5346TIP3    H137453   0.409   6.357  13.692  1.2624 -1.7731  1.0479
 5346TIP3    H237454   0.271   6.321  13.741 -0.0990  1.4403 -0.1516
 5347TIP3   OH237455   0.904   4.120   5.372  0.7211  0.3570  0.8416
 5347TIP3    H137456   0.999   4.128   5.383  0.6931  1.0510  0.6414
 5347TIP3    H237457   0.885   4.174   5.295 -0.1477  2.1899  2.2663
 5348TIP3   OH237458   2.588   3.203   5.495  0.0629 -0.0577  0.5041
 5348TIP3    H137459   2.526   3.131   5.489  1.1655 -0.9295 -0.7793
 5348TIP3    H237460   2.612   3.206   5.588 -0.3089 -1.0716  0.6469
 5349TIP3   OH237461   1.753   0.896  17.000 -0.4304  0.0720  0.1025
 5349TIP3    H137462   1.729   0.946  16.922 -2.4177 -1.2776 -0.2222
 5349TIP3    H237463   1.704   0.815  16.993  0.9683 -0.9887  1.7408
 5350TIP3   OH237464   4.959   6.121  15.137  0.0539  0.3413  0.1890
 5350TIP3    H137465   4.949   6.181  15.063 -0.5377 -0.0979 -0.0886
 5350TIP3    H237466   5.023   6.056  15.106 -2.2667 -1.4883 -1.0219
 5351TIP3   OH237467   5.485   1.425   5.886 -0.0036  0.2194 -0.1013
 5351TIP3    H137468   5.468   1.479   5.809 -1.7111 -1.3383 -0.8807
 5351TIP3    H237469   5.464   1.481   5.961 -1.9727  0.5803 -0.8886
 5352TIP3   OH237470   0.387   1.765  14.107  0.0303 -0.4740  0.2831
 5352TIP3    H137471   0.422   1.775  14.019 -1.5127 -0.9440 -0.4259
 5352TIP3    H237472   0.418   1.680  14.136 -0.1415 -0.6889 -0.1551
 5353TIP3   OH237473   3.365   0.600  13.763  0.1163  0.9878  0.5860
 5353TIP3    H137474   3.387   0.507  13.764  0.1706  0.9941  2.4227
 5353TIP3    H237475   3.342   0.618  13.672 -0.5564 -0.9805  0.3228
 5354TIP3   OH237476   4.513   4.368   5.096 -1.1514 -0.7327  0.2158
 5354TIP3    H137477   4.442   4.378   5.160 -0.9868  0.4775  0.2263
 5354TIP3    H237478   4.552   4.455   5.089 -1.2259 -0.8033 -1.6062
 5355TIP3   OH237479   2.425   5.556  12.399 -0.4858 -0.6424  1.0070
 5355TIP3    H137480   2.479   5.524  12.327  1.0644  0.1447  1.7855
 5355TIP3    H237481   2.337   5.562  12.362 -0.0501 -1.8723 -0.3123
 5356TIP3   OH237482   6.534   4.448  16.790  0.4089 -0.7389 -0.2918
 5356TIP3    H137483   6.483   4.460  16.710 -0.1530  1.4030  0.3210
 5356TIP3    H237484   6.468   4.429  16.858  0.6217 -0.0455  0.1168
 5357TIP3   OH237485   1.345   1.593   4.759  0.0517  0.3840  0.0978
 5357TIP3    H137486   1.259   1.549   4.757  0.1380  0.2223 -1.8246
 5357TIP3    H237487   1.408   1.521   4.770  0.1038  0.1364 -1.6112
 5358TIP3   OH237488   2.708   4.895  12.224  0.1520 -0.1864 -0.0123
 5358TIP3    H137489   2.785   4.903  12.167  0.1500 -0.5115 -0.0588
 5358TIP3    H237490   2.683   4.986  12.242  1.9632 -0.0054  1.9302
 5359TIP3   OH237491   3.885   5.193   6.730  0.0028 -0.1844 -0.9768
 5359TIP3    H137492   3.955   5.244   6.689 -0.7033 -0.4082 -2.5573
 5359TIP3    H237493   3.814   5.196   6.666 -0.9111 -1.1534 -0.0351
 5360TIP3   OH237494   3.092   6.589  11.343  0.5110 -0.1635 -0.1154
 5360TIP3    H137495   3.069   6.634  11.262 -0.9439 -0.2867  0.2029
 5360TIP3    H237496   3.181   6.619  11.362  1.2393 -0.7930 -2.1898
 5361TIP3   OH237497   4.751   2.860  14.086 -0.0398  0.1060 -0.5255
 5361TIP3    H137498   4.659   2.865  14.114  0.0298  0.1178 -0.2966
 5361TIP3    H237499   4.796   2.926  14.139  0.2724 -0.5649  0.0674
 5362TIP3   OH237500   3.936   0.154  14.038 -0.5506  0.9232 -0.1402
 5362TIP3    H137501   3.871   0.099  13.996 -1.0569  1.2794  0.1657
 5362TIP3    H237502   4.014   0.098  14.046 -0.8754  0.4389 -0.3340
 5363TIP3   OH237503   3.217   4.797   4.074  0.4463 -0.0332  0.5133
 5363TIP3    H137504   3.221   4.707   4.106  0.4013 -0.5810 -0.9409
 5363TIP3    H237505   3.295   4.839   4.111  0.5315 -0.6966  1.1113
 5364TIP3   OH237506   5.781   3.719  15.063 -0.0238  0.4565  0.3035
 5364TIP3    H137507   5.760   3.809  15.035 -0.7867 -0.2395 -1.5217
 5364TIP3    H237508   5.753   3.715  15.154 -0.7585  1.8308  0.1659
 5365TIP3   OH237509   0.785   5.616   0.204  0.1282 -0.1045 -0.3457
 5365TIP3    H137510   0.819   5.642   0.290 -1.6693 -1.3858  0.8292
 5365TIP3    H237511   0.838   5.540   0.180  0.3941  0.0311 -0.1976
 5366TIP3   OH237512   4.599   5.296  17.310  0.0972  0.4978 -0.3406
 5366TIP3    H137513   4.526   5.358  17.303  0.0158  0.3607 -0.6938
 5366TIP3    H237514   4.628   5.282  17.220 -0.7887 -1.0673 -0.4221
 5367TIP3   OH237515   1.256   5.773  11.524  0.2954  0.2700 -0.2727
 5367TIP3    H137516   1.308   5.704  11.566 -0.0753  0.7303  1.0062
 5367TIP3    H237517   1.312   5.850  11.529  0.9509 -0.0308 -2.2394
 5368TIP3   OH237518   3.880   1.556   3.373 -0.3253  0.3250  0.1373
 5368TIP3    H137519   3.908   1.467   3.395 -0.9470 -0.2949 -1.4608
 5368TIP3    H237520   3.961   1.605   3.363  0.0977 -0.5321 -0.8107
 5369TIP3   OH237521   0.168   0.054  13.983  0.6610  0.0523 -0.5735
 5369TIP3    H137522   0.230   0.115  14.022 -1.5284  2.9006 -1.2286
 5369TIP3    H237523   0.150   0.090  13.896  0.5743 -2.5564 -1.7318
 5370TIP3   OH237524   4.439   3.064  16.765 -0.0062  0.3698  0.4259
 5370TIP3    H137525   4.510   3.062  16.700  0.6729 -0.6568  1.1591
 5370TIP3    H237526   4.473   3.119  16.836 -0.4030  0.8010  0.2837
 5371TIP3   OH237527   1.538   1.029  16.811  0.5176  0.1128  0.4482
 5371TIP3    H137528   1.492   1.047  16.729 -2.2394 -3.4748  0.9343
 5371TIP3    H237529   1.504   1.094  16.872 -0.4671  0.3685 -0.3373
 5372TIP3   OH237530   0.148   4.109   1.215  0.3406 -0.1344  0.0186
 5372TIP3    H137531   0.127   4.042   1.280  1.9616 -1.4987 -0.7740
 5372TIP3    H237532   0.239   4.090   1.189  0.3032  1.3842 -1.4199
 5373TIP3   OH237533   4.381   1.552  14.244 -0.3806 -0.0649 -0.5942
 5373TIP3    H137534   4.429   1.595  14.174 -0.9707 -0.5128 -1.2939
 5373TIP3    H237535   4.292   1.587  14.236 -0.2762  0.4946  0.4619
 5374TIP3   OH237536   0.355   6.513   3.063  0.3927  0.4265 -0.1941
 5374TIP3    H137537   0.329   6.438   3.117  1.0016 -1.5023 -2.4150
 5374TIP3    H237538   0.418   6.561   3.118 -0.5072 -0.2813  1.5444
 5375TIP3   OH237539   4.769   3.702   0.425 -0.5487  0.1031  0.3842
 5375TIP3    H137540   4.786   3.692   0.332  1.0932  1.5570  0.4820
 5375TIP3    H237541   4.757   3.612   0.457  3.6300 -0.9709 -0.4261
 5376TIP3   OH237542   2.261   0.292  14.810 -0.2607 -0.1089  0.0028
 5376TIP3    H137543   2.290   0.211  14.852  0.0595 -0.0293 -0.0624
 5376TIP3    H237544   2.254   0.269  14.717  0.3666  0.0872 -0.0948
 5377TIP3   OH237545   2.988   5.766  16.422  0.3310 -0.2407 -0.3674
 5377TIP3    H137546   2.942   5.683  16.432  0.7233 -0.7747 -2.3972
 5377TIP3    H237547   3.014   5.768  16.330  1.2578  1.6654 -0.1269
 5378TIP3   OH237548   0.795   3.082  14.989  0.0022 -0.1184 -1.0960
 5378TIP3    H137549   0.740   3.004  14.989 -1.0033  0.5050  1.4960
 5378TIP3    H237550   0.753   3.141  14.927 -2.4905  0.4045  0.9188
 5379TIP3   OH237551   5.906   2.152   2.665  0.0402 -0.1069 -0.9408
 5379TIP3    H137552   5.812   2.147   2.647 -0.0669  1.9291 -1.1205
 5379TIP3    H237553   5.942   2.198   2.590  1.0642 -0.0903 -0.4463
 5380TIP3   OH237554   1.329   3.328   4.956 -0.8625 -0.2410 -0.3100
 5380TIP3    H137555   1.383   3.376   4.893  0.0354 -1.4277 -0.4828
 5380TIP3    H237556   1.377   3.334   5.038 -2.4247  1.9848  0.5295
 5381TIP3   OH237557   5.396   1.600   4.419  0.4818  0.6148  0.0619
 5381TIP3    H137558   5.425   1.510   4.435 -0.0812  0.8266  2.8411
 5381TIP3    H237559   5.315   1.591   4.370  1.4829 -0.2588 -1.5250
 5382TIP3   OH237560   1.184   3.336  13.924 -0.6414 -0.4232 -0.2172
 5382TIP3    H137561   1.213   3.251  13.890 -1.6967  0.0729 -2.6242
 5382TIP3    H237562   1.116   3.315  13.988 -1.3288 -1.4262 -1.2287
 5383TIP3   OH237563   1.182   4.967  12.022  0.0411  0.2341 -0.3045
 5383TIP3    H137564   1.167   4.881  12.061  0.5416  0.7885  1.2225
 5383TIP3    H237565   1.130   5.027  12.076 -0.7625  0.8296 -1.7066
 5384TIP3   OH237566   3.854   0.095  15.374  0.0023  0.1140 -0.2466
 5384TIP3    H137567   3.832   0.016  15.424  0.4489  0.3744  0.3685
 5384TIP3    H237568   3.878   0.159  15.440  0.8193  0.3966 -0.8070
 5385TIP3   OH237569   3.585   5.123   5.414  0.0018  0.2091 -0.1870
 5385TIP3    H137570   3.531   5.164   5.346 -0.0541 -1.2678 -1.0954
 5385TIP3    H237571   3.673   5.119   5.375  0.0870 -0.1471  0.0333
 5386TIP3   OH237572   1.783   6.458  13.987  0.3071 -0.0293  0.2362
 5386TIP3    H137573   1.723   6.531  14.005 -0.4882 -0.6964  0.3431
 5386TIP3    H237574   1.727   6.391  13.948  0.7314 -1.1187  1.4211
 5387TIP3   OH237575   4.803   3.467  12.129 -0.1565  0.3294  0.3079
 5387TIP3    H137576   4.855   3.544  12.109  0.1457  0.8866  2.8756
 5387TIP3    H237577   4.712   3.498  12.130 -0.1058  0.4717  0.5201
 5388TIP3   OH237578   2.149   6.226  15.568  0.4357 -0.6279  0.1535
 5388TIP3    H137579   2.229   6.265  15.534  0.6229 -1.2441 -0.1143
 5388TIP3    H237580   2.158   6.132  15.552  0.0335 -0.8070  0.8842
 5389TIP3   OH237581   3.485   6.601   0.491  0.1396  0.0873 -0.5559
 5389TIP3    H137582   3.557   6.542   0.514  0.7807  0.6781 -0.9873
 5389TIP3    H237583   3.426   6.547   0.438 -0.1808 -0.6393  0.5117
 5390TIP3   OH237584   6.732   6.490   4.387  0.1199 -0.0698  0.2544
 5390TIP3    H137585   6.769   6.560   4.441  4.7045 -1.3364 -0.8191
 5390TIP3    H237586   6.715   6.419   4.448 -1.9359  0.9309  0.9402
 5391TIP3   OH237587   6.602   0.004   1.413  1.2493 -0.1161  0.3542
 5391TIP3    H137588   6.601  -0.065   1.346  0.7194 -0.9171  1.1671
 5391TIP3    H237589   6.522   0.054   1.396 -0.3918 -2.0053  2.0530
 5392TIP3   OH237590   6.501   5.450   2.757 -0.5908  0.9227  0.0941
 5392TIP3    H137591   6.544   5.527   2.720  0.1718  1.3929  1.8480
 5392TIP3    H237592   6.515   5.457   2.852 -2.1973 -0.3557  0.4921
 5393TIP3   OH237593   6.508   4.876  13.849 -0.6176 -0.0714 -0.7700
 5393TIP3    H137594   6.477   4.916  13.768 -0.2968 -1.3888 -1.5850
 5393TIP3    H237595   6.603   4.868  13.836 -0.7135 -1.3720 -0.7864
 5394TIP3   OH237596   4.714   3.075   4.921  0.3562  0.0490 -0.0866
 5394TIP3    H137597   4.727   3.151   4.864  0.8045  0.2578  0.2879
 5394TIP3    H237598   4.654   3.105   4.989 -0.1246 -0.1796 -0.4081
 5395TIP3   OH237599   2.731   0.480  11.517 -0.1586  0.0206  0.6864
 5395TIP3    H137600   2.664   0.474  11.448  0.5492 -0.4604  0.0180
 5395TIP3    H237601   2.811   0.502  11.470  0.1858  0.4539  1.4615
 5396TIP3   OH237602   0.452   3.462  13.551  0.4363  0.1501  0.1991
 5396TIP3    H137603   0.526   3.452  13.491  1.6943  2.6176  1.1745
 5396TIP3    H237604   0.449   3.380  13.600  0.9656 -0.9304 -1.5058
 5397TIP3   OH237605   4.512   2.957  14.178 -0.0422  0.2242  0.2701
 5397TIP3    H137606   4.534   3.006  14.256  0.3779 -1.3105  1.1700
 5397TIP3    H237607   4.464   3.018  14.122  2.4745  2.3600  0.2689
 5398TIP3   OH237608   2.192   1.730   5.259 -0.4528  0.6522 -0.4891
 5398TIP3    H137609   2.276   1.689   5.238 -0.0894  0.0119  1.9017
 5398TIP3    H237610   2.126   1.676   5.216  0.3296  1.1945 -2.4425
 5399TIP3   OH237611   1.199   2.460   0.123  0.7251  0.3754  0.2279
 5399TIP3    H137612   1.138   2.434   0.193  1.0832 -2.0279 -0.2683
 5399TIP3    H237613   1.174   2.405   0.049  1.6987  1.3951 -0.8884
 5400TIP3   OH237614   2.163   1.306  13.091 -0.2005 -0.3705  0.2316
 5400TIP3    H137615   2.077   1.306  13.134 -1.2964 -1.7664 -1.7785
 5400TIP3    H237616   2.180   1.213  13.073  1.0977  0.0087 -0.6100
 5401TIP3   OH237617   2.505   4.952  12.628 -0.1703  0.3467  0.1049
 5401TIP3    H137618   2.585   4.938  12.678  0.2661  0.5921 -0.5095
 5401TIP3    H237619   2.535   4.959  12.537 -0.9497 -0.1557 -0.1984
 5402TIP3   OH237620   6.540   5.979  15.456 -0.6463 -0.1068  0.1179
 5402TIP3    H137621   6.516   5.892  15.423  0.4835 -0.3498 -0.0887
 5402TIP3    H237622   6.629   5.993  15.425 -0.3644  0.5978  1.2033
 5403TIP3   OH237623   0.301   3.698   2.010  0.3590 -0.2994 -0.2890
 5403TIP3    H137624   0.289   3.744   1.927 -1.5119  0.6751  0.4722
 5403TIP3    H237625   0.274   3.608   1.991  1.5471 -0.4970 -1.1323
 5404TIP3   OH237626   4.622   4.833  14.114 -0.4279 -0.0117  0.3036
 5404TIP3    H137627   4.677   4.835  14.192 -0.7292 -0.2828  0.5233
 5404TIP3    H237628   4.673   4.880  14.048 -0.6117  1.1506  0.9536
 5405TIP3   OH237629   3.318   3.008   4.672 -0.1610  0.2248  0.4397
 5405TIP3    H137630   3.320   2.915   4.692 -0.4517 -0.0131 -0.5821
 5405TIP3    H237631   3.383   3.047   4.731  0.8004 -0.7842  0.0725
 5406TIP3   OH237632   3.479   3.953   3.525  0.1461 -0.4178 -0.3808
 5406TIP3    H137633   3.553   3.992   3.572  1.2951 -4.2353  1.4433
 5406TIP3    H237634   3.405   3.962   3.585 -0.0003  0.3469 -0.6746
 5407TIP3   OH237635   0.609   2.304   4.970 -0.5270 -0.3677 -0.3885
 5407TIP3    H137636   0.618   2.212   4.992 -0.6861 -0.2320  0.2579
 5407TIP3    H237637   0.544   2.338   5.032  0.2442  0.4031  0.0326
 5408TIP3   OH237638   2.111   4.447  12.180  0.7941 -0.1434  0.2226
 5408TIP3    H137639   2.129   4.379  12.245  0.2909  0.2376  0.7725
 5408TIP3    H237640   2.193   4.495  12.172  1.1057 -0.7150 -0.0536
 5409TIP3   OH237641   1.162   4.071  15.772  0.1877 -0.3996 -0.4260
 5409TIP3    H137642   1.211   4.152  15.781  0.1363 -0.3191 -0.8824
 5409TIP3    H237643   1.227   4.006  15.746  0.3184 -0.6164  0.3898
 5410TIP3   OH237644   1.233   2.133   3.218 -0.3797 -0.3148  0.2362
 5410TIP3    H137645   1.268   2.052   3.256 -0.7370 -0.7057 -0.2457
 5410TIP3    H237646   1.279   2.203   3.263 -0.0909 -0.7901  0.6893
 5411TIP3   OH237647   0.491   4.701  15.424  0.3119  0.4975 -0.3223
 5411TIP3    H137648   0.477   4.745  15.340 -1.5050 -0.6071 -0.6552
 5411TIP3    H237649   0.500   4.608  15.401 -0.4537  0.1513  0.6924
 5412TIP3   OH237650   6.477   5.281  14.092 -0.0972 -0.0597  0.1320
 5412TIP3    H137651   6.506   5.311  14.178 -0.2546  1.2446 -0.2331
 5412TIP3    H237652   6.517   5.344  14.031  0.4164 -1.2464 -0.8002
 5413TIP3   OH237653   0.830   0.199   1.309 -0.4618  0.6856  0.3585
 5413TIP3    H137654   0.823   0.293   1.296 -0.5882  0.8225  1.3322
 5413TIP3    H237655   0.744   0.165   1.283 -0.7328  0.9501  0.9079
 5414TIP3   OH237656   6.603   2.456  11.662 -0.0603 -0.2295 -0.1918
 5414TIP3    H137657   6.551   2.436  11.584 -1.4092 -1.0858  0.9027
 5414TIP3    H237658   6.610   2.552  11.661 -0.8896 -0.1609 -0.8485
 5415TIP3   OH237659   5.878   2.832  15.611 -0.0625  0.6413  0.1953
 5415TIP3    H137660   5.941   2.762  15.626 -1.5298 -1.1774 -1.6600
 5415TIP3    H237661   5.856   2.864  15.699  1.5130 -0.3767  1.0094
 5416TIP3   OH237662   0.867   0.294  14.261  0.0592 -0.1869  0.0608
 5416TIP3    H137663   0.874   0.379  14.219  0.3773 -1.2074 -2.0516
 5416TIP3    H237664   0.815   0.241  14.202  1.6333 -2.0806  0.2500
 5417TIP3   OH237665   3.316   4.300   1.454  0.7800  0.4760 -0.5346
 5417TIP3    H137666   3.299   4.207   1.443 -1.1021  0.7644 -0.3755
 5417TIP3    H237667   3.341   4.331   1.367 -0.4249  0.1613 -1.0076
 5418TIP3   OH237668   3.611   5.826  16.878  0.6086  0.2964 -0.0105
 5418TIP3    H137669   3.552   5.759  16.842  2.7207 -1.0598 -1.1356
 5418TIP3    H237670   3.604   5.899  16.817 -0.2904  0.3937  0.1852
 5419TIP3   OH237671   3.517   4.467   1.544  0.1689  0.3922 -0.2066
 5419TIP3    H137672   3.593   4.448   1.489  0.0791  2.2407 -1.0551
 5419TIP3    H237673   3.443   4.423   1.500  0.0073  2.2639 -1.9269
 5420TIP3   OH237674   1.313   1.654   1.789 -0.1228  0.4648 -0.3776
 5420TIP3    H137675   1.291   1.678   1.879  0.3326  1.3641 -0.4928
 5420TIP3    H237676   1.353   1.567   1.797  0.0895  0.6185  0.3139
 5421TIP3   OH237677   5.256   5.777   3.250  1.0167  0.0691  0.4803
 5421TIP3    H137678   5.169   5.771   3.288 -0.0132  0.6518 -1.6451
 5421TIP3    H237679   5.308   5.822   3.317 -1.3139  3.3055  0.3783
 5422TIP3   OH237680   4.262   6.523  15.650  1.0679 -0.5877  0.7360
 5422TIP3    H137681   4.283   6.503  15.559 -0.8384  1.0659 -0.1469
 5422TIP3    H237682   4.198   6.457  15.675  1.2469 -0.7660  0.7228
 5423TIP3   OH237683   1.924   0.495   4.207  0.0936 -0.7743  0.3118
 5423TIP3    H137684   1.924   0.429   4.137 -0.2862 -1.6522  1.1204
 5423TIP3    H237685   1.872   0.567   4.172  1.5142 -0.3642 -1.0634
 5424TIP3   OH237686   0.628   0.774  13.096 -0.2182 -0.5023  0.0598
 5424TIP3    H137687   0.717   0.809  13.108 -0.4700  0.5396 -0.9591
 5424TIP3    H237688   0.641   0.682  13.073  0.5752 -0.4825  0.3843
 5425TIP3   OH237689   2.813   3.946   6.171 -0.8478  0.3096 -0.2686
 5425TIP3    H137690   2.904   3.966   6.149 -0.0860 -0.0928  2.1576
 5425TIP3    H237691   2.795   4.001   6.247 -2.5439  0.1185 -0.4896
 5426TIP3   OH237692   5.911   1.846   5.811  0.2433 -0.3433 -0.1637
 5426TIP3    H137693   5.871   1.922   5.852 -0.9990 -0.9468 -0.2142
 5426TIP3    H237694   5.877   1.846   5.721 -0.1631 -1.2290 -0.0179
 5427TIP3   OH237695   4.122   6.361  11.185 -0.0865 -0.0645  0.0490
 5427TIP3    H137696   4.119   6.401  11.272 -0.3098 -0.8898  0.4279
 5427TIP3    H237697   4.035   6.374  11.149 -0.6033 -1.3992  0.7331
 5428TIP3   OH237698   6.088   4.754   5.764  0.3818  0.1356  0.1149
 5428TIP3    H137699   6.173   4.741   5.721 -0.3758  0.8966 -1.7445
 5428TIP3    H237700   6.064   4.844   5.743 -0.5824  0.1494  1.1904
 5429TIP3   OH237701   3.732   2.757  11.739 -0.0867  0.0931  0.3747
 5429TIP3    H137702   3.703   2.843  11.708  0.4144  0.0549 -0.2145
 5429TIP3    H237703   3.732   2.702  11.661  3.0845  0.4940 -0.0036
 5430TIP3   OH237704   0.555   5.845  14.016 -0.0449  0.2933  0.3199
 5430TIP3    H137705   0.527   5.922  13.966 -1.0590 -0.5273 -0.4204
 5430TIP3    H237706   0.549   5.772  13.955 -0.7951 -0.6559  1.4715
 5431TIP3   OH237707   4.959   1.548  17.304 -0.2623 -0.1273  0.5042
 5431TIP3    H137708   5.038   1.498  17.284  0.3709  1.1548 -0.4130
 5431TIP3    H237709   4.986   1.609  17.372 -0.7671 -0.3926  0.9498
 5432TIP3   OH237710   1.459   6.064  15.524  0.2381 -0.6143 -0.0878
 5432TIP3    H137711   1.512   5.985  15.537  0.4525 -0.5154 -0.3515
 5432TIP3    H237712   1.521   6.136  15.535  0.1127 -0.4938 -0.1721
 5433TIP3   OH237713   2.565   1.243  14.751 -0.4511 -0.3112  0.2735
 5433TIP3    H137714   2.528   1.242  14.839 -0.1593  0.9830  0.4304
 5433TIP3    H237715   2.634   1.176  14.753 -0.5465 -0.3925  0.9793
 5434TIP3   OH237716   0.241   0.201   5.728  0.4606  0.6221 -0.2285
 5434TIP3    H137717   0.202   0.248   5.801 -1.5466 -0.0227 -0.8183
 5434TIP3    H237718   0.276   0.121   5.767  0.5723  0.8809  0.2121
 5435TIP3   OH237719   0.444   6.419   2.144 -0.3897 -0.1756  0.5916
 5435TIP3    H137720   0.352   6.442   2.156 -0.3091  0.4373  0.0498
 5435TIP3    H237721   0.442   6.330   2.108 -0.7789 -0.0476  0.2908
 5436TIP3   OH237722   0.755   3.787  11.623 -0.2614 -0.1259  0.4779
 5436TIP3    H137723   0.677   3.807  11.675 -1.6060  0.5260 -1.6900
 5436TIP3    H237724   0.810   3.864  11.633 -0.9279  0.3967  0.2088
 5437TIP3   OH237725   2.240   1.025   6.530 -0.4263 -0.2066 -0.4484
 5437TIP3    H137726   2.302   1.096   6.516  0.2380 -0.7130 -0.1245
 5437TIP3    H237727   2.294   0.948   6.545 -1.1318 -0.6171  0.0674
 5438TIP3   OH237728   0.351   4.524  13.214  0.4279  0.0698  0.7927
 5438TIP3    H137729   0.367   4.453  13.275  0.9213 -1.3929 -0.9322
 5438TIP3    H237730   0.322   4.480  13.133  1.3050  1.7661 -0.5169
 5439TIP3   OH237731   4.502   3.423   4.187 -0.3815 -0.1628  0.2593
 5439TIP3    H137732   4.471   3.508   4.217 -1.3674 -0.2221 -0.5359
 5439TIP3    H237733   4.593   3.418   4.217 -0.2224  1.2746  0.0664
 5440TIP3   OH237734   6.107   0.870   1.334  0.0704 -0.2472  0.0320
 5440TIP3    H137735   6.197   0.852   1.310  0.2240 -0.2483  0.5987
 5440TIP3    H237736   6.083   0.800   1.395 -0.6040 -0.7508 -0.7866
 5441TIP3   OH237737   4.589   3.585  17.066 -0.5836  0.0441 -0.2110
 5441TIP3    H137738   4.600   3.496  17.098 -0.2655  0.4065  0.7225
 5441TIP3    H237739   4.517   3.621  17.118 -0.6154  0.3806 -0.4794
 5442TIP3   OH237740   4.533   2.882  15.293 -0.1682  0.2176  0.3300
 5442TIP3    H137741   4.561   2.950  15.355  4.1176  0.7540 -1.8313
 5442TIP3    H237742   4.508   2.930  15.214  1.4229 -0.5833 -0.7088
 5443TIP3   OH237743   4.682   0.357  12.125  0.2154 -0.3003 -0.3344
 5443TIP3    H137744   4.666   0.313  12.042  1.1518 -2.6031  0.6325
 5443TIP3    H237745   4.697   0.286  12.188  1.6807  1.3832  1.3550
 5444TIP3   OH237746   5.752   1.106  14.336 -0.5107 -0.3603 -0.1293
 5444TIP3    H137747   5.742   1.165  14.410  0.1239 -1.1601  0.6103
 5444TIP3    H237748   5.696   1.031  14.357 -1.5526  0.0832 -1.2013
 5445TIP3   OH237749   1.809   6.448   5.016 -0.3876  0.8933 -0.4544
 5445TIP3    H137750   1.837   6.358   5.006  2.4420  1.1180  3.3155
 5445TIP3    H237751   1.881   6.500   4.981 -0.5547  1.6514  0.2995
 5446TIP3   OH237752   6.510   6.446   1.001  0.1734 -0.0581 -0.3955
 5446TIP3    H137753   6.429   6.489   0.973  0.0374 -0.1635 -0.1718
 5446TIP3    H237754   6.565   6.444   0.923 -0.6143 -1.3316 -0.9503
 5447TIP3   OH237755   6.573   6.304  14.172  0.4406 -0.2303  1.0413
 5447TIP3    H137756   6.567   6.396  14.146 -2.3593 -0.2866  1.1819
 5447TIP3    H237757   6.621   6.305  14.255  1.2856  0.9662  0.5670
 5448TIP3   OH237758   4.598   4.438  16.814 -0.2052  0.9103 -0.3112
 5448TIP3    H137759   4.565   4.389  16.889  0.1306  0.5626 -0.3871
 5448TIP3    H237760   4.525   4.438  16.752 -0.4126  1.0230 -0.0667
 5449TIP3   OH237761   6.498   1.401   3.577 -0.4936  0.3730  0.5034
 5449TIP3    H137762   6.485   1.338   3.648  0.4812 -0.7416 -0.2670
 5449TIP3    H237763   6.543   1.475   3.619 -1.2788  0.3984  1.3344
 5450TIP3   OH237764   5.145   2.892   3.028  0.0850 -0.6912  0.8421
 5450TIP3    H137765   5.214   2.869   3.091 -0.0775 -0.4728  1.0977
 5450TIP3    H237766   5.084   2.945   3.078  0.4811  0.3527  0.2399
 5451TIP3   OH237767   6.442   3.190  14.627  0.5022 -0.2148 -0.0956
 5451TIP3    H137768   6.410   3.266  14.676  0.9517  0.3898 -0.7183
 5451TIP3    H237769   6.464   3.125  14.694 -1.5840 -0.5015  0.3846
 5452TIP3   OH237770   0.019   2.319  17.105  0.3465  0.1155 -0.2840
 5452TIP3    H137771  -0.035   2.394  17.081 -1.0165 -0.5794  0.4974
 5452TIP3    H237772   0.081   2.310  17.032 -0.5369  0.9754 -1.1792
 5453TIP3   OH237773   1.029   0.342  13.628 -0.3474 -0.3700  0.1837
 5453TIP3    H137774   0.978   0.261  13.618  0.2191 -0.6647 -0.3472
 5453TIP3    H237775   0.963   0.412  13.623 -0.6540 -0.7220 -1.0242
 5454TIP3   OH237776   0.353   3.450   5.328 -0.1332  0.7392  0.1165
 5454TIP3    H137777   0.340   3.423   5.237 -0.1450 -0.1018  0.3528
 5454TIP3    H237778   0.441   3.418   5.350 -0.7702 -0.5856  0.8979
 5455TIP3   OH237779   6.684   6.686  17.288  0.5388 -0.3444  0.4896
 5455TIP3    H137780   6.681   6.707  17.195  3.1812 -2.9474 -0.3641
 5455TIP3    H237781   6.596   6.705  17.320 -0.5769  0.3170 -2.5966
 5456TIP3   OH237782   3.104   5.375  11.722  0.5973 -0.2765  0.4542
 5456TIP3    H137783   3.068   5.342  11.639 -0.9941  0.6050  0.7425
 5456TIP3    H237784   3.192   5.405  11.699 -0.1045  0.7354 -1.1508
 5457TIP3   OH237785   4.693   2.621  16.815 -0.0786  0.0517 -0.3896
 5457TIP3    H137786   4.671   2.609  16.907  0.4172  1.4161 -0.0701
 5457TIP3    H237787   4.673   2.713  16.797  0.6889  0.0420 -1.3937
 5458TIP3   OH237788   3.361   2.180  11.412 -0.0964  0.1794 -0.0536
 5458TIP3    H137789   3.353   2.108  11.350  1.4127  0.8381 -1.0702
 5458TIP3    H237790   3.341   2.141  11.497 -4.0293 -0.3836 -1.0383
 5459TIP3   OH237791   3.822   0.326  14.256 -0.1674 -0.2829  0.1782
 5459TIP3    H137792   3.910   0.314  14.293 -0.0804  1.2860  0.5693
 5459TIP3    H237793   3.765   0.327  14.333 -0.4802 -0.8593 -0.0437
 5460TIP3   OH237794   2.102   1.641   0.919 -0.0459 -0.1965  0.1088
 5460TIP3    H137795   2.095   1.697   0.841  0.9183 -1.7650 -1.1616
 5460TIP3    H237796   2.018   1.595   0.923 -0.4668  0.5911  0.5871
 5461TIP3   OH237797   3.742   4.184   4.435  0.3747 -0.2132 -0.5695
 5461TIP3    H137798   3.691   4.263   4.416  1.9172  0.9731 -0.0562
 5461TIP3    H237799   3.760   4.145   4.349  1.9542  1.5890 -1.1260
 5462TIP3   OH237800   2.385   1.792   4.571  0.0457  0.0502 -1.0989
 5462TIP3    H137801   2.303   1.744   4.561  0.1988 -0.5975  0.3943
 5462TIP3    H237802   2.373   1.845   4.649  1.4935 -1.1015 -0.0300
 5463TIP3   OH237803   5.398   6.300  17.207  0.0807  0.7098  0.4947
 5463TIP3    H137804   5.408   6.307  17.302  0.5455 -0.8382  0.5993
 5463TIP3    H237805   5.306   6.277  17.194  0.1401  0.3817  0.6275
 5464TIP3   OH237806   2.148   0.095   3.612  0.2924 -0.3626 -0.2234
 5464TIP3    H137807   2.125   0.013   3.567 -1.7499 -0.2105  0.4626
 5464TIP3    H237808   2.198   0.144   3.547  2.4953 -2.5328 -0.3182
 5465TIP3   OH237809   1.094   1.419  15.468 -0.0219 -0.4159 -0.0569
 5465TIP3    H137810   1.044   1.500  15.461  0.1535 -0.3699 -0.9565
 5465TIP3    H237811   1.046   1.366  15.531  0.2450  0.6609  1.0819
 5466TIP3   OH237812   0.124   4.562  16.156  0.2580 -0.0239 -0.1580
 5466TIP3    H137813   0.214   4.564  16.123  0.8916  3.1538  1.3771
 5466TIP3    H237814   0.076   4.621  16.097  0.0055  0.8787  0.9145
 5467TIP3   OH237815   1.012   0.996  12.227  0.4614  0.4902  0.1827
 5467TIP3    H137816   0.963   0.955  12.298  1.0994 -1.3528 -0.3824
 5467TIP3    H237817   1.103   0.996  12.257  0.4034  2.1646  0.4436
 5468TIP3   OH237818   1.109   5.955  13.705 -0.3164 -0.3885  0.2973
 5468TIP3    H137819   1.147   5.970  13.619  1.1413 -1.1662  0.7809
 5468TIP3    H237820   1.124   6.036  13.753 -4.3101  1.5084 -1.1827
 5469TIP3   OH237821   0.358   2.044   2.994  0.0662  0.7647  0.1276
 5469TIP3    H137822   0.372   1.950   2.979  0.8188  1.0715 -1.1956
 5469TIP3    H237823   0.434   2.071   3.045 -1.2759  0.2334  2.5781
 5470TIP3   OH237824   6.765   5.794  16.080  0.1115 -0.2886 -0.0902
 5470TIP3    H137825   6.723   5.879  16.086 -2.4940 -1.5792  2.1789
 5470TIP3    H237826   6.825   5.792  16.155  0.2105 -0.4399 -0.1708
 5471TIP3   OH237827   1.639   1.048  15.942 -0.0644 -0.2491 -0.1933
 5471TIP3    H137828   1.708   1.085  15.996 -0.9958  0.2068  0.7251
 5471TIP3    H237829   1.603   1.122  15.895  0.1935 -0.5177 -0.8294
 5472TIP3   OH237830   0.595   2.030  16.267  0.3084  0.1811  0.2452
 5472TIP3    H137831   0.605   1.937  16.288  0.9239  0.2778  0.4233
 5472TIP3    H237832   0.682   2.068  16.284  0.0276  0.8157  0.3220
 5473TIP3   OH237833   6.336   4.851   3.634 -0.0144  0.3869 -0.2434
 5473TIP3    H137834   6.360   4.781   3.574  1.0634  1.2046 -0.8101
 5473TIP3    H237835   6.328   4.808   3.719  1.2541 -0.3348 -0.4683
 5474TIP3   OH237836   6.425   2.364   3.904 -0.0141  0.6399  0.7581
 5474TIP3    H137837   6.456   2.418   3.977  0.7243 -0.7732  1.5215
 5474TIP3    H237838   6.494   2.299   3.891 -0.3468  0.5777 -0.9190
 5475TIP3   OH237839   0.835   0.170   2.567  0.1603 -0.0997  0.1423
 5475TIP3    H137840   0.930   0.177   2.569  0.1735 -0.2483  0.0773
 5475TIP3    H237841   0.815   0.137   2.479 -0.0573  1.4082 -0.3987
 5476TIP3   OH237842   4.403   1.895  12.228 -0.2215  0.3994 -0.3512
 5476TIP3    H137843   4.481   1.948  12.244 -0.7845  1.0001  0.5190
 5476TIP3    H237844   4.437   1.809  12.205  0.7209  1.1224 -1.8811
 5477TIP3   OH237845   4.155   2.691  17.234  0.9319 -0.0328 -0.5912
 5477TIP3    H137846   4.143   2.605  17.274 -1.2218  0.2066 -0.6144
 5477TIP3    H237847   4.182   2.748  17.306  0.2960 -0.2988 -0.1352
 5478TIP3   OH237848   3.027   0.455   5.930  0.5829  0.3001 -0.5484
 5478TIP3    H137849   3.030   0.526   5.866 -0.3629  1.2706  0.4425
 5478TIP3    H237850   3.076   0.489   6.005 -0.4504  0.1893  0.1868
 5479TIP3   OH237851   2.862   4.367  14.244 -0.2991 -0.4727 -0.3823
 5479TIP3    H137852   2.947   4.383  14.284 -0.8989  0.3633  0.6319
 5479TIP3    H237853   2.818   4.453  14.247 -1.2827 -0.9505 -0.6088
 5480TIP3   OH237854   3.991   2.311   1.337  0.2759  0.0587  0.0737
 5480TIP3    H137855   4.050   2.254   1.386  0.0744 -1.3884 -1.2629
 5480TIP3    H237856   3.907   2.264   1.338 -0.5539  1.4721  0.8742
 5481TIP3   OH237857   1.561   0.470   4.269  0.3259 -0.2574 -0.1513
 5481TIP3    H137858   1.490   0.407   4.279  0.9781 -1.4446 -2.2839
 5481TIP3    H237859   1.633   0.435   4.321 -0.1658  0.1955  0.8566
 5482TIP3   OH237860   5.327   3.803   3.913 -0.5340 -1.1806  0.5895
 5482TIP3    H137861   5.390   3.775   3.980  0.6468  0.1741  0.0915
 5482TIP3    H237862   5.307   3.894   3.935 -0.4160 -0.8343 -0.6695
 5483TIP3   OH237863   2.685   2.890   3.205 -0.1283  0.2040 -0.1632
 5483TIP3    H137864   2.656   2.812   3.252 -0.3876  0.3180 -0.1297
 5483TIP3    H237865   2.725   2.857   3.124 -0.8684  0.0626 -0.4805
 5484TIP3   OH237866   0.777   3.626   3.046 -0.2149 -0.0789 -0.0634
 5484TIP3    H137867   0.731   3.571   2.982  0.0568 -1.0183  0.5311
 5484TIP3    H237868   0.721   3.703   3.056 -0.7325 -0.3565 -0.7219
 5485TIP3   OH237869   3.618   0.683   4.511 -0.2211 -0.0227  1.0664
 5485TIP3    H137870   3.528   0.704   4.533 -0.3909  1.3002 -0.6658
 5485TIP3    H237871   3.617   0.588   4.496 -1.7500  0.1705 -0.4952
 5486TIP3   OH237872   5.082   3.047  13.869 -0.7237 -0.1510  0.1916
 5486TIP3    H137873   5.001   3.044  13.819 -1.3131 -1.0074  1.1496
 5486TIP3    H237874   5.078   2.970  13.926  1.6317 -1.3363 -1.0514
 5487TIP3   OH237875   4.688   6.134   2.311  0.7073  0.1896  0.5208
 5487TIP3    H137876   4.630   6.095   2.375 -1.1125  0.9841 -0.5639
 5487TIP3    H237877   4.721   6.060   2.260 -0.3429 -0.2034  0.3802
 5488TIP3   OH237878   6.066   0.752   5.402 -0.7082  0.2638 -0.1259
 5488TIP3    H137879   6.016   0.697   5.462 -1.0736  0.6977 -0.0195
 5488TIP3    H237880   6.032   0.840   5.418 -0.5597  0.4305 -0.7206
 5489TIP3   OH237881   5.472   1.013   6.594  0.0032  0.5956  0.7105
 5489TIP3    H137882   5.558   1.047   6.618  0.6170  0.7113 -1.4519
 5489TIP3    H237883   5.490   0.931   6.547 -0.9959  0.9798 -0.3981
 5490TIP3   OH237884   0.480   4.637  17.251  0.2988  0.2929  0.6432
 5490TIP3    H137885   0.548   4.601  17.308 -0.0665  0.7607  1.3880
 5490TIP3    H237886   0.480   4.579  17.175  1.1476 -0.0395  0.8803
 5491TIP3   OH237887   3.748   0.860  11.545  0.2832  0.2677 -0.4966
 5491TIP3    H137888   3.697   0.853  11.626  0.5138  1.4450 -0.2193
 5491TIP3    H237889   3.755   0.771  11.512 -0.0688 -0.1901  0.6311
 5492TIP3   OH237890   3.908   1.246  11.388  0.5074 -0.7527  0.0051
 5492TIP3    H137891   3.878   1.289  11.308  0.6505 -1.9531 -0.7282
 5492TIP3    H237892   3.989   1.292  11.411 -0.1357  0.3456  0.1235
 5493TIP3   OH237893   1.624   5.012   1.424 -0.0768 -0.7383 -0.5361
 5493TIP3    H137894   1.612   5.030   1.517 -2.2845 -2.1918 -0.4468
 5493TIP3    H237895   1.633   4.916   1.419 -1.8718 -0.8937 -1.9152
 5494TIP3   OH237896   6.267   3.700  13.010 -0.4728  0.2376  0.4118
 5494TIP3    H137897   6.265   3.608  13.038 -0.7996  0.2539  0.4458
 5494TIP3    H237898   6.302   3.747  13.086  2.2705 -0.1618 -0.4890
 5495TIP3   OH237899   1.717   4.270  12.560 -0.4419  0.0769  0.1914
 5495TIP3    H137900   1.740   4.178  12.576 -1.6549 -0.3293 -0.3103
 5495TIP3    H237901   1.794   4.307  12.517 -0.0204 -0.7602  0.2120
 5496TIP3   OH237902   6.100   1.417  17.311  0.1423 -0.4927 -0.3586
 5496TIP3    H137903   6.157   1.451  17.380 -1.5795  1.0064  0.4247
 5496TIP3    H237904   6.068   1.333  17.345  0.6519 -0.5832 -0.1061
 5497TIP3   OH237905   0.166   5.854   1.967 -0.1465  0.1355  0.4751
 5497TIP3    H137906   0.250   5.809   1.958 -0.8953 -0.8523 -3.0107
 5497TIP3    H237907   0.117   5.799   2.029  0.4347 -1.5965 -0.5144
 5498TIP3   OH237908   6.168   0.513   4.885  0.3242  0.0451 -0.5182
 5498TIP3    H137909   6.183   0.561   4.803  0.6410  1.6431  0.4363
 5498TIP3    H237910   6.110   0.441   4.860 -0.9992  1.4933 -1.8563
 5499TIP3   OH237911   6.495   1.069   1.868 -0.2158 -0.2760 -0.1338
 5499TIP3    H137912   6.543   1.066   1.951 -0.2575  0.7116 -0.0678
 5499TIP3    H237913   6.528   0.994   1.818  1.1412  0.1753  0.0555
 5500TIP3   OH237914   3.861   4.816  12.678  0.0275  0.4640 -0.3438
 5500TIP3    H137915   3.778   4.772  12.656  0.7877 -0.4115 -1.6040
 5500TIP3    H237916   3.881   4.785  12.766  0.3706 -1.5280 -1.0716
 5501TIP3   OH237917   5.558   3.113  15.260  0.3669 -0.5016 -0.0821
 5501TIP3    H137918   5.647   3.143  15.241 -0.3592  2.7541  0.8905
 5501TIP3    H237919   5.502   3.189  15.240 -1.8925 -1.5800  1.5981
 5502TIP3   OH237920   5.226   5.772   1.573  0.1804  0.1321  0.6178
 5502TIP3    H137921   5.245   5.839   1.507 -0.6986  1.4514  1.6508
 5502TIP3    H237922   5.202   5.821   1.651 -0.0995 -1.4008  1.5424
 5503TIP3   OH237923   3.258   2.025   1.814  0.3510  0.0681 -0.2795
 5503TIP3    H137924   3.245   1.958   1.882 -0.3830 -0.3283 -0.8010
 5503TIP3    H237925   3.254   1.978   1.732  2.1858  0.3955 -0.6154
 5504TIP3   OH237926   1.497   2.947   0.272 -0.0056  0.7251 -0.1829
 5504TIP3    H137927   1.481   2.869   0.219 -3.0679  0.8512  0.3736
 5504TIP3    H237928   1.565   2.921   0.334 -0.3868 -1.2335 -0.5253
 5505TIP3   OH237929   1.836   1.485   3.172  0.3791  0.1262 -0.0658
 5505TIP3    H137930   1.857   1.569   3.212  1.1379  0.2412 -0.6790
 5505TIP3    H237931   1.771   1.506   3.104  0.9218  0.2935 -0.5385
 5506TIP3   OH237932   5.806   6.550  14.462  0.0579  0.1771  0.0209
 5506TIP3    H137933   5.790   6.456  14.467  0.0986  0.1950  0.5444
 5506TIP3    H237934   5.752   6.580  14.389 -0.4084 -0.1580  0.2236
 5507TIP3   OH237935   2.921   5.055  15.624 -0.3300 -0.3900 -0.3006
 5507TIP3    H137936   3.004   5.009  15.637  0.4469  0.5325 -1.8346
 5507TIP3    H237937   2.865   5.021  15.694  1.5200 -0.5303  1.2045
 5508TIP3   OH237938   0.369   0.812   4.145  0.2910 -0.1357  0.2361
 5508TIP3    H137939   0.423   0.784   4.071  0.6698  1.7448 -0.2620
 5508TIP3    H237940   0.428   0.806   4.220  0.0706 -1.5305  0.3226
 5509TIP3   OH237941   5.147   1.783  12.484  0.0292 -0.2306  0.2542
 5509TIP3    H137942   5.199   1.862  12.495  3.7453 -2.4836  0.6080
 5509TIP3    H237943   5.079   1.808  12.421  2.1469  2.7784 -1.1126
 5510TIP3   OH237944   1.028   3.062  12.193  0.3143 -0.8075 -0.7159
 5510TIP3    H137945   1.079   3.046  12.273 -0.1019  2.7836  0.4498
 5510TIP3    H237946   0.938   3.042  12.217  0.1488  0.5630 -0.1533
 5511TIP3   OH237947   4.126   5.917  16.012 -0.0567  0.2306  0.5787
 5511TIP3    H137948   4.179   5.985  16.054 -0.2522  0.8574 -0.1669
 5511TIP3    H237949   4.061   5.965  15.961  1.0463 -0.4194 -1.6023
 5512TIP3   OH237950   1.794   5.118   2.967  0.2410 -0.2519 -0.1472
 5512TIP3    H137951   1.817   5.141   2.877 -1.7647 -0.1568 -0.6756
 5512TIP3    H237952   1.766   5.200   3.007  1.7860 -0.1562  0.8196
 5513TIP3   OH237953   5.717   6.706   0.622 -0.0413 -0.6349  0.3623
 5513TIP3    H137954   5.731   6.666   0.536  1.3619  1.4392 -0.4622
 5513TIP3    H237955   5.799   6.689   0.670  0.7316  1.3881 -0.1268
 5514TIP3   OH237956   3.811   2.254   3.902 -0.4297  0.1970 -0.3141
 5514TIP3    H137957   3.744   2.187   3.900 -0.3619  0.1537 -1.1430
 5514TIP3    H237958   3.833   2.271   3.810 -1.2032  2.1001 -0.2022
 5515TIP3   OH237959   3.446   5.897  13.012 -0.0990 -0.0985 -0.1829
 5515TIP3    H137960   3.370   5.857  13.053  1.2887 -0.5595  2.1289
 5515TIP3    H237961   3.518   5.837  13.031  0.8869  0.4026 -2.1586
 5516TIP3   OH237962   1.457   6.022  15.010 -0.4017 -0.3003 -0.9281
 5516TIP3    H137963   1.488   6.092  14.952 -1.0363  1.1729  0.4390
 5516TIP3    H237964   1.534   5.999  15.062 -0.7058  0.9984  0.1565
 5517TIP3   OH237965   6.667   3.805   0.128 -0.3124 -0.1458 -0.2545
 5517TIP3    H137966   6.594   3.754   0.093  1.0192 -0.9467 -2.0287
 5517TIP3    H237967   6.655   3.893   0.090 -0.9199  0.0435  0.3441
 5518TIP3   OH237968   1.211   5.985   3.428 -0.2447 -0.5120  0.6291
 5518TIP3    H137969   1.166   5.957   3.508  0.4241 -0.4424  1.0346
 5518TIP3    H237970   1.146   6.039   3.382 -0.5988 -0.4725  1.1685
 5519TIP3   OH237971   6.089   3.693   3.952  0.1034 -0.4336  0.2781
 5519TIP3    H137972   6.176   3.686   3.990  0.4413 -2.3904 -0.7252
 5519TIP3    H237973   6.063   3.602   3.935 -0.9860  0.2234 -1.9110
 5520TIP3   OH237974   4.400   6.383  11.155 -0.3806 -0.0026 -0.0801
 5520TIP3    H137975   4.310   6.350  11.153 -0.2166 -0.4511 -2.5284
 5520TIP3    H237976   4.431   6.362  11.243 -2.2261 -1.0542  0.3685
 5521TIP3   OH237977   3.027   4.493  12.325  0.1726  0.4288  0.1015
 5521TIP3    H137978   2.960   4.460  12.385  0.3707  0.2966  0.2512
 5521TIP3    H237979   3.103   4.436  12.339 -0.7374 -1.5999 -2.4564
 5522TIP3   OH237980   6.779   0.745  12.638  0.5285  0.2407 -0.0540
 5522TIP3    H137981   6.827   0.716  12.715  2.8198  0.6741 -1.2288
 5522TIP3    H237982   6.838   0.728  12.565 -1.3961  0.2282 -1.6929
 5523TIP3   OH237983   4.472   2.166  14.031  0.3047 -0.5182 -0.0657
 5523TIP3    H137984   4.502   2.117  14.107 -1.8508 -0.3658  0.9447
 5523TIP3    H237985   4.395   2.118  14.000  0.2017  0.3116 -1.1750
 5524TIP3   OH237986   5.906   6.222  13.227 -0.3741 -0.0556 -0.2387
 5524TIP3    H137987   5.983   6.278  13.220  0.6680 -1.3694  0.3099
 5524TIP3    H237988   5.930   6.141  13.183 -1.4037 -0.5349  0.0319
 5525TIP3   OH237989   6.775   5.708   4.383  0.3640  0.4505  0.1801
 5525TIP3    H137990   6.808   5.741   4.300 -0.9957  0.7605 -0.2576
 5525TIP3    H237991   6.763   5.614   4.369 -0.9954  0.6888 -0.3872
 5526TIP3   OH237992   6.655   2.993   5.364 -0.0935  0.5193 -0.2065
 5526TIP3    H137993   6.593   3.056   5.399  0.2683  0.5013  0.4834
 5526TIP3    H237994   6.741   3.027   5.390  0.0981 -0.3460  0.3426
 5527TIP3   OH237995   4.499   3.168   5.396  0.4915  0.2663 -0.1873
 5527TIP3    H137996   4.459   3.133   5.476 -0.0577  0.9930 -0.1424
 5527TIP3    H237997   4.512   3.261   5.415 -1.1789  0.8172 -1.5427
 5528TIP3   OH237998   2.322   5.864   2.652  0.2354 -0.0665 -0.5532
 5528TIP3    H137999   2.227   5.868   2.661  0.2447  0.0507 -0.5030
 5528TIP3    H238000   2.339   5.883   2.560  0.2250  0.1618 -0.5081
 5529TIP3   OH238001   1.362   1.458  14.515 -0.2340 -0.7246  0.9412
 5529TIP3    H138002   1.435   1.500  14.469  0.6242 -1.3744  1.6766
 5529TIP3    H238003   1.286   1.474  14.459  0.4608 -0.0010  0.1799
 5530TIP3   OH238004   3.804   1.906  16.416 -0.6614 -0.1644  0.2441
 5530TIP3    H138005   3.742   1.870  16.352  1.4038 -1.4400 -1.1751
 5530TIP3    H238006   3.868   1.954  16.363  1.1536 -1.3072  1.2718
 5531TIP3   OH238007   6.470   2.496   5.858  0.5315  0.2181  0.3559
 5531TIP3    H138008   6.426   2.483   5.942 -1.1111 -0.6690 -0.5724
 5531TIP3    H238009   6.400   2.523   5.798  1.8736  2.0945 -0.4804
 5532TIP3   OH238010   1.345   1.542  15.396 -0.3890 -0.1078  0.1730
 5532TIP3    H138011   1.272   1.498  15.352  1.4968 -1.8175 -1.4900
 5532TIP3    H238012   1.385   1.595  15.327  2.0479 -2.0693 -0.0624
 5533TIP3   OH238013   5.040   0.592  13.652  0.2989  0.7210 -0.1843
 5533TIP3    H138014   4.994   0.612  13.571 -0.6621  1.5384  0.5473
 5533TIP3    H238015   5.123   0.640  13.644 -0.5720  2.3476  0.0929
 5534TIP3   OH238016   4.927   2.425  16.472 -0.4855  0.0292  0.1834
 5534TIP3    H138017   4.885   2.399  16.390 -0.4032 -1.8852  0.6920
 5534TIP3    H238018   5.016   2.450  16.447 -0.1263 -1.5355 -0.2325
 5535TIP3   OH238019   0.377   6.573   0.114 -0.1425  0.1229  0.9555
 5535TIP3    H138020   0.438   6.509   0.078  0.0758  1.6415 -1.6255
 5535TIP3    H238021   0.291   6.542   0.087 -0.3768 -0.8172  2.6498
 5536TIP3   OH238022   1.314   4.058   1.328 -0.7556  0.4654  0.4049
 5536TIP3    H138023   1.319   4.020   1.415 -1.9418  1.5734  1.0058
 5536TIP3    H238024   1.259   3.998   1.278 -0.3304 -0.0148  0.5179
 5537TIP3   OH238025   0.933   1.271   0.570 -0.3957  0.0993 -0.1868
 5537TIP3    H138026   0.938   1.360   0.536  0.7109  0.3965  0.6991
 5537TIP3    H238027   0.865   1.229   0.517 -1.4083  1.6502 -0.1711
 5538TIP3   OH238028   0.006   2.410  11.391  0.2581  0.1876 -0.1647
 5538TIP3    H138029   0.060   2.410  11.469 -0.1357  1.4821  0.1461
 5538TIP3    H238030  -0.076   2.370  11.418  0.1220  0.6343  0.1066
 5539TIP3   OH238031   3.958   5.653   2.044 -0.3943 -0.4075  0.8778
 5539TIP3    H138032   4.024   5.693   2.101  0.8226  0.6797 -1.2030
 5539TIP3    H238033   3.912   5.591   2.101  2.7674 -1.6481  2.3074
 5540TIP3   OH238034   5.225   2.253  11.519  0.2352 -0.1679  0.1616
 5540TIP3    H138035   5.315   2.225  11.536  0.2711 -0.9931 -1.2605
 5540TIP3    H238036   5.232   2.346  11.497  0.3630  0.5508  2.8442
 5541TIP3   OH238037   0.341   2.453  16.958 -0.1634  0.6975 -0.6156
 5541TIP3    H138038   0.285   2.491  17.025 -0.2635  1.0882 -0.9135
 5541TIP3    H238039   0.297   2.371  16.933 -0.4885  0.8926 -0.6911
 5542TIP3   OH238040   3.568   5.953   3.503  0.5602  0.1164 -0.1964
 5542TIP3    H138041   3.540   5.908   3.423 -0.6787  2.1247 -0.9751
 5542TIP3    H238042   3.501   5.931   3.567 -1.6399  2.8600 -1.3460
 5543TIP3   OH238043   0.945   2.997   1.824 -0.4686 -0.2670  0.1253
 5543TIP3    H138044   0.864   3.048   1.832  0.0757  0.4971  0.8964
 5543TIP3    H238045   0.943   2.936   1.897 -0.7422 -0.8504 -0.3517
 5544TIP3   OH238046   5.291   3.704   1.150 -0.7030  0.7806  0.1532
 5544TIP3    H138047   5.379   3.708   1.186 -0.3322 -1.6341 -0.3741
 5544TIP3    H238048   5.234   3.710   1.226  0.0206 -1.3309  0.9255
 5545TIP3   OH238049   6.300   0.718   3.789  0.0488  0.2951 -0.6778
 5545TIP3    H138050   6.278   0.653   3.855  1.0345 -1.2225 -1.7541
 5545TIP3    H238051   6.348   0.668   3.722 -0.8979  1.7376 -2.5254
 5546TIP3   OH238052   3.480   0.253  15.616 -0.3044 -0.0553  0.7997
 5546TIP3    H138053   3.551   0.303  15.576 -0.6506  0.3874  0.7263
 5546TIP3    H238054   3.416   0.242  15.546 -0.9040  0.7083  1.2068
 5547TIP3   OH238055   5.419   0.441   4.451  1.0451 -0.0415  0.0425
 5547TIP3    H138056   5.377   0.378   4.392  1.5289 -0.7141  0.4026
 5547TIP3    H238057   5.360   0.446   4.527  1.2672 -0.4746  0.2490
 5548TIP3   OH238058   1.256   5.703  16.367 -0.4709  0.2179 -0.2598
 5548TIP3    H138059   1.351   5.716  16.358 -0.6971  1.2809 -1.3097
 5548TIP3    H238060   1.243   5.611  16.344  0.3528 -0.0732  0.3748
 5549TIP3   OH238061   6.004   5.152   1.668  0.2703  0.4503 -0.5056
 5549TIP3    H138062   6.083   5.192   1.704  2.0257 -1.9572 -1.4282
 5549TIP3    H238063   5.999   5.067   1.711  0.0488 -0.7433 -2.7510
 5550TIP3   OH238064   5.857   3.634   1.200  0.0922 -0.0057 -0.6256
 5550TIP3    H138065   5.941   3.589   1.212  0.0670  0.2424  0.6592
 5550TIP3    H238066   5.870   3.720   1.241 -1.1777 -0.4389  0.7381
 5551TIP3   OH238067   4.455   5.456  10.510  0.4126 -0.4193  0.2530
 5551TIP3    H138068   4.377   5.501  10.479  0.8662  0.3241  0.1583
 5551TIP3    H238069   4.456   5.374  10.462  0.6616  0.3529 -1.1222
 5552TIP3   OH238070   4.657   3.638  15.852  0.0948  0.0494 -0.1945
 5552TIP3    H138071   4.626   3.657  15.763 -0.6411 -0.6137 -0.0876
 5552TIP3    H238072   4.717   3.563  15.840  1.0232  0.7852 -0.2885
 5553TIP3   OH238073   0.982   3.093   5.094  0.4797  0.0781  0.3050
 5553TIP3    H138074   1.035   3.171   5.110  0.5305  0.2180 -0.5097
 5553TIP3    H238075   1.045   3.021   5.093  0.8199  0.3497 -1.5819
 5554TIP3   OH238076   1.012   2.583   2.213  0.0919  0.3413  0.0014
 5554TIP3    H138077   1.015   2.629   2.297  0.4039  2.2472 -0.9812
 5554TIP3    H238078   0.927   2.608   2.175  0.5065  0.5970 -0.7879
 5555TIP3   OH238079   3.965   3.000  11.825 -0.4637 -0.3805 -0.2182
 5555TIP3    H138080   3.882   3.023  11.868  0.0290 -0.6244  0.8873
 5555TIP3    H238081   4.027   3.064  11.857  0.5032 -2.0604  1.4618
 5556TIP3   OH238082   5.032   0.108  14.741  0.2035  0.2182 -0.1162
 5556TIP3    H138083   4.943   0.098  14.705 -0.1041  1.3577  0.2813
 5556TIP3    H238084   5.088   0.117  14.664  0.0207 -0.7166 -0.3784
 5557TIP3   OH238085   3.017   5.857  14.304  0.1078  0.0396 -0.3547
 5557TIP3    H138086   3.095   5.849  14.250  1.5991  0.9895  1.5651
 5557TIP3    H238087   2.944   5.842  14.243  1.7275 -0.2256 -2.3205
 5558TIP3   OH238088   5.331   5.976  15.963 -0.2595 -0.7002  0.6128
 5558TIP3    H138089   5.338   5.897  16.017  0.6012  0.0530  1.6634
 5558TIP3    H238090   5.420   6.011  15.963 -0.8352  0.8310  1.0611
 5559TIP3   OH238091   2.345   2.710   3.342 -0.5343  0.5846  0.0298
 5559TIP3    H138092   2.425   2.670   3.309  0.6444  2.8844 -0.0956
 5559TIP3    H238093   2.297   2.737   3.264 -1.5686 -0.9625  0.1000
 5560TIP3   OH238094   1.351   2.205  14.639 -0.0819  0.0151  0.1062
 5560TIP3    H138095   1.414   2.275  14.617 -0.8154  0.6184 -0.1222
 5560TIP3    H238096   1.340   2.211  14.733 -0.1082  0.1854  0.0934
 5561TIP3   OH238097   1.629   4.587  14.658  0.1649  0.2965 -0.1830
 5561TIP3    H138098   1.637   4.613  14.750 -1.7528  1.0244 -0.1692
 5561TIP3    H238099   1.668   4.659  14.609  1.0331 -0.0108  0.0503
 5562TIP3   OH238100   4.389   0.881  17.277  0.2189 -0.3371  0.2491
 5562TIP3    H138101   4.439   0.805  17.246  0.9477  0.3390 -0.2612
 5562TIP3    H238102   4.374   0.934  17.198  1.0872  0.8292  0.8387
 5563TIP3   OH238103   4.824   0.791  17.216  0.6420  0.4509  0.1560
 5563TIP3    H138104   4.900   0.757  17.169  0.0614 -1.0685  0.2627
 5563TIP3    H238105   4.850   0.792  17.308  0.8955  0.9590  0.0794
 5564TIP3   OH238106   0.437   6.748   1.344 -0.2779 -0.0306  0.0732
 5564TIP3    H138107   0.368   6.798   1.388  0.6474 -0.6928  2.3757
 5564TIP3    H238108   0.390   6.696   1.279 -1.6937  1.0317  0.1949
 5565TIP3   OH238109   2.037   4.845   2.577 -0.0130  0.1803  0.5628
 5565TIP3    H138110   2.044   4.840   2.673 -1.6125 -1.5741  0.6374
 5565TIP3    H238111   1.995   4.763   2.552  0.3840  0.6066 -1.6723
 5566TIP3   OH238112   3.996   0.515  11.036  0.0427  0.4293 -0.0743
 5566TIP3    H138113   4.025   0.446  10.976  1.4124 -0.2166  1.2803
 5566TIP3    H238114   4.054   0.589  11.018 -1.5146  1.3759 -1.6277
 5567TIP3   OH238115   6.668   0.422  15.132 -0.2993  0.0852 -0.3622
 5567TIP3    H138116   6.639   0.471  15.209 -0.9793 -0.1128 -0.4814
 5567TIP3    H238117   6.726   0.354  15.167 -1.1268 -0.4210  0.0629
 5568TIP3   OH238118   2.875   5.636   0.933  0.6078  0.0320  0.4035
 5568TIP3    H138119   2.945   5.694   0.961  1.1385  0.6646 -2.0679
 5568TIP3    H238120   2.814   5.636   1.007  0.5336  3.8139  0.5397
 5569TIP3   OH238121   4.061   6.588  11.341 -0.4903 -0.1694  0.2537
 5569TIP3    H138122   4.101   6.673  11.321 -2.9232  2.3927  4.5962
 5569TIP3    H238123   3.967   6.603  11.333 -1.0021 -3.0156 -0.2475
 5570TIP3   OH238124   1.185   6.741   2.706 -0.1180  0.1796 -0.5274
 5570TIP3    H138125   1.097   6.751   2.744 -0.3944 -0.1708 -1.0732
 5570TIP3    H238126   1.240   6.718   2.781 -0.0722  2.4456  0.2245
 5571TIP3   OH238127   0.742   1.837  12.104  0.5213 -0.4447 -0.1797
 5571TIP3    H138128   0.658   1.846  12.150 -1.7892 -0.5910 -3.9208
 5571TIP3    H238129   0.749   1.744  12.083  0.0997 -0.0615 -2.2676
 5572TIP3   OH238130   2.058   6.101  14.744  0.0821 -0.6838 -0.4963
 5572TIP3    H138131   2.049   6.009  14.719 -1.0560 -0.5693 -0.5891
 5572TIP3    H238132   2.090   6.144  14.665 -1.6578 -0.6398 -1.2433
 5573TIP3   OH238133   2.116   2.884  12.706 -0.0701  0.0894  0.4609
 5573TIP3    H138134   2.186   2.875  12.771  0.2500  0.1029  0.1185
 5573TIP3    H238135   2.091   2.793  12.685  0.4598  0.0610 -0.0758
 5574TIP3   OH238136   1.909   1.062   0.156 -0.2457 -0.5113  0.2929
 5574TIP3    H138137   1.873   1.004   0.223 -0.9110 -0.0214  0.3733
 5574TIP3    H238138   1.863   1.038   0.076 -0.7836  0.1200  0.3986
 5575TIP3   OH238139   1.214   3.082   4.903  0.7370 -0.3184  0.6954
 5575TIP3    H138140   1.250   3.162   4.941  1.1159  0.1854 -0.6433
 5575TIP3    H238141   1.271   3.012   4.936  2.2938  0.3283 -0.4611
 5576TIP3   OH238142   2.978   5.565  17.291  0.3811  0.0425  0.3943
 5576TIP3    H138143   2.917   5.601  17.355 -0.3445 -1.0079  0.3127
 5576TIP3    H238144   2.925   5.549  17.213  0.6633 -1.1931  0.4254
 5577TIP3   OH238145   2.092   3.507   4.715  0.4229 -0.2162  0.1268
 5577TIP3    H138146   2.077   3.569   4.787  0.9844 -0.3920  0.4067
 5577TIP3    H238147   2.005   3.489   4.680  0.2993  1.2329 -0.3914
 5578TIP3   OH238148   0.105   0.392  11.292 -0.9223 -0.4744 -0.0796
 5578TIP3    H138149   0.123   0.299  11.280  3.0248  0.1148 -0.1807
 5578TIP3    H238150   0.085   0.424  11.204  2.3394 -0.5734 -0.9865
 5579TIP3   OH238151   2.557   6.351  14.621  0.3191  0.4196 -0.0202
 5579TIP3    H138152   2.570   6.445  14.605  0.0427  0.6111  0.8461
 5579TIP3    H238153   2.573   6.340  14.714  0.4256 -0.4184 -0.1266
 5580TIP3   OH238154   2.055   0.825   3.463  0.0931 -0.4275 -0.0418
 5580TIP3    H138155   1.999   0.748   3.451 -1.1216  0.4564 -0.2245
 5580TIP3    H238156   2.051   0.871   3.379  1.5018 -0.5855 -0.2193
 5581TIP3   OH238157   5.885   6.424   2.221 -0.7465  0.1234  0.0395
 5581TIP3    H138158   5.845   6.444   2.306 -0.8097  1.9330 -0.3792
 5581TIP3    H238159   5.961   6.481   2.215  0.4095 -1.3748 -0.3305
 5582TIP3   OH238160   3.518   5.726  15.017 -0.4017 -0.4135  0.7181
 5582TIP3    H138161   3.425   5.736  14.996 -0.5667  0.0071  1.6265
 5582TIP3    H238162   3.557   5.693  14.936 -1.2552 -0.1228  0.1762
 5583TIP3   OH238163   2.407   1.450  11.831  0.1507  0.0075  0.2670
 5583TIP3    H138164   2.364   1.462  11.747 -0.8661  1.0393  0.8948
 5583TIP3    H238165   2.497   1.426  11.810  0.4030  1.9573 -1.1573
 5584TIP3   OH238166   1.088   4.818   2.276 -0.0722  0.1422  0.2308
 5584TIP3    H138167   1.031   4.855   2.209 -1.5594 -1.1568  0.7059
 5584TIP3    H238168   1.033   4.815   2.355  0.2233 -2.1973  0.4215
 5585TIP3   OH238169   2.404   0.125  15.482 -0.4699  0.1129  0.1873
 5585TIP3    H138170   2.414   0.030  15.489 -1.1477 -0.0077 -0.4473
 5585TIP3    H238171   2.349   0.138  15.405 -1.1102  0.9802  0.7733
 5586TIP3   OH238172   3.530   4.374  13.401  0.1837  0.1737  0.0952
 5586TIP3    H138173   3.516   4.289  13.442  1.7707 -1.3781 -2.3104
 5586TIP3    H238174   3.442   4.402  13.374 -0.1885 -1.7501 -0.8899
 5587TIP3   OH238175   4.888   1.027   0.372  0.1670  0.4690 -0.0395
 5587TIP3    H138176   4.902   1.111   0.328  0.6144  0.0673 -0.6806
 5587TIP3    H238177   4.833   1.048   0.447  0.8598  1.4614  0.2118
 5588TIP3   OH238178   5.871   5.214   0.915 -0.2951  0.5004  0.4817
 5588TIP3    H138179   5.939   5.225   0.850  0.0603 -2.4070  0.2098
 5588TIP3    H238180   5.908   5.151   0.978 -2.8209 -1.6442  0.0096
 5589TIP3   OH238181   4.903   3.707  13.369 -0.1566 -0.2015  0.3775
 5589TIP3    H138182   4.845   3.779  13.396 -0.0457  0.3669 -0.8125
 5589TIP3    H238183   4.847   3.649  13.318  0.1096 -0.1215 -0.0116
 5590TIP3   OH238184   1.769   0.223  12.316 -0.3339  0.6024 -0.5960
 5590TIP3    H138185   1.810   0.202  12.399 -1.8887 -0.2898 -0.0106
 5590TIP3    H238186   1.712   0.297  12.336 -1.3486 -0.1493 -0.6527
 5591TIP3   OH238187   0.868   2.958   5.340  0.0663 -0.0239 -0.2235
 5591TIP3    H138188   0.957   2.923   5.349  0.3681  0.5376 -0.9379
 5591TIP3    H238189   0.872   3.015   5.264 -0.5451  1.1487  0.5955
 5592TIP3   OH238190   0.781   0.131   2.236  0.1299 -0.1699  0.2445
 5592TIP3    H138191   0.752   0.040   2.226  0.5870 -0.5757  2.1590
 5592TIP3    H238192   0.719   0.170   2.297  2.9056 -0.8440  3.8054
 5593TIP3   OH238193   1.628   3.514  13.435  0.7141  0.4232  0.0017
 5593TIP3    H138194   1.637   3.426  13.472  3.6182  0.2500 -0.8661
 5593TIP3    H238195   1.703   3.562  13.471  0.6786  1.7516 -1.6133
 5594TIP3   OH238196   5.638   0.356   2.335 -0.4892  0.1558  0.1987
 5594TIP3    H138197   5.661   0.416   2.407 -1.1845 -2.4631  2.7803
 5594TIP3    H238198   5.689   0.277   2.352  0.6613 -0.0121 -3.2910
 5595TIP3   OH238199   0.728   0.098  13.375  0.5444  0.1829  0.0356
 5595TIP3    H138200   0.729   0.044  13.455  4.1525  0.2725  0.2187
 5595TIP3    H238201   0.819   0.128  13.366 -0.0179  1.2164 -3.4341
 5596TIP3   OH238202   3.119   3.946  13.155  0.2192  0.6885  0.1603
 5596TIP3    H138203   3.032   3.977  13.180 -0.6500 -0.9191 -0.6942
 5596TIP3    H238204   3.139   3.994  13.074  0.1059  1.0413  0.3415
 5597TIP3   OH238205   0.005   3.464  15.173  0.5513  0.1000 -0.6434
 5597TIP3    H138206   0.003   3.463  15.269 -1.0720 -1.3033 -0.6506
 5597TIP3    H238207  -0.027   3.551  15.149  0.4131  0.2594  0.0955
 5598TIP3   OH238208   5.598   3.829   5.420  0.6276 -0.0386  0.1864
 5598TIP3    H138209   5.650   3.863   5.493 -1.6640  0.9329  1.4671
 5598TIP3    H238210   5.511   3.813   5.458 -0.7250  0.7123 -2.3647
 5599TIP3   OH238211   0.126   5.416  16.570 -0.1208 -0.0110 -0.2187
 5599TIP3    H138212   0.089   5.394  16.655  1.5500  0.1209  0.5717
 5599TIP3    H238213   0.142   5.332  16.528 -0.8266 -0.0795 -0.3645
 5600TIP3   OH238214   2.984   4.917   3.249 -0.6668 -0.3756  0.1040
 5600TIP3    H138215   2.970   4.956   3.162  0.6890 -2.0899 -0.9473
 5600TIP3    H238216   2.967   4.988   3.310  0.1322  1.4141 -1.6493
 5601TIP3   OH238217   2.541   2.775   4.585 -0.1455 -0.1320 -0.4954
 5601TIP3    H138218   2.557   2.785   4.679 -1.6735 -2.0418  0.0424
 5601TIP3    H238219   2.625   2.745   4.550  1.2256  3.0477 -0.2953
 5602TIP3   OH238220   4.958   6.148  13.977  0.1666 -0.1794  0.0542
 5602TIP3    H138221   4.892   6.079  13.967  1.7347 -2.0613  1.8291
 5602TIP3    H238222   4.997   6.157  13.890 -0.8561 -0.6772 -0.4763
 5603TIP3   OH238223   6.656   0.671  12.048  0.1181  0.2426 -0.8773
 5603TIP3    H138224   6.594   0.663  12.121  0.7027 -3.8648 -0.5744
 5603TIP3    H238225   6.602   0.696  11.974 -1.4485 -0.3985 -0.0103
 5604TIP3   OH238226   2.544   4.169  11.828 -0.0341  0.1468 -0.1293
 5604TIP3    H138227   2.624   4.217  11.806  0.3969  0.3674  1.7660
 5604TIP3    H238228   2.476   4.236  11.829  0.0536  0.2362 -0.1675
 5605TIP3   OH238229   1.828   1.754  11.822 -0.8781 -0.1199  0.7230
 5605TIP3    H138230   1.877   1.673  11.833  1.2879  1.1528  1.1190
 5605TIP3    H238231   1.840   1.778  11.730  1.8973  1.6574  1.4076
 5606TIP3   OH238232   5.694   1.707  14.560  0.4017  0.1365 -0.1430
 5606TIP3    H138233   5.753   1.635  14.537  0.4628  0.4502 -1.0276
 5606TIP3    H238234   5.623   1.665  14.608  1.2856 -0.2561  0.8532
 5607TIP3   OH238235   2.483   1.720   5.224 -0.2508  0.2542 -0.0668
 5607TIP3    H138236   2.484   1.816   5.224  1.7663  0.2819  0.9783
 5607TIP3    H238237   2.492   1.697   5.131  2.7388  1.1766 -0.1232
 5608TIP3   OH238238   5.233   3.507  13.968 -0.0917  0.0912 -0.0204
 5608TIP3    H138239   5.306   3.522  13.907 -0.2627 -0.9496 -0.5130
 5608TIP3    H238240   5.176   3.446  13.921 -0.7282  0.0460  0.8023
 5609TIP3   OH238241   1.192   2.927  16.407 -0.1057 -0.1888  0.8468
 5609TIP3    H138242   1.160   2.996  16.349  1.9167  0.2739  0.2041
 5609TIP3    H238243   1.175   2.846  16.359  1.6123  0.1912 -0.5176
 5610TIP3   OH238244   1.244   1.978  12.973 -0.0130 -0.0935  0.3867
 5610TIP3    H138245   1.175   2.001  13.035 -0.2888 -0.4872  0.2237
 5610TIP3    H238246   1.280   2.062  12.946 -0.6597  0.1304  0.2067
 5611TIP3   OH238247   1.766   2.536   5.718  0.1930 -0.4108 -0.3848
 5611TIP3    H138248   1.763   2.521   5.813  0.2117 -0.6651 -0.4229
 5611TIP3    H238249   1.727   2.457   5.681  1.0322 -0.7165 -0.6215
 5612TIP3   OH238250   3.169   1.140   0.211  0.2114  0.6983  0.0721
 5612TIP3    H138251   3.139   1.231   0.209 -0.9552  0.3184 -1.9667
 5612TIP3    H238252   3.110   1.094   0.151  1.0768 -1.3210  0.6957
 5613TIP3   OH238253   4.607   2.505  11.756 -0.0191 -0.0363  0.0369
 5613TIP3    H138254   4.677   2.566  11.780  1.7249 -2.1820  0.6785
 5613TIP3    H238255   4.600   2.512  11.661 -0.4769  1.7526  0.1636
 5614TIP3   OH238256   5.752   1.895  10.743 -0.0464  0.2355 -0.1436
 5614TIP3    H138257   5.803   1.828  10.698  0.5602  1.5885 -1.5842
 5614TIP3    H238258   5.805   1.975  10.735 -0.9296  0.9884  1.1499
 5615TIP3   OH238259   5.212   3.294  14.942  0.1560  0.2400  0.1554
 5615TIP3    H138260   5.298   3.290  14.900  0.2062 -2.0537  0.3573
 5615TIP3    H238261   5.231   3.299  15.035  0.0708 -0.2691  0.2005
 5616TIP3   OH238262   3.864   4.678  11.029  0.5698  0.2924  0.4211
 5616TIP3    H138263   3.874   4.583  11.030  1.9114  0.4187  1.1762
 5616TIP3    H238264   3.786   4.695  11.081 -0.0712 -0.4210 -0.2861
 5617TIP3   OH238265   1.355   4.138   5.800  0.2324 -0.1565 -0.5746
 5617TIP3    H138266   1.306   4.162   5.878 -2.3930  0.6984 -2.3347
 5617TIP3    H238267   1.361   4.043   5.803  3.4104 -0.0534  2.3432
 5618TIP3   OH238268   6.612   6.561  14.087 -0.2517  0.2373 -0.5942
 5618TIP3    H138269   6.653   6.567  14.001  0.6910  0.9348 -0.1107
 5618TIP3    H238270   6.549   6.633  14.089 -0.7380 -0.1685 -0.9252
 5619TIP3   OH238271   1.076   6.590  11.725  0.3936 -0.0011  0.6184
 5619TIP3    H138272   1.110   6.503  11.744 -0.9303 -0.7321 -0.2244
 5619TIP3    H238273   1.127   6.621  11.650 -0.7141 -1.0710 -0.6186
 5620TIP3   OH238274   5.190   4.155  13.817 -0.1211 -0.5201  0.0737
 5620TIP3    H138275   5.191   4.203  13.734  0.1154 -0.5103  0.0809
 5620TIP3    H238276   5.209   4.064  13.792  1.2293 -0.3136  0.2358
 5621TIP3   OH238277   1.852   0.682  14.622 -0.4273 -0.1748 -0.7587
 5621TIP3    H138278   1.855   0.720  14.534  1.0217 -0.7238 -0.9638
 5621TIP3    H238279   1.942   0.655  14.640 -0.7977 -0.5112  0.7072
 5622TIP3   OH238280   3.005   4.882   3.918  0.3604  0.4182  0.0841
 5622TIP3    H138281   3.075   4.846   3.972 -0.4464  0.8481  1.4558
 5622TIP3    H238282   2.943   4.920   3.980 -1.0209  0.2060 -1.0923
 5623TIP3   OH238283   3.457   6.219   0.770 -0.2679  0.0411 -0.4378
 5623TIP3    H138284   3.481   6.272   0.694  0.3937 -2.4633 -2.0914
 5623TIP3    H238285   3.361   6.226   0.774 -0.5546 -1.2990 -2.8024
 5624TIP3   OH238286   5.738   5.897   0.103  0.2149 -0.6844  0.1296
 5624TIP3    H138287   5.834   5.901   0.108  0.3159 -1.2826 -0.9824
 5624TIP3    H238288   5.719   5.808   0.075 -0.5439  0.0144 -1.7633
 5625TIP3   OH238289   1.383   6.225   2.844  0.2428 -0.2674 -0.2283
 5625TIP3    H138290   1.340   6.140   2.854  1.0328 -0.8218 -1.3069
 5625TIP3    H238291   1.343   6.280   2.911 -0.9558 -1.2199 -0.1234
 5626TIP3   OH238292   0.393   4.671   1.031  0.0001  0.3633 -0.2211
 5626TIP3    H138293   0.393   4.767   1.041  1.1943  0.3998 -0.4588
 5626TIP3    H238294   0.480   4.650   0.998  0.9217 -1.1089  2.7670
 5627TIP3   OH238295   2.266   1.786  11.551  0.0389 -0.7259  0.3698
 5627TIP3    H138296   2.227   1.834  11.625 -3.7622  0.6496 -2.2131
 5627TIP3    H238297   2.360   1.798  11.562 -0.4798  2.1706  3.2339
 5628TIP3   OH238298   1.615   1.658   3.256 -0.6318  0.0764  0.0605
 5628TIP3    H138299   1.668   1.718   3.204 -0.6658 -0.3237 -0.4428
 5628TIP3    H238300   1.659   1.655   3.341 -0.9663  1.2810  0.3051
 5629TIP3   OH238301   5.641   6.365   4.824  0.0974 -0.0554  0.5663
 5629TIP3    H138302   5.682   6.332   4.905 -2.1210 -0.8352  1.4380
 5629TIP3    H238303   5.650   6.293   4.762  0.3968 -0.0637  0.6162
 5630TIP3   OH238304   2.706   0.976   0.580 -0.7032 -0.3038  0.5955
 5630TIP3    H138305   2.785   0.959   0.530 -1.4239  0.4555 -0.8433
 5630TIP3    H238306   2.720   1.062   0.619 -0.8382 -0.1619  0.3268
 5631TIP3   OH238307   3.355   0.273  12.083 -0.9801 -0.1257  0.3026
 5631TIP3    H138308   3.284   0.333  12.106 -0.8684  0.1735 -0.1209
 5631TIP3    H238309   3.435   0.324  12.098 -0.9244  0.6718 -2.2514
 5632TIP3   OH238310   2.189   5.076  11.789 -0.0920  0.2360  0.3108
 5632TIP3    H138311   2.275   5.118  11.786 -0.2798  0.6331  0.4305
 5632TIP3    H238312   2.177   5.038  11.702  0.6216 -0.6649  0.5863
 5633TIP3   OH238313   3.024   1.096  14.830  0.0338 -0.4539 -0.4123
 5633TIP3    H138314   2.938   1.138  14.831  0.3833  0.6966  4.7534
 5633TIP3    H238315   3.086   1.169  14.833  1.0268 -1.3142  0.1689
 5634TIP3   OH238316   5.510   0.603   5.775 -0.3588  0.2555  0.7279
 5634TIP3    H138317   5.575   0.548   5.820  0.3473  2.2022  2.2343
 5634TIP3    H238318   5.561   0.657   5.716 -0.9281  0.0473  0.0287
 5635TIP3   OH238319   5.816   0.529   0.305 -0.1257  0.2738  0.1199
 5635TIP3    H138320   5.845   0.574   0.385 -0.8484  1.3072 -0.1693
 5635TIP3    H238321   5.881   0.461   0.290 -0.1806 -0.2012  1.8058
 5636TIP3   OH238322   5.839   2.601   0.234  0.0520 -0.2211  0.0615
 5636TIP3    H138323   5.786   2.579   0.310 -0.4962 -2.0694 -0.8034
 5636TIP3    H238324   5.835   2.523   0.178  0.3945  1.0920 -1.8854
 5637TIP3   OH238325   3.887   0.331  14.728 -0.1483 -0.2940 -0.7881
 5637TIP3    H138326   3.845   0.275  14.793  0.0267 -1.6183 -1.7771
 5637TIP3    H238327   3.826   0.333  14.655 -0.0881  0.7225 -0.8262
 5638TIP3   OH238328   5.172   3.442   5.336 -0.4992  0.3188 -0.2098
 5638TIP3    H138329   5.172   3.348   5.355 -1.1547  0.2698 -0.4150
 5638TIP3    H238330   5.222   3.450   5.255  0.0616  0.2221  0.1179
 5639TIP3   OH238331   0.062   4.267   1.978  0.1105  0.3595  0.1563
 5639TIP3    H138332   0.109   4.331   2.031  0.2402  0.2655  0.1550
 5639TIP3    H238333   0.011   4.320   1.916  0.2407  0.4589  0.1352
 5640TIP3   OH238334   0.420   1.452  13.634  0.3297  0.6171  0.0557
 5640TIP3    H138335   0.340   1.438  13.584  1.0297 -1.5989 -0.5933
 5640TIP3    H238336   0.486   1.475  13.569  0.2560  2.4553  0.5864
 5641TIP3   OH238337   3.068   1.222  11.796 -0.2944 -0.1107  0.5681
 5641TIP3    H138338   2.991   1.225  11.853  0.3391 -0.3601  1.4547
 5641TIP3    H238339   3.037   1.257  11.713 -1.9442 -2.2371  0.2215
 5642TIP3   OH238340   0.258   5.633   5.021  0.2353 -0.0519  0.0601
 5642TIP3    H138341   0.335   5.685   5.046 -0.2090 -0.0949  1.6445
 5642TIP3    H238342   0.258   5.560   5.083 -1.7361  0.5915  0.8955
 5643TIP3   OH238343   3.394   0.053  12.672  0.0422  0.3642 -0.3242
 5643TIP3    H138344   3.452   0.114  12.717 -0.8291  0.8563  0.1647
 5643TIP3    H238345   3.397   0.080  12.580  1.5313 -0.4064 -0.5396
 5644TIP3   OH238346   5.333   0.003  16.361  0.0484 -0.8284  0.2889
 5644TIP3    H138347   5.282  -0.076  16.344 -1.0712 -0.1139  0.2133
 5644TIP3    H238348   5.425  -0.026  16.360 -0.3798 -2.3050  1.2898
 5645TIP3   OH238349   2.075   2.798  16.841 -0.2417 -0.1381 -0.3725
 5645TIP3    H138350   2.068   2.837  16.753  0.9855  1.2276  0.0931
 5645TIP3    H238351   2.080   2.704  16.825 -0.1576  0.0814 -1.7586
 5646TIP3   OH238352   0.443   6.532  16.222  0.1301 -0.1852  0.2932
 5646TIP3    H138353   0.429   6.443  16.254  0.0695 -0.2255  0.1561
 5646TIP3    H238354   0.419   6.588  16.296  3.3538 -0.3374  1.6099
 5647TIP3   OH238355   3.671   5.879   2.933 -0.1414  0.2172  0.3751
 5647TIP3    H138356   3.588   5.831   2.938  0.3161 -0.4718  1.8206
 5647TIP3    H238357   3.735   5.813   2.907  0.2266  0.3745  0.8765
 5648TIP3   OH238358   0.584   0.393  14.565  0.2395  0.0749 -0.2066
 5648TIP3    H138359   0.641   0.455  14.609 -2.0696  2.6467 -0.6118
 5648TIP3    H238360   0.580   0.318  14.625  1.3521  1.2252  1.3967
 5649TIP3   OH238361   4.195   4.757   0.975  0.5768  0.3085  0.3489
 5649TIP3    H138362   4.103   4.753   0.999 -0.0408  1.3761 -1.6655
 5649TIP3    H238363   4.231   4.672   1.003 -1.1612 -0.4033  0.5183
 5650TIP3   OH238364   5.810   4.561  13.569  0.4708 -0.0080  0.3941
 5650TIP3    H138365   5.828   4.568  13.663  1.1854  0.4105  0.2344
 5650TIP3    H238366   5.760   4.480  13.561 -0.1143  0.2530  1.2043
 5651TIP3   OH238367   6.023   5.355   2.477 -0.1114  0.1132  0.0926
 5651TIP3    H138368   5.977   5.276   2.449 -0.7076  0.8488 -1.0469
 5651TIP3    H238369   6.061   5.331   2.562 -1.1305 -1.0661  0.2429
 5652TIP3   OH238370   2.730   0.571  15.269 -0.1880  0.0768 -0.1013
 5652TIP3    H138371   2.753   0.656  15.231  0.5343 -0.1974 -0.3082
 5652TIP3    H238372   2.769   0.507  15.210 -3.0599 -0.5225 -1.5069
 5653TIP3   OH238373   1.139   2.551  16.357  0.1655 -0.1197 -0.0666
 5653TIP3    H138374   1.150   2.459  16.330 -1.9612 -0.2436 -0.7331
 5653TIP3    H238375   1.227   2.579  16.382  1.0353 -2.0796 -0.6621
 5654TIP3   OH238376   3.073   5.573  14.363  0.4984 -0.0908  0.1582
 5654TIP3    H138377   3.049   5.664  14.347  1.4374  0.2304  0.5041
 5654TIP3    H238378   3.136   5.553  14.294 -0.9777 -1.0432 -0.9793
 5655TIP3   OH238379   4.305   6.760   1.674  0.0616 -0.4411  0.2352
 5655TIP3    H138380   4.333   6.715   1.753  0.2424 -0.6548  0.0520
 5655TIP3    H238381   4.236   6.820   1.703 -1.8946 -2.5165  0.1529
 5656TIP3   OH238382   1.611   5.324   5.212 -0.3218  0.5617 -0.5065
 5656TIP3    H138383   1.701   5.295   5.195 -0.5194  0.1032 -0.8080
 5656TIP3    H238384   1.621   5.412   5.249  0.2667  0.3597 -0.1630
 5657TIP3   OH238385   0.358   1.300  16.412 -0.1065  0.1960  0.2730
 5657TIP3    H138386   0.325   1.217  16.448 -2.2958  0.7175 -0.4258
 5657TIP3    H238387   0.448   1.304  16.443  0.7235 -3.3326 -1.1098
 5658TIP3   OH238388   5.059   1.985  10.475 -0.0350  0.3148  0.5585
 5658TIP3    H138389   5.116   1.953  10.406  0.5231  0.7535  0.8133
 5658TIP3    H238390   5.023   1.906  10.515 -1.3779  0.0546 -1.0524
 5659TIP3   OH238391   1.625   2.742  14.432 -0.2134 -1.1368  0.3219
 5659TIP3    H138392   1.543   2.696  14.451 -2.4184  2.5673  0.9667
 5659TIP3    H238393   1.659   2.767  14.518  0.1797 -0.5190 -0.0028
 5660TIP3   OH238394   2.796   4.704  13.036  0.2071  0.6179 -0.1084
 5660TIP3    H138395   2.760   4.667  12.955 -0.7704 -0.9671  0.9906
 5660TIP3    H238396   2.740   4.779  13.055 -0.4390  0.1675 -0.1843
 5661TIP3   OH238397   1.286   6.519  14.803  0.2655  0.4668  0.6159
 5661TIP3    H138398   1.252   6.463  14.734 -2.4760  1.1621  1.2976
 5661TIP3    H238399   1.324   6.459  14.867 -1.0168 -0.5072  0.4893
 5662TIP3   OH238400   6.211   3.387  11.361 -0.3433  0.2171  0.5319
 5662TIP3    H138401   6.270   3.417  11.292  0.2683 -0.1349  0.8890
 5662TIP3    H238402   6.159   3.464  11.383 -0.9225  0.1858 -0.6899
 5663TIP3   OH238403   6.219   2.907   2.731 -0.2803  0.0401 -0.1537
 5663TIP3    H138404   6.282   2.837   2.714  0.6180  0.8357 -0.1856
 5663TIP3    H238405   6.134   2.868   2.712  0.3931 -0.1297 -3.2561
 5664TIP3   OH238406   5.075   6.705  11.817  0.5469 -0.1266  0.0703
 5664TIP3    H138407   5.041   6.644  11.752 -3.4590  0.6633  1.1810
 5664TIP3    H238408   5.087   6.653  11.896  1.1940 -0.2084 -0.0678
 5665TIP3   OH238409   0.476   4.430   3.632 -0.3468 -0.2298 -0.3597
 5665TIP3    H138410   0.538   4.357   3.630 -0.3159 -0.1906 -1.2534
 5665TIP3    H238411   0.521   4.498   3.682 -0.3150 -0.7635  0.3559
 5666TIP3   OH238412   3.848   5.319   4.269  0.3387 -0.4457  0.0429
 5666TIP3    H138413   3.835   5.224   4.276  1.2752 -0.4553  3.0642
 5666TIP3    H238414   3.773   5.356   4.315  0.2719  0.2909 -0.6370
 5667TIP3   OH238415   4.573   4.173   1.231 -0.0739 -0.5233 -0.4522
 5667TIP3    H138416   4.541   4.112   1.163 -1.8210  1.0133 -1.0976
 5667TIP3    H238417   4.665   4.188   1.208 -0.0708 -1.6341 -1.2556
 5668TIP3   OH238418   3.598   6.405  13.120  0.3938 -0.1578 -0.4192
 5668TIP3    H138419   3.554   6.358  13.050 -0.3538 -0.7961  0.4437
 5668TIP3    H238420   3.691   6.385  13.109  0.1492 -1.2917 -0.4788
 5669TIP3   OH238421   3.236   0.413   1.544  0.2446 -0.0703 -0.0290
 5669TIP3    H138422   3.247   0.508   1.543 -0.7249  0.0595 -1.6721
 5669TIP3    H238423   3.142   0.400   1.548  0.3719 -0.9841  0.2396
 5670TIP3   OH238424   3.994   4.864   1.647 -1.0181 -0.5087 -0.7030
 5670TIP3    H138425   4.034   4.949   1.625 -0.8587  0.1649  1.7533
 5670TIP3    H238426   3.905   4.870   1.614 -1.0518  0.7169 -0.4615
 5671TIP3   OH238427   5.935   0.353   4.836  0.2550 -0.2248 -0.1041
 5671TIP3    H138428   5.917   0.316   4.923  1.5712  0.4478  0.4865
 5671TIP3    H238429   5.892   0.438   4.837  2.4926  0.9609  0.9431
 5672TIP3   OH238430   3.152   5.804   4.854  1.0485  0.7616  0.1323
 5672TIP3    H138431   3.159   5.825   4.761 -0.1957  2.8000  0.4259
 5672TIP3    H238432   3.228   5.749   4.872  2.2504  1.7056 -1.7220
 5673TIP3   OH238433   2.080   4.821   1.627 -0.3654 -0.2361  0.5035
 5673TIP3    H138434   2.156   4.849   1.678  0.9283 -1.7720 -0.4466
 5673TIP3    H238435   2.054   4.899   1.578  0.7631  0.2707  0.6713
 5674TIP3   OH238436   3.427   2.004  16.063  0.9256 -0.4873  0.0579
 5674TIP3    H138437   3.494   2.048  16.011  1.0416 -1.7902 -0.9473
 5674TIP3    H238438   3.444   1.911  16.050 -1.4524 -0.8827 -0.7808
 5675TIP3   OH238439   1.089   6.432   3.246  1.1440  0.2154 -0.7707
 5675TIP3    H138440   1.055   6.435   3.335 -2.0684  1.4917 -1.9197
 5675TIP3    H238441   1.068   6.344   3.215  0.2629  0.4750 -0.9405
 5676TIP3   OH238442   2.137   3.433  15.625 -0.2255  0.1947 -0.2836
 5676TIP3    H138443   2.101   3.416  15.712 -0.0173  0.8175 -0.0667
 5676TIP3    H238444   2.125   3.527  15.613  0.6128  0.2772 -0.5277
 5677TIP3   OH238445   6.099   2.419  11.327 -0.4838  0.4903  0.6465
 5677TIP3    H138446   6.164   2.473  11.281 -2.3295  0.9263 -1.6385
 5677TIP3    H238447   6.066   2.476  11.396 -0.1193  1.1151  0.3200
 5678TIP3   OH238448   2.248   4.849   3.635 -0.1300 -0.8218 -0.1446
 5678TIP3    H138449   2.200   4.835   3.553 -2.2835  1.1939  0.6602
 5678TIP3    H238450   2.179   4.850   3.702  1.2378  0.4752  1.3077
 5679TIP3   OH238451   2.821   0.229  15.990  0.0311  0.1070  0.3220
 5679TIP3    H138452   2.787   0.143  15.963  1.2274 -0.3067  0.0718
 5679TIP3    H238453   2.750   0.268  16.041 -1.0593 -0.4596 -0.6962
 5680TIP3   OH238454   4.215   0.290   1.546  0.6682 -0.2941  0.0655
 5680TIP3    H138455   4.214   0.252   1.634 -1.3781 -1.1558 -0.2839
 5680TIP3    H238456   4.200   0.215   1.487 -1.4467  0.7120 -0.7709
 5681TIP3   OH238457   4.173   4.919   3.282 -0.0879 -0.2710  0.4208
 5681TIP3    H138458   4.126   4.927   3.365  1.6344 -2.1192  1.6574
 5681TIP3    H238459   4.125   4.852   3.233 -0.6128  0.2110  0.2652
 5682TIP3   OH238460   4.643   2.022   4.290 -0.5150  0.5306 -0.0160
 5682TIP3    H138461   4.607   2.014   4.378 -1.4887 -1.8337 -0.5518
 5682TIP3    H238462   4.730   2.061   4.303 -0.4992 -0.0715  2.0087
 5683TIP3   OH238463   6.105   6.489   5.122  0.8333 -0.5738 -0.1385
 5683TIP3    H138464   6.157   6.568   5.107  1.0834 -0.8008 -0.5052
 5683TIP3    H238465   6.019   6.521   5.149  0.0004 -0.0317 -3.0209
 5684TIP3   OH238466   3.734   2.039   0.345  0.0631  0.3497  0.1092
 5684TIP3    H138467   3.700   2.002   0.426 -2.0150  1.6866 -0.0741
 5684TIP3    H238468   3.657   2.051   0.289  0.5527  4.2783 -0.0591
 5685TIP3   OH238469   5.195   3.943  11.628 -0.8095  0.7092  0.3611
 5685TIP3    H138470   5.182   3.904  11.541 -0.3098  1.1763  0.0615
 5685TIP3    H238471   5.239   4.026  11.609 -0.8832  0.9088  1.0541
 5686TIP3   OH238472   0.056   6.757   0.864 -0.1960 -0.0340  0.4292
 5686TIP3    H138473   0.130   6.817   0.875 -1.2714  1.3615  0.2142
 5686TIP3    H238474   0.042   6.754   0.769 -0.6612  0.0240  0.4947
 5687TIP3   OH238475   4.210   4.382   5.129  0.5322  0.0146 -0.2477
 5687TIP3    H138476   4.145   4.377   5.198  0.4566 -3.0496 -0.4303
 5687TIP3    H238477   4.239   4.292   5.115  2.3264  0.8222 -2.5419
 5688TIP3   OH238478   5.529   1.221   3.581 -0.1944 -0.0123 -0.2373
 5688TIP3    H138479   5.476   1.140   3.581 -0.8815  0.3768  1.7170
 5688TIP3    H238480   5.484   1.278   3.643  0.4070  1.8207 -1.4218
 5689TIP3   OH238481   2.489   0.247   5.907 -0.0928 -0.2866  0.2781
 5689TIP3    H138482   2.471   0.265   5.815  0.8691  0.8729  0.2967
 5689TIP3    H238483   2.506   0.152   5.910 -0.2753 -0.3580 -0.7114
 5690TIP3   OH238484   4.930   0.276  17.121 -0.4957  0.3377 -0.0510
 5690TIP3    H138485   4.917   0.210  17.052 -0.6181 -0.0406  0.3237
 5690TIP3    H238486   4.967   0.351  17.076  0.1237 -0.1708 -0.4087
 5691TIP3   OH238487   6.078   0.651  13.861 -0.2118  0.4510  0.2968
 5691TIP3    H138488   6.005   0.707  13.833 -0.0118  0.9317  0.7209
 5691TIP3    H238489   6.045   0.562  13.852  0.2554  0.4746 -2.7768
 5692TIP3   OH238490   5.602   4.958   2.789  0.1148 -0.0243 -0.3125
 5692TIP3    H138491   5.589   4.977   2.882  0.0030  0.0674 -0.3471
 5692TIP3    H238492   5.662   5.027   2.760  1.0189 -0.6888 -0.0569
 5693TIP3   OH238493   5.372   6.553  13.707 -0.2341 -0.8017  0.5317
 5693TIP3    H138494   5.448   6.519  13.753  1.0276  1.0640 -0.0700
 5693TIP3    H238495   5.321   6.475  13.685  1.9033 -2.1902  0.2128
 5694TIP3   OH238496   2.333   5.835  11.049  0.2173 -0.2730  0.1948
 5694TIP3    H138497   2.296   5.748  11.066 -0.2881 -0.0981 -0.0017
 5694TIP3    H238498   2.266   5.880  10.997  2.0636 -1.1276 -3.2597
 5695TIP3   OH238499   5.367   2.089  11.253 -0.3418  0.2534  0.2749
 5695TIP3    H138500   5.326   2.165  11.213 -0.2037  0.6245  0.8184
 5695TIP3    H238501   5.452   2.121  11.283  0.2066 -0.4137 -0.5267
 5696TIP3   OH238502   5.696   2.684  14.935  0.3646  0.0680 -0.2760
 5696TIP3    H138503   5.641   2.746  14.886 -1.7395 -2.1669 -0.9545
 5696TIP3    H238504   5.698   2.606  14.880  1.1019 -1.2265  1.4955
 5697TIP3   OH238505   2.124   6.488   0.689  0.0400 -0.0880  0.1002
 5697TIP3    H138506   2.087   6.411   0.732  0.9738 -0.0783  0.9462
 5697TIP3    H238507   2.052   6.521   0.634  0.4205 -3.2442 -2.6674
 5698TIP3   OH238508   3.819   3.979  16.909 -0.5135 -0.0852 -0.1530
 5698TIP3    H138509   3.728   3.963  16.885  0.1889 -2.0876 -1.8489
 5698TIP3    H238510   3.815   4.015  16.997 -2.8981 -1.1297  0.2437
 5699TIP3   OH238511   5.085   6.776   1.735  0.4209 -0.6462  0.6006
 5699TIP3    H138512   5.133   6.803   1.813  0.4567 -2.5114  1.2782
 5699TIP3    H238513   5.100   6.846   1.672  1.7937  0.0920  1.6904
 5700TIP3   OH238514   5.547   3.780   1.247 -0.6210  0.1030  0.0718
 5700TIP3    H138515   5.563   3.833   1.325  1.6280  1.9697 -1.5021
 5700TIP3    H238516   5.631   3.738   1.228 -0.9656  0.0540 -1.5524
 5701TIP3   OH238517   5.619   0.608  12.455 -0.2668 -0.3224  0.6104
 5701TIP3    H138518   5.610   0.643  12.543 -0.6986  0.1028  0.4025
 5701TIP3    H238519   5.572   0.525  12.458  0.1352 -0.5423  0.9084
 5702TIP3   OH238520   1.433   4.294   5.180  0.4391  0.3611  0.3839
 5702TIP3    H138521   1.515   4.256   5.146  0.9134  1.6101  0.0540
 5702TIP3    H238522   1.461   4.348   5.254 -0.0957  0.6515  0.3782
 5703TIP3   OH238523   4.565   6.724  15.496  0.4515 -0.0134  0.0895
 5703TIP3    H138524   4.605   6.644  15.531 -0.0727 -0.6983 -0.8378
 5703TIP3    H238525   4.508   6.694  15.426 -1.1139  1.0176  0.8729
 5704TIP3   OH238526   4.596   2.304   2.785  0.3822  0.4635 -0.3603
 5704TIP3    H138527   4.563   2.270   2.702  0.0932  1.6918 -0.7776
 5704TIP3    H238528   4.650   2.234   2.820 -0.4765 -0.5477 -0.9916
 5705TIP3   OH238529   5.609   1.678  16.343 -0.4230 -0.1891 -0.3837
 5705TIP3    H138530   5.653   1.703  16.424 -0.5206  0.8154 -0.6332
 5705TIP3    H238531   5.516   1.680  16.364 -0.4368 -0.2559 -0.4351
 5706TIP3   OH238532   0.796   6.763  14.836  0.4146 -0.3016  0.1561
 5706TIP3    H138533   0.719   6.707  14.846 -2.0560  2.5371 -1.2322
 5706TIP3    H238534   0.857   6.711  14.784 -1.7297 -1.7855 -1.0451
 5707TIP3   OH238535   3.527   0.715  16.598 -0.1183 -0.0010  0.6158
 5707TIP3    H138536   3.576   0.739  16.677  0.8724 -0.7829  0.2727
 5707TIP3    H238537   3.448   0.768  16.601  0.0011  0.1272  2.0284
 5708TIP3   OH238538   0.618   5.083  13.255  0.4060 -0.1156 -0.2843
 5708TIP3    H138539   0.607   5.087  13.350 -0.4507  2.2934 -0.4218
 5708TIP3    H238540   0.530   5.067  13.221  0.3809  0.9042 -0.7264
 5709TIP3   OH238541   4.608   4.696  13.561 -0.5579 -0.0492 -0.3435
 5709TIP3    H138542   4.630   4.680  13.469 -1.7783 -2.9784 -0.2283
 5709TIP3    H238543   4.532   4.754  13.558  0.9161  2.0030 -1.0027
 5710TIP3   OH238544   5.865   4.578   0.550 -0.3077 -0.2158 -0.1562
 5710TIP3    H138545   5.822   4.514   0.493 -0.2318 -1.1064  0.7609
 5710TIP3    H238546   5.792   4.627   0.588 -0.3399  0.8617 -1.5119
 5711TIP3   OH238547   4.803   6.778  12.750  0.2729  0.1443 -0.0574
 5711TIP3    H138548   4.780   6.698  12.798 -0.6321 -1.5405 -3.0408
 5711TIP3    H238549   4.896   6.770  12.731  0.5735  0.6890  1.1083
 5712TIP3   OH238550   0.224   3.025   4.984 -0.1938 -0.5967  0.4662
 5712TIP3    H138551   0.310   3.062   4.966  0.3170 -1.6226  0.7678
 5712TIP3    H238552   0.163   3.091   4.951  0.6971 -0.6984 -1.5383
 5713TIP3   OH238553   4.373   4.668  14.110 -0.6200  0.4276 -0.0957
 5713TIP3    H138554   4.437   4.731  14.145 -2.0441  2.2863 -0.6304
 5713TIP3    H238555   4.386   4.589  14.163  0.6312  1.4681  1.2560
 5714TIP3   OH238556   1.204   0.913   5.225  0.0417 -0.1803  0.4335
 5714TIP3    H138557   1.154   0.887   5.147  1.4635 -0.8303 -0.3074
 5714TIP3    H238558   1.212   0.833   5.276 -0.1200  0.0430  0.8105
 5715TIP3   OH238559   4.435   6.320  12.911  0.1785  0.7320 -0.1199
 5715TIP3    H138560   4.406   6.281  12.829  2.7182  1.4006 -1.4589
 5715TIP3    H238561   4.530   6.306  12.912  0.5385  2.7052  1.6214
 5716TIP3   OH238562   4.445   4.744  13.183 -1.1723  0.3745  0.1409
 5716TIP3    H138563   4.351   4.729  13.168 -1.2728  0.5862  0.5331
 5716TIP3    H238564   4.448   4.800  13.261 -0.6804 -0.6542  0.8916
 5717TIP3   OH238565   0.937   5.737  10.349  0.3149  1.4208 -0.2903
 5717TIP3    H138566   0.850   5.698  10.358  0.7329  0.5781  0.1779
 5717TIP3    H238567   0.925   5.828  10.374 -0.6495  1.5895 -1.2435
 5718TIP3   OH238568   3.795   0.805  13.835 -0.0915  0.1102  0.3810
 5718TIP3    H138569   3.820   0.867  13.767 -1.3756  0.5994  0.3155
 5718TIP3    H238570   3.868   0.743  13.840 -0.4669 -0.6694 -2.2801
 5719TIP3   OH238571   5.480   0.489   0.532 -0.1441 -0.3488 -0.2522
 5719TIP3    H138572   5.470   0.570   0.483 -0.5825 -0.7390 -0.8313
 5719TIP3    H238573   5.492   0.422   0.465 -3.3173 -1.2982 -0.0718
 5720TIP3   OH238574   2.332   1.524   6.149  0.1790 -0.0736  0.1673
 5720TIP3    H138575   2.261   1.502   6.209 -0.4609  3.0744  0.7144
 5720TIP3    H238576   2.289   1.543   6.066  0.3351  1.7403  0.4709
 5721TIP3   OH238577   3.552   1.256   0.958 -0.1634 -0.6655 -0.3413
 5721TIP3    H138578   3.507   1.210   1.029  0.0450 -0.4965 -0.0995
 5721TIP3    H238579   3.520   1.346   0.963 -0.9749 -0.8936 -1.1490
 5722TIP3   OH238580   1.152   2.857   0.910 -0.3374  0.0358  0.1107
 5722TIP3    H138581   1.062   2.836   0.886 -0.7619  1.3089  0.5248
 5722TIP3    H238582   1.169   2.804   0.988 -0.5409 -0.5725 -0.2450
 5723TIP3   OH238583   3.436   0.942  16.189 -0.8033  0.3366 -0.4051
 5723TIP3    H138584   3.528   0.962  16.174 -0.3613 -0.2413  1.2214
 5723TIP3    H238585   3.410   1.000  16.260 -1.8336  0.8010 -1.1385
 5724TIP3   OH238586   4.724   0.772   4.097 -0.0392 -0.4966  0.2844
 5724TIP3    H138587   4.729   0.700   4.159 -1.4879  0.4107  1.5459
 5724TIP3    H238588   4.772   0.844   4.138  0.0767 -0.2698 -0.2324
 5725TIP3   OH238589   3.678   5.037  11.952 -0.1091 -0.7340 -0.3197
 5725TIP3    H138590   3.583   5.029  11.945 -0.1476  0.6158 -2.3128
 5725TIP3    H238591   3.710   4.947  11.952 -1.3609 -1.2000  0.0104
 5726TIP3   OH238592   4.976   3.520   3.075  0.1277  0.0631  0.4102
 5726TIP3    H138593   4.936   3.514   2.988  0.0787  1.3136  0.3368
 5726TIP3    H238594   5.061   3.477   3.065  0.9486  1.8570 -0.7720
 5727TIP3   OH238595   2.827   2.106   5.621  0.3023  0.0479 -0.1028
 5727TIP3    H138596   2.734   2.084   5.625  0.7187 -1.5949  1.9224
 5727TIP3    H238597   2.862   2.050   5.552 -0.0181 -0.1159 -0.1329
 5728TIP3   OH238598   2.330   3.454  13.218 -0.1712  0.0238 -0.2769
 5728TIP3    H138599   2.424   3.443  13.203 -0.2314 -1.1428  0.0760
 5728TIP3    H238600   2.291   3.460  13.131  0.1926  0.1291 -0.4300
 5729TIP3   OH238601   4.592   3.245   6.039  0.3401 -0.0670  0.2478
 5729TIP3    H138602   4.605   3.311   5.971 -0.4839  0.4705  0.5921
 5729TIP3    H238603   4.581   3.295   6.120 -0.0894 -0.6321  0.5481
 5730TIP3   OH238604   2.181   2.805   1.845 -0.5934  0.2911 -0.1280
 5730TIP3    H138605   2.212   2.875   1.903 -0.2058  0.1852 -0.2077
 5730TIP3    H238606   2.101   2.840   1.806  0.3817  1.2921 -1.3089
 5731TIP3   OH238607   3.679   5.941   2.152  0.0319  0.4873 -0.2179
 5731TIP3    H138608   3.757   5.943   2.095 -0.4662 -0.5233 -0.9747
 5731TIP3    H238609   3.657   6.033   2.166  0.8540  0.7723 -0.7206
 5732TIP3   OH238610   5.355   0.058  13.653  0.2352 -0.6912 -0.1087
 5732TIP3    H138611   5.342  -0.026  13.698  0.9446 -0.7100  0.0621
 5732TIP3    H238612   5.397   0.035  13.570 -0.9778 -0.6450 -0.7608
 5733TIP3   OH238613   3.263   4.447  13.350 -0.4812 -0.1478 -0.0512
 5733TIP3    H138614   3.167   4.451  13.359 -0.3733  1.0798  0.8697
 5733TIP3    H238615   3.282   4.503  13.275 -0.5556 -1.3916 -1.0244
 5734TIP3   OH238616   0.558   6.304   0.142 -0.0954 -0.3504  0.5861
 5734TIP3    H138617   0.653   6.293   0.146  0.1190  1.2913  1.0463
 5734TIP3    H238618   0.543   6.359   0.065 -0.6562 -0.4859  0.5924
 5735TIP3   OH238619   6.330   6.145   3.610 -0.0323 -0.1022  0.2252
 5735TIP3    H138620   6.291   6.075   3.557 -2.7614  1.6975 -0.3601
 5735TIP3    H238621   6.273   6.151   3.686  1.7728 -0.2552  1.6446
 5736TIP3   OH238622   0.996   4.933  16.775  0.0539 -0.4266 -0.2686
 5736TIP3    H138623   0.981   4.875  16.849 -0.8510 -2.0856 -1.6721
 5736TIP3    H238624   0.981   4.878  16.698  2.5339  0.7906 -1.7447
 5737TIP3   OH238625   2.683   1.071  16.293  0.2097 -0.2002 -0.0546
 5737TIP3    H138626   2.687   0.999  16.230  0.6738 -0.9709  0.8348
 5737TIP3    H238627   2.707   1.032  16.376  1.1019  1.1250  0.3429
 5738TIP3   OH238628   1.390   5.529   1.568  0.1552 -0.0574  0.4281
 5738TIP3    H138629   1.311   5.561   1.523 -0.0823 -0.8710  0.2516
 5738TIP3    H238630   1.453   5.601   1.558 -0.0635  0.0011 -0.7657
 5739TIP3   OH238631   3.019   3.049  13.540  0.0851 -0.1630 -0.6128
 5739TIP3    H138632   2.970   2.979  13.585 -2.1643  0.8708 -1.2914
 5739TIP3    H238633   3.012   3.124  13.598  1.5014 -0.1687 -0.4160
 5740TIP3   OH238634   5.118   0.997   4.691  0.2291  0.3179  0.6542
 5740TIP3    H138635   5.135   0.913   4.734 -0.8504  0.2624  0.9959
 5740TIP3    H238636   5.181   1.058   4.731  1.7707 -0.5341 -0.3641
 5741TIP3   OH238637   3.460   2.310  13.427 -0.7159 -0.1516  0.2195
 5741TIP3    H138638   3.504   2.376  13.374 -1.0925 -0.9640 -1.1448
 5741TIP3    H238639   3.382   2.355  13.461 -1.1798  0.0006 -1.0157
 5742TIP3   OH238640   3.864   0.551   2.387 -0.5048 -0.9441  0.1457
 5742TIP3    H138641   3.783   0.522   2.345  0.2636 -2.6337 -0.2736
 5742TIP3    H238642   3.834   0.602   2.462 -1.9216  0.2954 -1.1844
 5743TIP3   OH238643   4.796   4.984  12.436 -0.0110 -0.9175 -1.3808
 5743TIP3    H138644   4.841   4.980  12.521  0.0616 -2.8339 -1.4620
 5743TIP3    H238645   4.708   5.013  12.457 -0.2656 -2.2228 -0.4813
 5744TIP3   OH238646   5.879   3.217  13.337 -0.2747 -0.4107 -0.8407
 5744TIP3    H138647   5.959   3.220  13.389 -1.1899  0.9594  0.5999
 5744TIP3    H238648   5.882   3.296  13.283 -2.1807  1.7064  1.8249
 5745TIP3   OH238649   2.779   1.340   5.022  0.6193  0.6042  0.0335
 5745TIP3    H138650   2.839   1.276   4.985 -1.3761  0.2827 -3.0151
 5745TIP3    H238651   2.830   1.420   5.029  1.6271  0.1819 -1.8707
 5746TIP3   OH238652   6.620   4.755   3.287  0.1789  0.0474 -0.9945
 5746TIP3    H138653   6.715   4.749   3.296  0.1463  0.3849 -0.3389
 5746TIP3    H238654   6.607   4.806   3.207  0.5864  1.6588 -0.0799
 5747TIP3   OH238655   0.455   6.653   0.912 -0.2027  0.5324 -0.5757
 5747TIP3    H138656   0.426   6.589   0.847 -0.0928 -1.2376  1.0339
 5747TIP3    H238657   0.390   6.723   0.906  0.1735  0.7849 -3.0186
 5748TIP3   OH238658   0.351   2.107   2.008  0.1291 -0.3043  0.3342
 5748TIP3    H138659   0.359   2.012   2.003  2.0113 -0.1422 -0.1290
 5748TIP3    H238660   0.436   2.141   1.980 -0.6143  1.5355  0.1438
 5749TIP3   OH238661   4.073   2.385   3.517  0.6778 -0.0421 -0.0554
 5749TIP3    H138662   4.064   2.333   3.597 -0.3686  1.0607  0.5772
 5749TIP3    H238663   4.094   2.321   3.449  1.7681 -0.9770  1.1284
 5750TIP3   OH238664   0.255   2.878  12.150  0.1014 -0.4427 -0.8375
 5750TIP3    H138665   0.297   2.948  12.100  0.6314  0.0579  0.2833
 5750TIP3    H238666   0.163   2.882  12.124 -0.1813  1.6491  0.2432
 5751TIP3   OH238667   3.365   2.524   6.617  0.7542  0.3846  0.1865
 5751TIP3    H138668   3.279   2.554   6.588  0.7536  1.4427  1.2195
 5751TIP3    H238669   3.360   2.428   6.613 -0.1379  0.4529 -0.6697
 5752TIP3   OH238670   5.999   3.770   0.168  0.5227  0.1762 -0.0711
 5752TIP3    H138671   6.026   3.816   0.247 -1.1673  0.3811  0.4310
 5752TIP3    H238672   5.977   3.682   0.197 -0.6957  0.4281 -0.1704
 5753TIP3   OH238673   3.732   1.368   2.014 -0.2071 -0.3676 -0.2681
 5753TIP3    H138674   3.748   1.378   2.108  0.5401  1.8334 -0.5495
 5753TIP3    H238675   3.644   1.404   2.001  0.5136  1.3850 -0.6356
 5754TIP3   OH238676   1.361   1.088  11.240  0.1068 -0.0921  0.5119
 5754TIP3    H138677   1.320   1.116  11.322 -0.8567  0.6988 -0.2178
 5754TIP3    H238678   1.379   1.170  11.193 -1.0957 -0.5921 -0.8802
 5755TIP3   OH238679   1.816   5.511  15.149 -0.0648 -0.6547  0.2423
 5755TIP3    H138680   1.834   5.417  15.162  1.2783 -0.2038  1.9373
 5755TIP3    H238681   1.775   5.538  15.231  2.4725  0.8815  1.1152
 5756TIP3   OH238682   3.104   2.331  11.565 -0.8441  0.1991 -0.1537
 5756TIP3    H138683   3.096   2.248  11.517 -1.5353  0.4286 -0.4459
 5756TIP3    H238684   3.013   2.360  11.577 -0.7740 -0.2361  1.9615
 5757TIP3   OH238685   4.503   5.228  14.009  0.8007  0.0655 -0.4200
 5757TIP3    H138686   4.597   5.248  14.013  1.2486 -2.0362  2.1130
 5757TIP3    H238687   4.460   5.313  14.018  2.4653  0.8953  0.0399
 5758TIP3   OH238688   5.351   5.931  12.728 -0.2067 -0.4997 -1.2597
 5758TIP3    H138689   5.433   5.976  12.705 -0.4213  0.6330  0.0355
 5758TIP3    H238690   5.286   5.967  12.668 -0.0518 -0.2534 -1.2823
 5759TIP3   OH238691   1.259   6.306   3.443 -0.2290 -0.1368  0.0376
 5759TIP3    H138692   1.170   6.273   3.429 -0.2691 -0.0300  0.0353
 5759TIP3    H238693   1.277   6.287   3.535 -0.2184 -0.2425  0.0137
 5760TIP3   OH238694   6.331   0.314   1.168 -0.3324  0.2808  0.0378
 5760TIP3    H138695   6.298   0.228   1.143 -0.9382  0.8543 -1.2857
 5760TIP3    H238696   6.418   0.319   1.129 -0.8228  0.7400 -1.0544
 5761TIP3   OH238697   6.718   4.135  15.737 -0.4221 -0.0254 -0.0130
 5761TIP3    H138698   6.702   4.139  15.643  1.0460 -0.3203 -0.3027
 5761TIP3    H238699   6.747   4.223  15.761 -1.7916  0.3375  0.3838
 5762TIP3   OH238700   4.103   0.301  13.106 -0.7496 -0.6597  0.1602
 5762TIP3    H138701   4.090   0.367  13.174 -1.5468  0.9516 -1.4716
 5762TIP3    H238702   4.147   0.229  13.151  1.0054  1.3097  1.8729
 5763TIP3   OH238703   3.456   2.751   3.805 -0.2013  0.3319  0.0676
 5763TIP3    H138704   3.495   2.798   3.731  0.4356  1.5085  1.1102
 5763TIP3    H238705   3.530   2.705   3.845 -0.7439 -1.3082 -0.6948
 5764TIP3   OH238706   2.758   3.543   6.100  0.3063 -0.3802  0.4119
 5764TIP3    H138707   2.823   3.590   6.152 -0.3625  0.0832  0.8437
 5764TIP3    H238708   2.752   3.456   6.141 -0.3405  0.0380  1.2389
 5765TIP3   OH238709   1.496   1.514  11.555 -0.1361 -0.3806 -0.1612
 5765TIP3    H138710   1.532   1.590  11.510  0.7211 -1.2889 -1.0508
 5765TIP3    H238711   1.529   1.522  11.645  0.0060  0.2470 -0.2637
 5766TIP3   OH238712   0.425   4.131   1.545  0.3034  0.4934 -0.2218
 5766TIP3    H138713   0.379   4.198   1.596 -0.4062  0.3970 -0.7180
 5766TIP3    H238714   0.512   4.167   1.530  1.3190 -0.3422  2.8390
 5767TIP3   OH238715   4.295   3.719   3.064  0.3249  0.3786 -0.0324
 5767TIP3    H138716   4.354   3.789   3.037  1.7217 -1.0727 -0.9541
 5767TIP3    H238717   4.352   3.642   3.070 -1.8133 -1.8302 -3.8991
 5768TIP3   OH238718   5.131   5.748   0.069 -0.3441 -0.1868 -0.0467
 5768TIP3    H138719   5.095   5.700  -0.005 -1.5341  1.7718 -0.8114
 5768TIP3    H238720   5.055   5.774   0.122  0.2525  0.6949  0.4173
 5769TIP3   OH238721   3.821   2.836   5.596 -0.4534  0.2337 -0.2378
 5769TIP3    H138722   3.909   2.862   5.569  0.4489 -1.6013  0.7820
 5769TIP3    H238723   3.818   2.742   5.580 -1.8956  0.1005  0.6612
 5770TIP3   OH238724   3.299   1.025  16.695 -0.2657 -0.3838 -0.1562
 5770TIP3    H138725   3.207   1.047  16.687 -0.4046 -0.9353 -0.1254
 5770TIP3    H238726   3.304   0.931  16.673  0.3261 -0.2878 -0.4657
 5771TIP3   OH238727   1.223   3.584  11.247  0.2809 -0.0421 -0.1326
 5771TIP3    H138728   1.226   3.647  11.175 -0.0146 -0.1359 -0.2281
 5771TIP3    H238729   1.314   3.560  11.262  0.2348 -1.4569 -1.7569
 5772TIP3   OH238730   5.771   6.631  15.811  0.0063  0.4961  0.2778
 5772TIP3    H138731   5.705   6.575  15.852  0.2289 -0.4143 -0.5662
 5772TIP3    H238732   5.789   6.589  15.727  1.3328  0.9755  0.3010
 5773TIP3   OH238733   6.419   3.884  14.379 -0.0946 -0.5860 -0.1127
 5773TIP3    H138734   6.480   3.938  14.430 -1.2626 -0.3717  1.1055
 5773TIP3    H238735   6.336   3.889  14.426 -1.0811 -0.8897 -1.7133
 5774TIP3   OH238736   5.154   1.766   1.709  0.5264  0.2887 -0.3046
 5774TIP3    H138737   5.170   1.679   1.745 -0.4252 -0.4946 -1.7019
 5774TIP3    H238738   5.231   1.817   1.736  0.7317 -0.7420  1.1968
 5775TIP3   OH238739   3.350   0.730  13.066 -0.0544  0.5345 -0.2431
 5775TIP3    H138740   3.296   0.663  13.107  1.7636 -0.4025  0.7801
 5775TIP3    H238741   3.294   0.807  13.060 -0.8783  0.2557  2.6729
 5776TIP3   OH238742   5.425   6.622   6.126  0.1879  0.0427  0.2796
 5776TIP3    H138743   5.433   6.690   6.060  2.4817 -0.1953  0.2258
 5776TIP3    H238744   5.384   6.666   6.201  0.1983  1.0622 -0.2937
 5777TIP3   OH238745   4.800   3.853  11.314 -0.0281 -0.8053 -0.0560
 5777TIP3    H138746   4.883   3.811  11.338  0.5907 -0.9110 -2.1276
 5777TIP3    H238747   4.735   3.784  11.320  0.5997 -1.5501 -1.3237
 5778TIP3   OH238748   4.718   3.863  12.650  0.9011  0.0364  0.2778
 5778TIP3    H138749   4.696   3.932  12.712  0.0503  1.0312 -1.0681
 5778TIP3    H238750   4.634   3.821  12.630  0.6458  1.5173 -2.1947
 5779TIP3   OH238751   6.237   3.963   5.316  0.4034  0.6237 -0.2265
 5779TIP3    H138752   6.182   3.910   5.372 -0.1524 -1.0077 -2.1854
 5779TIP3    H238753   6.177   4.021   5.270  0.8100  1.7115  0.5807
 5780TIP3   OH238754   0.061   5.853   1.478 -0.4951  0.2879  0.4891
 5780TIP3    H138755   0.137   5.874   1.532 -1.3310 -0.6617  2.1010
 5780TIP3    H238756   0.071   5.761   1.456 -1.0030  0.2378  0.4479
 5781TIP3   OH238757   4.719   3.447   1.411 -0.2771  0.2095  0.2725
 5781TIP3    H138758   4.814   3.459   1.404 -0.4406  0.8341 -1.1418
 5781TIP3    H238759   4.708   3.387   1.485  1.3738 -2.0692 -1.1997
 5782TIP3   OH238760   0.399   2.417   0.033 -0.4666 -0.6332  0.0355
 5782TIP3    H138761   0.453   2.392  -0.042  0.0955  0.2828  0.1170
 5782TIP3    H238762   0.335   2.479  -0.003 -0.2244 -0.2267  0.2943
 5783TIP3   OH238763   1.009   2.749  13.240  0.3554 -0.4500 -0.8653
 5783TIP3    H138764   0.968   2.764  13.155 -0.1126 -0.9670 -0.7375
 5783TIP3    H238765   0.985   2.825  13.293  0.1518 -0.4138 -1.0097
 5784TIP3   OH238766   0.943   4.195  15.144 -0.0505  0.4662 -0.0490
 5784TIP3    H138767   0.909   4.219  15.231 -1.0712 -2.3834  0.4470
 5784TIP3    H238768   1.038   4.200  15.153 -0.0416  4.6415 -0.2478
 5785TIP3   OH238769   2.107   0.470  12.509 -0.3272  0.4357  0.0399
 5785TIP3    H138770   2.186   0.446  12.557 -0.7627 -1.7457 -0.2473
 5785TIP3    H238771   2.126   0.447  12.418 -0.8317  1.1092 -0.2460
 5786TIP3   OH238772   3.903   1.836   3.115  0.2314 -0.4510  0.7209
 5786TIP3    H138773   3.868   1.763   3.064 -1.8087  0.9712 -0.0362
 5786TIP3    H238774   3.940   1.895   3.051 -0.5620  0.4305  1.0603
 5787TIP3   OH238775   3.367   2.788  10.681  0.1539  0.2052  0.6704
 5787TIP3    H138776   3.281   2.765  10.646 -1.5007  0.3508  4.1546
 5787TIP3    H238777   3.408   2.703  10.700 -0.1660  0.1171  0.9878
 5788TIP3   OH238778   0.215   3.438  16.155  0.4143  0.2234 -0.1564
 5788TIP3    H138779   0.309   3.452  16.169  0.5903  0.1589 -1.1646
 5788TIP3    H238780   0.174   3.520  16.182  0.6617 -0.0269  1.0559
 5789TIP3   OH238781   4.383   6.619  15.268 -0.1057 -0.2264  0.2625
 5789TIP3    H138782   4.373   6.571  15.186 -0.9181 -0.8709  0.7229
 5789TIP3    H238783   4.372   6.553  15.336  1.9662  0.0339  0.9098
 5790TIP3   OH238784   2.427   4.135   5.805  0.2147 -0.0143 -0.0529
 5790TIP3    H138785   2.500   4.092   5.850 -1.1197 -0.6422  1.6309
 5790TIP3    H238786   2.417   4.218   5.852  1.7685  1.5274 -2.2756
 5791TIP3   OH238787   1.432   2.750  13.784 -0.3954 -0.2486  0.7934
 5791TIP3    H138788   1.355   2.713  13.739  0.0492 -0.1518 -0.0781
 5791TIP3    H238789   1.481   2.793  13.714  0.7262 -0.7610  1.2463
 5792TIP3   OH238790   3.658   3.721   4.880  0.0667  0.2474 -0.6089
 5792TIP3    H138791   3.598   3.647   4.891  1.1082 -0.6334 -0.6230
 5792TIP3    H238792   3.682   3.745   4.970 -0.7615  1.0027 -0.5785
 5793TIP3   OH238793   4.388   0.651  12.487  0.0338 -0.0634 -0.3608
 5793TIP3    H138794   4.412   0.591  12.558  0.3725  2.4789  1.8416
 5793TIP3    H238795   4.313   0.699  12.522 -0.6507  0.3609 -2.3299
 5794TIP3   OH238796   0.634   2.681   3.290 -0.1340  0.4869  1.0742
 5794TIP3    H138797   0.633   2.702   3.384  1.7595  0.6020  1.1176
 5794TIP3    H238798   0.722   2.706   3.261 -0.0601 -1.1865 -0.3482
 5795TIP3   OH238799   2.332   2.891  12.877  0.0002  0.2599 -0.5338
 5795TIP3    H138800   2.329   2.855  12.966  1.1323 -1.2437 -1.0626
 5795TIP3    H238801   2.368   2.979  12.889 -0.6059  0.3861  0.5628
 5796TIP3   OH238802   1.855   2.546   0.896 -0.1588  0.1920 -0.3748
 5796TIP3    H138803   1.939   2.502   0.888 -1.3610 -2.2207 -0.6112
 5796TIP3    H238804   1.867   2.610   0.966  1.7262 -0.4006 -0.1153
 5797TIP3   OH238805   3.263   3.931   0.908  0.1079  0.1696  0.1492
 5797TIP3    H138806   3.208   4.008   0.927 -0.2720 -0.1605  0.4115
 5797TIP3    H238807   3.305   3.952   0.824  0.3365  0.8402  0.4210
 5798TIP3   OH238808   6.436   6.022  14.004 -0.0000 -0.0029 -0.0856
 5798TIP3    H138809   6.449   6.004  14.097 -0.2412 -0.1881 -0.0837
 5798TIP3    H238810   6.409   6.114  14.001 -2.6384 -0.6678  0.3104
 5799TIP3   OH238811   0.401   5.275   5.777 -0.1120  0.0645  0.5344
 5799TIP3    H138812   0.324   5.324   5.806 -0.6365 -0.7451  0.5445
 5799TIP3    H238813   0.382   5.184   5.800  1.0609 -0.0863  0.9771
 5800TIP3   OH238814   5.679   1.454  12.824  0.0647  0.2470  0.5088
 5800TIP3    H138815   5.602   1.427  12.775  0.3041 -0.6352  0.5963
 5800TIP3    H238816   5.667   1.548  12.838 -0.7078  0.2304  0.0285
 5801TIP3   OH238817   5.273   1.200  14.259 -0.9937 -0.5117  0.2185
 5801TIP3    H138818   5.194   1.255  14.259 -1.6693 -1.2408 -3.1876
 5801TIP3    H238819   5.331   1.242  14.195 -0.4948 -2.3594 -0.5988
 5802TIP3   OH238820   3.973   1.472  12.603 -0.8247  0.2395 -0.1509
 5802TIP3    H138821   3.960   1.413  12.678  1.2051  1.2867  1.1087
 5802TIP3    H238822   4.035   1.426  12.547 -1.8982 -0.2868 -0.9433
 5803TIP3   OH238823   5.919   0.931  15.261 -0.2559  0.3609 -0.1439
 5803TIP3    H138824   5.896   0.910  15.171  0.5735  1.4925 -0.6341
 5803TIP3    H238825   5.836   0.930  15.308 -0.5733 -1.3899 -0.6543
 5804TIP3   OH238826   1.378   2.178   0.083 -0.1451  0.0853  0.2861
 5804TIP3    H138827   1.435   2.217   0.017 -1.2447  1.3938  0.0694
 5804TIP3    H238828   1.405   2.220   0.165 -0.6946  0.6241  0.2003
 5805TIP3   OH238829   1.297   0.436  16.304 -0.7871  0.2641 -0.5621
 5805TIP3    H138830   1.225   0.388  16.264 -0.0637 -1.1810 -0.1871
 5805TIP3    H238831   1.311   0.512  16.247  0.3343 -1.8020 -3.2211
 5806TIP3   OH238832   1.193   5.466  13.527 -0.3617  0.7061 -0.0722
 5806TIP3    H138833   1.119   5.515  13.491 -1.2411 -0.8611 -0.5277
 5806TIP3    H238834   1.255   5.461  13.455 -1.3572 -0.9178 -0.8781
 5807TIP3   OH238835   2.550   4.432  14.725  0.5574 -0.1389  0.2813
 5807TIP3    H138836   2.636   4.440  14.765 -0.6364 -0.7017  3.1587
 5807TIP3    H238837   2.524   4.341  14.739 -0.4184 -0.0501 -0.7738
 5808TIP3   OH238838   1.409   3.243  15.859 -0.2475  0.2627  0.3198
 5808TIP3    H138839   1.324   3.285  15.873 -0.2232 -0.3112  2.4170
 5808TIP3    H238840   1.439   3.220  15.946  1.1360 -1.3983 -0.5520
 5809TIP3   OH238841   0.928   5.969   5.179 -0.1206  0.1037 -0.0847
 5809TIP3    H138842   0.852   6.019   5.151  0.0185  0.4305  0.1196
 5809TIP3    H238843   0.907   5.942   5.268 -1.3637 -2.4895 -1.0554
 5810TIP3   OH238844   2.279   6.616  12.146 -0.2777 -0.4271  0.9435
 5810TIP3    H138845   2.356   6.585  12.193 -0.4413  1.5495  2.6797
 5810TIP3    H238846   2.285   6.712  12.150 -1.1402 -0.1602 -1.7929
 5811TIP3   OH238847   4.452   5.088  12.224  0.1795 -0.2124  0.5800
 5811TIP3    H138848   4.386   5.098  12.156 -0.8806 -1.3224  1.3999
 5811TIP3    H238849   4.509   5.018  12.192  0.0189 -0.3390  0.5690
 5812TIP3   OH238850   5.206   3.865   3.660  0.4177  0.2432 -0.2264
 5812TIP3    H138851   5.262   3.857   3.737  0.3996  0.4663 -0.1894
 5812TIP3    H238852   5.207   3.778   3.620  1.5222  0.4731 -0.7242
 5813TIP3   OH238853   6.066   2.870  14.007 -0.1869  0.5441  0.1583
 5813TIP3    H138854   6.111   2.787  13.990 -0.2784  0.3419  0.8473
 5813TIP3    H238855   5.996   2.847  14.068 -2.0070  0.6495 -1.8009
 5814TIP3   OH238856   0.225   1.440  14.128 -0.3534  0.1273  0.0521
 5814TIP3    H138857   0.169   1.493  14.071  0.3698 -0.2566 -1.0339
 5814TIP3    H238858   0.184   1.448  14.215 -3.1767 -1.5628 -0.9739
 5815TIP3   OH238859   2.727   0.379  15.060 -0.5248 -0.0105  0.7754
 5815TIP3    H138860   2.663   0.449  15.041  0.6284  0.6537 -0.8975
 5815TIP3    H238861   2.673   0.305  15.087 -1.9788  0.7318  0.0536
 5816TIP3   OH238862   5.731   1.658   5.962 -0.2882 -0.4244  0.7392
 5816TIP3    H138863   5.728   1.750   5.988  0.3399  0.8932 -3.1583
 5816TIP3    H238864   5.643   1.625   5.980  0.0786  0.1111  4.3329
 5817TIP3   OH238865   6.516   4.285   3.567 -0.7319 -0.3325 -0.3115
 5817TIP3    H138866   6.588   4.323   3.517 -0.0107 -0.6994  0.4231
 5817TIP3    H238867   6.438   4.329   3.534 -0.6539 -2.3458 -3.5704
 5818TIP3   OH238868   5.168   1.295  13.905  0.0721  0.5634 -0.4243
 5818TIP3    H138869   5.083   1.260  13.932 -0.1103  1.2343 -0.1075
 5818TIP3    H238870   5.226   1.279  13.979 -0.0748  1.1417 -0.1778
 5819TIP3   OH238871   6.767   6.741   4.496  0.6236 -0.3842  0.1013
 5819TIP3    H138872   6.815   6.749   4.578  0.9063  0.4068 -0.1384
 5819TIP3    H238873   6.728   6.827   4.482 -1.0438 -1.0561  0.3860
 5820TIP3   OH238874   3.530   5.586   0.920  0.2886  0.1984  0.0364
 5820TIP3    H138875   3.494   5.610   0.834 -1.0105  0.7105  0.6924
 5820TIP3    H238876   3.465   5.527   0.958  0.2494  0.9323  1.1547
 5821TIP3   OH238877   3.547   5.817  12.082 -0.6004 -0.4526  0.0720
 5821TIP3    H138878   3.557   5.745  12.144 -1.8892  0.4724  1.4197
 5821TIP3    H238879   3.608   5.884  12.112  0.0224 -0.6533 -0.7113
 5822TIP3   OH238880   2.285   5.783   0.292  0.2559  0.8086 -0.1435
 5822TIP3    H138881   2.292   5.809   0.200  1.0289  0.3582 -0.2215
 5822TIP3    H238882   2.193   5.764   0.305  0.4387 -1.1660 -1.3967
 5823TIP3   OH238883   2.488   4.200  16.679 -0.4707  0.0735 -0.4035
 5823TIP3    H138884   2.434   4.233  16.608 -1.0981  0.8079  0.3886
 5823TIP3    H238885   2.559   4.153  16.636 -0.5321  0.9767 -1.5247
 5824TIP3   OH238886   5.393   5.213  15.831  0.5059  0.5599  0.0910
 5824TIP3    H138887   5.325   5.208  15.764  3.4318 -1.4863 -3.0414
 5824TIP3    H238888   5.394   5.127  15.871 -0.5046  1.4466  2.1771
 5825TIP3   OH238889   4.530   4.746   4.647  0.1872  0.2253  0.0908
 5825TIP3    H138890   4.448   4.794   4.635  0.2433  0.0893 -0.9334
 5825TIP3    H238891   4.595   4.795   4.596  0.0135 -1.5019 -1.9377
 5826TIP3   OH238892   6.554   6.434   1.741 -0.2334  0.0276 -0.0215
 5826TIP3    H138893   6.540   6.381   1.662  0.5880  0.5629 -0.5469
 5826TIP3    H238894   6.526   6.377   1.813 -0.8396 -0.5336 -0.6789
 5827TIP3   OH238895   3.047   2.304  16.813 -0.3959  0.7772 -0.3919
 5827TIP3    H138896   2.974   2.284  16.754 -0.2257  0.0901 -0.3778
 5827TIP3    H238897   3.075   2.392  16.787  1.3188 -0.4275 -3.1159
 5828TIP3   OH238898   5.846   4.773   2.163  0.1917  0.0864  0.0903
 5828TIP3    H138899   5.849   4.678   2.157  0.4977  0.1742 -1.6755
 5828TIP3    H238900   5.771   4.798   2.109  0.8156  0.8976 -0.4258
 5829TIP3   OH238901   6.211   1.635  12.591 -0.3775  0.0573  0.9244
 5829TIP3    H138902   6.226   1.700  12.660 -0.8065 -0.7470  1.7970
 5829TIP3    H238903   6.130   1.663  12.549  0.0346  0.7101  0.5482
 5830TIP3   OH238904   1.061   5.161   5.264  0.1578  0.3158  0.0358
 5830TIP3    H138905   1.003   5.088   5.243 -1.0540  1.2970 -0.1370
 5830TIP3    H238906   1.138   5.147   5.209 -0.3520 -0.4693 -0.4947
 5831TIP3   OH238907   1.004   6.534  12.230 -0.0963 -0.6118 -0.2217
 5831TIP3    H138908   0.944   6.609  12.222  0.5056  0.1480  1.7264
 5831TIP3    H238909   0.960   6.463  12.184 -0.5486  0.9948 -2.4214
 5832TIP3   OH238910   5.006   1.885  14.366 -0.3186 -0.5198  0.6372
 5832TIP3    H138911   4.967   1.959  14.411 -0.9966  0.0610 -0.8396
 5832TIP3    H238912   4.970   1.808  14.410 -1.1450  0.0219  0.9308
 5833TIP3   OH238913   4.111   1.680  12.458  0.6167  0.3567  0.0068
 5833TIP3    H138914   4.091   1.772  12.472  1.0387  0.5160 -0.3982
 5833TIP3    H238915   4.074   1.635  12.534 -1.9940  0.5217 -1.0757
 5834TIP3   OH238916   0.406   4.971   2.645 -0.0864  0.3736 -0.0618
 5834TIP3    H138917   0.353   4.898   2.678 -1.7308  2.0674  1.2822
 5834TIP3    H238918   0.477   4.980   2.708 -1.4818  1.6377  1.4398
 5835TIP3   OH238919   2.293   2.923   0.093  0.2271  0.0061  0.7292
 5835TIP3    H138920   2.350   2.868   0.147  0.0516  0.3687  1.2951
 5835TIP3    H238921   2.249   2.980   0.156 -1.0626 -0.5301  0.3334
 5836TIP3   OH238922   4.414   4.017   1.879 -0.6724 -0.0060  0.2383
 5836TIP3    H138923   4.369   4.098   1.902 -0.0647  0.3838  0.1050
 5836TIP3    H238924   4.421   3.968   1.961 -0.3663  0.4288  0.4748
 5837TIP3   OH238925   3.456   2.012  15.353  0.1618 -0.6797  0.5199
 5837TIP3    H138926   3.543   1.998  15.390 -0.1203 -0.7808  1.1593
 5837TIP3    H238927   3.469   2.075  15.282  0.5933  0.1422  1.3218
 5838TIP3   OH238928   1.673   2.533  14.856 -0.7077 -0.3400  0.3886
 5838TIP3    H138929   1.625   2.544  14.938 -2.4204  2.1461 -0.8425
 5838TIP3    H238930   1.701   2.621  14.831 -0.4749 -0.9715 -1.8486
 5839TIP3   OH238931   4.285   5.417  14.479 -0.1175  0.2926 -0.2884
 5839TIP3    H138932   4.339   5.367  14.540  0.3603  0.7696 -0.3161
 5839TIP3    H238933   4.196   5.386  14.495  0.1554 -0.4902 -0.2283
 5840TIP3   OH238934   2.205   0.929   3.121  0.3168 -0.3322 -0.3162
 5840TIP3    H138935   2.254   0.847   3.121 -1.2669 -1.3938  2.0873
 5840TIP3    H238936   2.241   0.978   3.195 -1.9680 -1.0728  1.4027
 5841TIP3   OH238937   0.564   1.531  15.530 -0.9441  0.5502 -0.0500
 5841TIP3    H138938   0.471   1.524  15.552 -0.9628 -1.2719 -0.5755
 5841TIP3    H238939   0.572   1.489  15.445  0.4002  0.5003  0.0774
 5842TIP3   OH238940   3.877   1.681  15.546 -0.0100  0.0433 -0.3113
 5842TIP3    H138941   3.788   1.705  15.573  0.2256 -1.2424  1.8190
 5842TIP3    H238942   3.928   1.760  15.564 -0.5762  0.5291 -0.7879
 5843TIP3   OH238943   1.890   3.312  12.526  0.3755  0.4814  0.1595
 5843TIP3    H138944   1.861   3.383  12.583 -2.2772  0.1792 -0.6371
 5843TIP3    H238945   1.837   3.237  12.553  1.7726 -0.6901 -0.2512
 5844TIP3   OH238946   1.685   3.707   3.116  0.2845 -0.2257  0.5145
 5844TIP3    H138947   1.757   3.704   3.179 -0.1984 -1.1066  1.0384
 5844TIP3    H238948   1.607   3.725   3.169 -0.1628 -1.2509  0.2139
 5845TIP3   OH238949   2.409   2.640   1.792 -0.4188  0.1336 -0.7060
 5845TIP3    H138950   2.490   2.683   1.821 -0.7196 -0.2500  0.7974
 5845TIP3    H238951   2.342   2.707   1.806 -0.6789 -0.3125  0.2855
 5846TIP3   OH238952   0.162   4.426  15.702 -0.5578 -0.3522 -0.4643
 5846TIP3    H138953   0.071   4.445  15.682 -0.3777 -0.4465 -1.4297
 5846TIP3    H238954   0.192   4.371  15.629  0.0859 -0.8734  0.1711
 5847TIP3   OH238955   2.330   4.502  15.205 -0.0483 -0.2197  0.1524
 5847TIP3    H138956   2.373   4.580  15.169  0.8819  0.3598  2.3735
 5847TIP3    H238957   2.401   4.452  15.246 -0.6560 -2.2087 -1.0644
 5848TIP3   OH238958   2.742   6.327   3.948 -0.2530  0.1976  0.4037
 5848TIP3    H138959   2.817   6.268   3.941  0.3878  0.8297  1.5371
 5848TIP3    H238960   2.732   6.364   3.860 -0.7182 -1.6087 -0.3523
 5849TIP3   OH238961   1.764   2.648   3.517  0.3635  0.1778  0.3846
 5849TIP3    H138962   1.805   2.726   3.479  2.4931 -0.1333  1.8805
 5849TIP3    H238963   1.709   2.682   3.588  1.8815  0.3312  1.5346
 5850TIP3   OH238964   2.947   1.588   4.977  0.2665  0.4986 -0.3507
 5850TIP3    H138965   2.927   1.583   4.883 -2.0770  1.3591  0.0458
 5850TIP3    H238966   3.042   1.590   4.981  0.4932 -1.2409 -2.6054
 5851TIP3   OH238967   2.407   1.685   1.507 -0.5150  0.4518  0.3405
 5851TIP3    H138968   2.461   1.641   1.441 -0.4758  0.0913  0.6103
 5851TIP3    H238969   2.427   1.778   1.497 -0.9798  0.4638 -0.5805
 5852TIP3   OH238970   3.661   0.386   3.611 -0.0271  0.5045 -0.2497
 5852TIP3    H138971   3.754   0.395   3.632 -0.0283 -1.5934  0.9188
 5852TIP3    H238972   3.616   0.424   3.686 -0.0718 -0.1906  0.0881
 5853TIP3   OH238973   3.565   1.891   2.077  0.3023 -0.4803  0.3717
 5853TIP3    H138974   3.629   1.956   2.047 -1.3917  0.1082 -2.2778
 5853TIP3    H238975   3.569   1.822   2.011 -2.3840  0.0277 -0.4443
 5854TIP3   OH238976   5.096   4.533  16.061  0.6244  0.0109  0.0572
 5854TIP3    H138977   5.125   4.517  16.151 -0.6224 -1.7817  0.1926
 5854TIP3    H238978   5.030   4.602  16.069  1.8687  1.2322  0.2352
 5855TIP3   OH238979   5.123   6.436   2.868  0.1553  0.0491 -0.0635
 5855TIP3    H138980   5.179   6.511   2.886  0.4020 -0.3779  1.0613
 5855TIP3    H238981   5.179   6.376   2.819  0.5469 -0.1766  0.6463
 5856TIP3   OH238982   1.600   1.703   6.217  0.0125  0.0984 -0.0374
 5856TIP3    H138983   1.566   1.788   6.244 -0.8507 -0.3602  0.3732
 5856TIP3    H238984   1.605   1.653   6.298 -0.7916 -0.6806 -0.4529
 5857TIP3   OH238985   5.624   5.585  12.374  0.7852  0.0659  0.4813
 5857TIP3    H138986   5.554   5.625  12.427  0.6426 -0.1063  0.4235
 5857TIP3    H238987   5.682   5.658  12.352  0.3446  0.3009  0.0940
 5858TIP3   OH238988   1.568   1.842  14.136  0.4954 -0.0015  0.3583
 5858TIP3    H138989   1.608   1.926  14.159  1.0823 -0.2776  0.3498
 5858TIP3    H238990   1.593   1.783  14.208  0.6969 -0.3586 -0.0013
 5859TIP3   OH238991   5.137   1.467   1.267  0.2651 -0.0755 -0.1259
 5859TIP3    H138992   5.160   1.549   1.223  0.6652 -0.5457 -0.8208
 5859TIP3    H238993   5.209   1.408   1.246  0.3298 -0.3962  0.9708
 5860TIP3   OH238994   0.859   5.406   1.157  0.5313 -0.3410  0.2539
 5860TIP3    H138995   0.929   5.342   1.172  0.8287 -0.2945 -0.8501
 5860TIP3    H238996   0.791   5.382   1.219  0.8143 -1.4710  0.1495
 5861TIP3   OH238997   5.820   2.764   1.251  0.3673 -0.2536  0.5632
 5861TIP3    H138998   5.778   2.707   1.315  1.1158 -0.8049  0.5747
 5861TIP3    H238999   5.847   2.841   1.301 -0.0412 -0.1826  0.6816
 5862TIP3   OH239000   5.076   0.286  12.661 -0.2521 -0.5317  0.5243
 5862TIP3    H139001   5.157   0.331  12.642  0.1832 -0.8732  1.4788
 5862TIP3    H239002   5.075   0.210  12.603 -0.0842 -0.3102  0.2343
 5863TIP3   OH239003   0.561   1.772   2.189  0.0465 -0.0874  0.2173
 5863TIP3    H139004   0.585   1.861   2.215  0.1517 -0.5283  1.7321
 5863TIP3    H239005   0.503   1.784   2.114  1.3079  1.1834 -0.6148
 5864TIP3   OH239006   1.593   3.695  12.882  0.7068  0.4148  0.5186
 5864TIP3    H139007   1.586   3.610  12.838 -1.3348  0.0004  1.4964
 5864TIP3    H239008   1.680   3.695  12.921  1.2620 -0.6293 -0.6615
 5865TIP3   OH239009   1.935   6.640   2.472 -0.4842 -0.6190  0.4242
 5865TIP3    H139010   1.938   6.591   2.554 -0.2371  0.8591  1.3291
 5865TIP3    H239011   1.843   6.640   2.447 -0.7968  0.2125  1.5262
 5866TIP3   OH239012   6.273   5.160  12.443 -0.0765 -0.3976  0.9423
 5866TIP3    H139013   6.218   5.091  12.481  1.0447 -1.1422  1.2596
 5866TIP3    H239014   6.353   5.114  12.416 -0.1454  0.4188 -0.7598
 5867TIP3   OH239015   1.541   3.822   0.652 -0.5001 -0.0286  0.0282
 5867TIP3    H139016   1.530   3.776   0.569  3.5958 -1.1082 -0.1483
 5867TIP3    H239017   1.516   3.913   0.633 -2.3951 -0.7980 -1.4892
 5868TIP3   OH239018   2.584   0.311  16.108 -0.2138 -0.3197  0.0542
 5868TIP3    H139019   2.495   0.277  16.114  0.0232 -0.9374  0.1441
 5868TIP3    H239020   2.593   0.367  16.185 -0.5133 -0.2737  0.0580
 5869TIP3   OH239021   0.545   1.660   5.163 -0.6901 -0.0094 -0.2908
 5869TIP3    H139022   0.516   1.599   5.230 -2.1730  0.1179 -0.7818
 5869TIP3    H239023   0.539   1.746   5.205  0.2582 -0.0850  0.0203
 5870TIP3   OH239024   4.923   3.496   2.811  0.4840  0.0371 -0.4003
 5870TIP3    H139025   4.958   3.564   2.753  0.1375  0.4886 -0.0795
 5870TIP3    H239026   4.921   3.417   2.756  0.7367  0.3183 -0.8193
 5871TIP3   OH239027   1.779   6.509   6.410  0.5957  0.0637 -0.5010
 5871TIP3    H139028   1.796   6.569   6.483 -1.3503  1.0110 -0.7574
 5871TIP3    H239029   1.689   6.529   6.383  1.4477  0.2224 -3.6169
 5872TIP3   OH239030   5.306   5.364  13.996  0.2264  0.0135  0.2347
 5872TIP3    H139031   5.235   5.346  14.056  0.1234  1.1128  0.4572
 5872TIP3    H239032   5.270   5.427  13.934  0.5786 -0.4949 -0.5162
 5873TIP3   OH239033   6.453   2.865   1.313  0.1002  0.0420  0.2509
 5873TIP3    H139034   6.366   2.825   1.307  0.7264 -1.1534 -1.6066
 5873TIP3    H239035   6.499   2.835   1.235  1.5303  2.3103  0.1232
 5874TIP3   OH239036   3.094   6.409  16.575 -0.5021  0.4209 -0.0675
 5874TIP3    H139037   3.003   6.384  16.558 -0.9332  0.9635  1.2887
 5874TIP3    H239038   3.131   6.332  16.618 -0.6406  0.5975  0.3726
 5875TIP3   OH239039   0.545   1.831   3.552  0.4740 -0.4930 -0.0448
 5875TIP3    H139040   0.529   1.829   3.458 -1.9615 -0.8051  0.3065
 5875TIP3    H239041   0.546   1.924   3.574  0.0544 -0.4390 -0.2453
 5876TIP3   OH239042   6.533   6.131   0.690 -0.2150 -0.9219  0.1988
 5876TIP3    H139043   6.460   6.150   0.749 -0.4067 -3.2675  0.7961
 5876TIP3    H239044   6.505   6.166   0.605 -1.6599 -1.0092  0.6161
 5877TIP3   OH239045   4.419   0.530  14.370 -0.0001  0.3588 -0.4346
 5877TIP3    H139046   4.414   0.464  14.300 -0.2083 -1.3892  1.1317
 5877TIP3    H239047   4.402   0.613  14.326 -1.5781 -0.8196 -2.2367
 5878TIP3   OH239048   6.502   4.200   1.715 -0.3267 -0.6086  0.6681
 5878TIP3    H139049   6.524   4.277   1.768 -1.4724  0.3068 -0.1343
 5878TIP3    H239050   6.495   4.233   1.626 -1.5648 -1.4814  0.4075
 5879TIP3   OH239051   4.446   0.601  13.082 -0.0550  0.4801 -0.3645
 5879TIP3    H139052   4.442   0.551  13.164 -0.9743 -0.2680 -0.8533
 5879TIP3    H239053   4.535   0.638  13.082  0.3839 -0.5053  0.3896
 5880TIP3   OH239054   5.963   6.466   1.098  0.2243 -0.2453 -0.3343
 5880TIP3    H139055   5.957   6.410   1.175 -0.2364 -1.3610 -1.1597
 5880TIP3    H239056   5.881   6.516   1.098 -1.7133 -3.0848 -2.1800
 5881TIP3   OH239057   6.334   3.148   1.829  0.3212 -0.8216  0.5061
 5881TIP3    H139058   6.334   3.078   1.894  1.6531 -0.4897  0.8958
 5881TIP3    H239059   6.413   3.133   1.777 -0.9409 -1.3613 -1.3904
 5882TIP3   OH239060   3.537   3.439   3.913  0.2924  0.7683  0.2588
 5882TIP3    H139061   3.507   3.454   3.823 -0.2350 -0.9648  0.0970
 5882TIP3    H239062   3.469   3.384   3.952 -0.5763  3.2208  2.4558
 5883TIP3   OH239063   0.495   1.198  11.098 -0.5273 -0.2559  0.0913
 5883TIP3    H139064   0.445   1.151  11.166  2.1300 -2.6815  0.5844
 5883TIP3    H239065   0.555   1.254  11.147 -0.4742  0.0830 -0.3591
 5884TIP3   OH239066   3.447   1.991  16.344  0.6040 -0.1364  0.2421
 5884TIP3    H139067   3.418   2.082  16.345 -1.5550 -0.7854  1.6515
 5884TIP3    H239068   3.442   1.965  16.252 -2.3498  0.1386  0.2481
 5885TIP3   OH239069   6.363   1.869   3.910 -0.9542  0.5109 -0.2405
 5885TIP3    H139070   6.361   1.943   3.849  1.0683  1.0420  0.2680
 5885TIP3    H239071   6.382   1.793   3.854 -0.7992  0.7349 -0.4951
 5886TIP3   OH239072   3.164   0.449   4.746 -0.0211 -0.0520 -0.1735
 5886TIP3    H139073   3.149   0.505   4.670  1.6166  1.7441  0.7262
 5886TIP3    H239074   3.176   0.511   4.819 -2.8040 -1.6935  1.8670
 5887TIP3   OH239075   0.480   2.500  16.401 -0.4270 -0.1840 -0.1412
 5887TIP3    H139076   0.415   2.464  16.462  0.9283 -2.0334  0.2943
 5887TIP3    H239077   0.487   2.435  16.332  0.9678 -0.0545 -0.1584
 5888TIP3   OH239078   5.486   3.416   4.584 -0.1249  0.2486  0.1724
 5888TIP3    H139079   5.502   3.508   4.606  0.7582  0.0424  0.4537
 5888TIP3    H239080   5.499   3.370   4.667 -1.3181 -0.0581  0.2066
 5889TIP3   OH239081   1.879   5.629  10.380 -0.0360 -0.2054  0.3448
 5889TIP3    H139082   1.902   5.607  10.470  0.5653 -1.5383 -0.1000
 5889TIP3    H239083   1.788   5.659  10.384  0.5071  1.4331  1.6091
 5890TIP3   OH239084   1.564   3.065  16.886  0.8231  0.3278  0.1642
 5890TIP3    H139085   1.483   3.063  16.835  0.9230  0.1174  0.0147
 5890TIP3    H239086   1.570   3.156  16.917  0.9638  0.5580 -0.5235
 5891TIP3   OH239087   4.837   3.898   4.863 -0.0372 -0.3799  0.1049
 5891TIP3    H139088   4.792   3.838   4.804  3.1076 -0.7872 -2.0697
 5891TIP3    H239089   4.766   3.953   4.898 -2.3897 -1.9629 -1.8044
 5892TIP3   OH239090   0.044   1.563   3.458 -0.7573 -0.1163  0.1173
 5892TIP3    H139091   0.026   1.498   3.390  0.4294 -1.0320  0.6526
 5892TIP3    H239092   0.049   1.646   3.411  1.7309 -0.9425 -1.2148
 5893TIP3   OH239093   3.028   1.792  12.627 -0.3940 -0.1087  0.3519
 5893TIP3    H139094   3.047   1.784  12.534 -1.8027 -0.7657  0.0901
 5893TIP3    H239095   2.934   1.774  12.634 -0.6135  1.2966  1.7271
 5894TIP3   OH239096   4.155   4.997   0.828  0.0672  0.1172 -0.5872
 5894TIP3    H139097   4.158   4.907   0.860 -1.7244  0.2014 -0.0922
 5894TIP3    H239098   4.226   5.002   0.764  1.7304 -0.9426  1.0818
 5895TIP3   OH239099   1.762   4.843  17.020  0.3709 -0.0162  0.3400
 5895TIP3    H139100   1.713   4.845  16.939 -1.3344 -0.3598  1.3175
 5895TIP3    H239101   1.819   4.920  17.016 -1.1815  1.1396 -0.2754
 5896TIP3   OH239102   5.144   2.358  14.603 -0.4273 -0.2469 -0.2151
 5896TIP3    H139103   5.219   2.384  14.657 -0.2305 -1.0582 -0.0830
 5896TIP3    H239104   5.069   2.403  14.641  0.1668  1.6115 -1.1181
 5897TIP3   OH239105   1.397   1.683   3.505 -0.5821  0.0572  0.0684
 5897TIP3    H139106   1.370   1.725   3.423 -0.6466 -0.4022 -0.1530
 5897TIP3    H239107   1.342   1.605   3.510  1.0197 -1.1724 -0.6576
 5898TIP3   OH239108   2.871   4.801   2.070 -0.2419  0.1433  0.0593
 5898TIP3    H139109   2.783   4.837   2.055 -0.5925 -0.4561  0.6225
 5898TIP3    H239110   2.864   4.755   2.154  0.1743 -1.2970 -0.6643
 5899TIP3   OH239111   4.675   6.323  17.027  0.3769 -0.5973 -0.3132
 5899TIP3    H139112   4.760   6.308  17.070 -0.1688 -0.0255  1.0260
 5899TIP3    H239113   4.618   6.356  17.097 -1.7400 -3.4185 -0.5530
 5900TIP3   OH239114   4.866   6.699  16.327  0.0436  0.2923 -0.0078
 5900TIP3    H139115   4.923   6.767  16.290 -1.5316  0.9371 -1.3283
 5900TIP3    H239116   4.780   6.716  16.289 -1.0355 -0.7442  1.8272
 5901TIP3   OH239117   0.367   5.543   6.539  0.6899 -0.5851 -0.1045
 5901TIP3    H139118   0.446   5.565   6.488  1.3736 -2.2923  0.1280
 5901TIP3    H239119   0.307   5.506   6.474  0.7944 -0.9453  0.0010
 5902TIP3   OH239120   4.280   1.209  17.048  0.5763  0.0978 -0.3170
 5902TIP3    H139121   4.240   1.284  17.003 -2.7658 -2.2064 -1.6107
 5902TIP3    H239122   4.349   1.180  16.988 -0.9499 -0.3330 -1.9543
 5903TIP3   OH239123   2.630   2.147   6.342 -0.2229  0.5133  0.3591
 5903TIP3    H139124   2.600   2.059   6.319  1.9270  0.5115 -3.0904
 5903TIP3    H239125   2.725   2.144   6.330  0.1774  2.7869  2.2301
 5904TIP3   OH239126   5.080   2.381  15.465 -0.1254  0.1072  0.0424
 5904TIP3    H139127   5.040   2.439  15.530 -0.9254  0.8622 -1.0806
 5904TIP3    H239128   5.066   2.425  15.382  0.2015 -1.2019 -0.7358
 5905TIP3   OH239129   0.350   3.362   4.901 -0.2955 -0.4555 -0.7685
 5905TIP3    H139130   0.415   3.359   4.831 -0.2144  0.2030 -0.7275
 5905TIP3    H239131   0.298   3.440   4.883  0.2500  0.1950  0.3524
 5906TIP3   OH239132   2.125   6.422  15.833  0.1616  0.2102  0.0880
 5906TIP3    H139133   2.165   6.491  15.886  0.8818 -0.4155  0.3871
 5906TIP3    H239134   2.199   6.383  15.786 -0.2865 -0.1152 -0.3627
 5907TIP3   OH239135   2.876   6.339   0.076 -0.3012 -0.0748 -0.7939
 5907TIP3    H139136   2.837   6.316   0.160  1.2279  0.8093  0.1836
 5907TIP3    H239137   2.915   6.257   0.045 -0.8037 -0.3866 -0.6126
 5908TIP3   OH239138   1.119   5.901   5.477  0.4224  0.2049 -0.2034
 5908TIP3    H139139   1.033   5.934   5.503  0.7191  0.4629  0.4776
 5908TIP3    H239140   1.165   5.978   5.443  0.1648 -0.0602 -1.1986
 5909TIP3   OH239141   2.987   0.201   4.260 -0.1420  0.0493  0.4663
 5909TIP3    H139142   3.008   0.110   4.243  0.8527 -0.1324  2.3475
 5909TIP3    H239143   2.956   0.235   4.176  1.2759 -1.5005 -0.7513
 5910TIP3   OH239144   5.116   3.592   3.797 -0.0718 -0.5875  0.0706
 5910TIP3    H139145   5.041   3.650   3.797  0.9327  0.7609 -0.3725
 5910TIP3    H239146   5.169   3.621   3.871 -0.0030 -1.5643  0.4212
 5911TIP3   OH239147   5.858   0.234   3.237  0.6987  0.2782 -0.0441
 5911TIP3    H139148   5.828   0.221   3.147 -2.4811  1.8119  0.6410
 5911TIP3    H239149   5.954   0.227   3.232  0.6287  0.1434 -3.4713
 5912TIP3   OH239150   1.008   2.964   4.004 -0.1238 -0.2547  0.1215
 5912TIP3    H139151   1.011   3.057   4.024  0.8704 -0.0878 -0.6903
 5912TIP3    H239152   0.915   2.940   4.010 -0.6293  1.1784 -1.3594
 5913TIP3   OH239153   1.661   5.391   5.904 -0.2090  0.1664 -0.2904
 5913TIP3    H139154   1.571   5.364   5.924 -0.7334  1.4820 -0.7460
 5913TIP3    H239155   1.666   5.482   5.933  0.3860  0.7097 -1.9543
 5914TIP3   OH239156   3.172   1.653   1.180  0.4690  0.3329 -0.0813
 5914TIP3    H139157   3.248   1.708   1.164  0.3152  0.3742 -0.6933
 5914TIP3    H239158   3.124   1.653   1.097  0.7971 -1.2232 -0.3071
 5915TIP3   OH239159   4.745   1.984  14.770 -0.5129  0.5880 -0.2189
 5915TIP3    H139160   4.830   2.024  14.753 -0.4308  1.4068  1.7675
 5915TIP3    H239161   4.696   2.052  14.818 -1.3677 -0.7359  0.8608
 5916TIP3   OH239162   6.613   0.429  12.723  0.3315  0.3390  0.8536
 5916TIP3    H139163   6.602   0.352  12.778 -3.7791 -1.7914 -2.3802
 5916TIP3    H239164   6.557   0.496  12.763 -0.9229 -0.4707  0.5108
 5917TIP3   OH239165   4.521   1.386  17.301 -0.5417  0.5381  0.4611
 5917TIP3    H139166   4.450   1.441  17.268  0.1439  1.7706  0.9856
 5917TIP3    H239167   4.594   1.402  17.241 -0.5124 -0.2732  0.2682
 5918TIP3   OH239168   1.827   5.600  11.407 -0.0670 -0.0032  0.2507
 5918TIP3    H139169   1.789   5.687  11.417 -0.1334 -0.0265  0.1990
 5918TIP3    H239170   1.805   5.575  11.318 -0.0706 -0.0849  0.2751
 5919TIP3   OH239171   3.603   0.291  12.544  0.0641 -0.1841 -0.1228
 5919TIP3    H139172   3.666   0.232  12.504 -0.3383 -0.8967  0.2591
 5919TIP3    H239173   3.654   0.341  12.608  0.8833  1.5613 -2.0288
 5920TIP3   OH239174   6.191   5.807   0.929 -0.0075 -0.9474 -0.5282
 5920TIP3    H139175   6.102   5.828   0.955 -0.7840  0.7480 -3.9326
 5920TIP3    H239176   6.185   5.720   0.890  0.0724 -1.2712  0.1683
 5921TIP3   OH239177   4.459   0.513   1.969  0.1019  0.1527 -0.3415
 5921TIP3    H139178   4.523   0.442   1.961  2.3094  1.6638  2.1019
 5921TIP3    H239179   4.487   0.579   1.906 -1.1539 -0.5234 -1.6630
 5922TIP3   OH239180   3.484   0.613  12.239  0.1607  0.1779  0.0116
 5922TIP3    H139181   3.458   0.658  12.320  1.2714  1.8681 -0.5082
 5922TIP3    H239182   3.440   0.662  12.170  1.0426  0.2032 -0.5500
 5923TIP3   OH239183   1.966   4.191  14.559  0.2161 -0.1566 -0.0237
 5923TIP3    H139184   1.882   4.235  14.569  1.0383  1.2011  1.3273
 5923TIP3    H239185   1.998   4.220  14.473 -0.9694 -1.2596 -0.8774
 5924TIP3   OH239186   0.880   3.989  11.860  0.0827  0.7643  0.4039
 5924TIP3    H139187   0.971   4.014  11.877  0.1955  0.4766  0.2215
 5924TIP3    H239188   0.857   3.931  11.932  0.1250  0.6311  0.3098
 5925TIP3   OH239189   0.677   1.478   4.213 -0.3731 -1.4665 -0.3201
 5925TIP3    H139190   0.615   1.514   4.149 -0.2838 -1.1775 -0.2462
 5925TIP3    H239191   0.639   1.394   4.238 -1.6696 -0.5214  1.0699
 5926TIP3   OH239192   3.460   2.967  12.099 -0.4007  0.1087  0.2806
 5926TIP3    H139193   3.472   2.951  12.005  0.8657 -2.4523  0.7842
 5926TIP3    H239194   3.489   3.057  12.111  0.1127  0.2661 -1.6770
 5927TIP3   OH239195   1.029   1.462  16.305  0.5265 -0.1043 -0.2871
 5927TIP3    H139196   0.994   1.408  16.376  0.2308  0.2744 -0.1443
 5927TIP3    H239197   0.963   1.454  16.235  0.2487  0.4471 -0.0920
 5928TIP3   OH239198   0.074   4.673   6.755 -0.2238  0.0123  0.4023
 5928TIP3    H139199   0.016   4.726   6.810 -0.1172  1.6175 -0.9750
 5928TIP3    H239200   0.161   4.687   6.792  0.0732  2.2920 -0.9560
 5929TIP3   OH239201   1.555   1.876  11.823  0.2757  0.4842  0.0588
 5929TIP3    H139202   1.635   1.830  11.850 -0.5273 -0.9474  0.0871
 5929TIP3    H239203   1.553   1.868  11.728 -0.3210 -0.3347  0.1337
 5930TIP3   OH239204   5.592   5.088   2.270  0.2960 -0.2573 -0.4923
 5930TIP3    H139205   5.681   5.098   2.302  0.4327  1.8861 -1.4019
 5930TIP3    H239206   5.600   5.031   2.193  0.9344  0.1805 -0.7584
 5931TIP3   OH239207   0.346   0.826  16.917  0.1803 -0.2877 -0.1830
 5931TIP3    H139208   0.272   0.788  16.964  0.5258 -1.0308 -0.2303
 5931TIP3    H239209   0.307   0.874  16.845 -0.2569 -0.6704 -0.2061
 5932TIP3   OH239210   5.514   5.887   1.519 -0.3009 -0.2025 -0.3330
 5932TIP3    H139211   5.448   5.953   1.500  1.7710  1.5625 -1.8945
 5932TIP3    H239212   5.509   5.826   1.446  2.5678  2.3961 -3.0126
 5933TIP3   OH239213   0.866   2.107   5.185  0.0001 -0.3314 -0.5617
 5933TIP3    H139214   0.916   2.123   5.105 -1.6570 -0.6345 -1.7140
 5933TIP3    H239215   0.776   2.098   5.155 -1.0825  2.0293  1.5867
 5934TIP3   OH239216   3.170   0.534  15.791 -0.3195 -0.1290 -0.1931
 5934TIP3    H139217   3.253   0.580  15.778  0.6881 -2.0811 -1.2664
 5934TIP3    H239218   3.116   0.594  15.842  2.1964  0.7285  1.6309
 5935TIP3   OH239219   3.731   0.192  13.135 -0.2293  0.3662  0.6726
 5935TIP3    H139220   3.791   0.260  13.105 -0.6208  0.1534 -0.6797
 5935TIP3    H239221   3.647   0.236  13.144  0.0176  0.5870  2.2357
 5936TIP3   OH239222   1.539   4.555   3.794 -0.2133  0.2294 -0.2413
 5936TIP3    H139223   1.577   4.540   3.881  0.6220  0.2596 -0.5847
 5936TIP3    H239224   1.594   4.502   3.736 -0.0846  1.0534 -0.8822
 5937TIP3   OH239225   4.203   3.262  14.782 -0.6384 -0.0196 -0.0533
 5937TIP3    H139226   4.115   3.288  14.812 -0.9509 -0.6902 -0.3521
 5937TIP3    H239227   4.253   3.252  14.863 -1.5317 -2.0042  0.3262
 5938TIP3   OH239228   0.274   6.709   2.014 -0.2292 -0.1362 -0.3221
 5938TIP3    H139229   0.200   6.769   2.006  0.0196  0.0394 -1.4897
 5938TIP3    H239230   0.343   6.762   2.055 -0.2487  0.1581 -0.6647
 5939TIP3   OH239231   1.059   1.581   0.091 -0.2070  0.2877 -0.3819
 5939TIP3    H139232   1.033   1.571  -0.001  1.4699  1.6757 -1.0577
 5939TIP3    H239233   1.127   1.515   0.104 -1.6111 -1.0717  0.4123
 5940TIP3   OH239234   6.484   6.377  16.069  0.3055  0.0726 -0.2230
 5940TIP3    H139235   6.469   6.469  16.048 -0.0364  0.3432  1.1381
 5940TIP3    H239236   6.490   6.374  16.164  3.0694 -0.9319 -0.3427
 5941TIP3   OH239237   1.418   4.064   0.033 -0.4744  0.0188 -0.1658
 5941TIP3    H139238   1.380   4.136  -0.017 -0.3915  1.4737  1.7577
 5941TIP3    H239239   1.388   4.078   0.123  2.7036 -0.0074  1.0453
 5942TIP3   OH239240   3.926   2.244  12.314  0.0066 -0.0022 -0.1156
 5942TIP3    H139241   3.869   2.173  12.285 -2.2963  0.9071  1.8089
 5942TIP3    H239242   3.908   2.315  12.253 -0.1765 -0.0353 -0.1015
 5943TIP3   OH239243   3.175   3.543  17.104 -0.2261 -0.3420  0.3321
 5943TIP3    H139244   3.111   3.476  17.082 -0.1581 -0.5233  0.6843
 5943TIP3    H239245   3.243   3.533  17.037  0.5508 -1.6694  1.2600
 5944TIP3   OH239246   6.067   0.747  16.864  0.2924  0.1199  0.0238
 5944TIP3    H139247   5.987   0.712  16.824  0.2337 -0.9899  1.0761
 5944TIP3    H239248   6.035   0.800  16.937  0.4335  1.5952 -0.9442
 5945TIP3   OH239249   0.388   3.148   2.296  0.3028 -0.2824 -0.5047
 5945TIP3    H139250   0.459   3.113   2.350 -0.6949  0.3245  1.3008
 5945TIP3    H239251   0.432   3.184   2.219  1.9047 -0.2327  0.3862
 5946TIP3   OH239252   3.767   2.742  12.289 -0.2080 -0.1140 -0.1274
 5946TIP3    H139253   3.746   2.766  12.199  0.8324  0.5347 -0.2102
 5946TIP3    H239254   3.837   2.803  12.315 -0.6385 -0.1484  1.1878
 5947TIP3   OH239255   2.716   0.766   2.340  0.2662 -0.2147 -0.0097
 5947TIP3    H139256   2.668   0.849   2.338 -0.1185 -0.4456 -0.7904
 5947TIP3    H239257   2.687   0.724   2.421 -0.0723  0.0983  0.0360
 5948TIP3   OH239258   0.444   6.017  10.893  0.0296  0.0128 -0.0250
 5948TIP3    H139259   0.435   6.105  10.857  2.0775  0.3596  0.1610
 5948TIP3    H239260   0.370   6.008  10.953 -0.2746  1.5621 -0.1171
 5949TIP3   OH239261   3.349   0.953   6.704 -0.0556 -0.5400  0.4992
 5949TIP3    H139262   3.428   0.901   6.697 -0.3217 -0.8491 -0.2902
 5949TIP3    H239263   3.354   1.015   6.632 -0.8182 -0.9707  0.0609
 5950TIP3   OH239264   2.809   1.265   5.852 -0.0810 -0.1939  0.7386
 5950TIP3    H139265   2.843   1.328   5.788  1.1262 -0.6608  0.9018
 5950TIP3    H239266   2.844   1.294   5.936 -0.6775 -0.2840  1.0266
 5951TIP3   OH239267   5.848   4.068   6.705 -0.2729 -0.1389 -0.3634
 5951TIP3    H139268   5.899   3.987   6.699 -0.1627 -0.2445  1.4107
 5951TIP3    H239269   5.911   4.138   6.691 -0.3581 -0.3301 -1.8559
 5952TIP3   OH239270   1.540   3.491   2.328 -0.5257  0.3332  0.0524
 5952TIP3    H139271   1.538   3.587   2.327  0.7525  0.3754 -0.4258
 5952TIP3    H239272   1.528   3.465   2.237 -0.9085  0.0293  0.1862
 5953TIP3   OH239273   0.114   0.211   5.249  0.4069  0.9984  0.2171
 5953TIP3    H139274   0.108   0.276   5.319 -1.2828  0.4114  0.6439
 5953TIP3    H239275   0.158   0.136   5.289 -0.5308  0.6743  0.6493
 5954TIP3   OH239276   5.993   0.252  15.456  0.6417 -0.1843  0.5145
 5954TIP3    H139277   5.969   0.297  15.375 -1.7183 -0.8045  0.7949
 5954TIP3    H239278   5.914   0.254  15.509  0.4734 -4.1790  0.7483
 5955TIP3   OH239279   1.592   2.432   3.126 -0.2424  0.0920 -0.3529
 5955TIP3    H139280   1.516   2.385   3.092 -1.0776  0.3898  1.0070
 5955TIP3    H239281   1.659   2.423   3.058  0.2668 -4.4818  0.4590
 5956TIP3   OH239282   1.971   3.528   5.028 -0.3656  0.5631  0.4577
 5956TIP3    H139283   1.889   3.500   4.986  0.8084  2.2779 -3.4757
 5956TIP3    H239284   1.981   3.469   5.102 -2.4765 -3.3525 -2.0228
 5957TIP3   OH239285   2.357   5.222  12.015 -0.0106 -0.1398  0.3896
 5957TIP3    H139286   2.429   5.159  12.011 -0.9420 -1.1722 -1.0742
 5957TIP3    H239287   2.325   5.216  12.106  1.4331  0.0077  0.9294
 5958TIP3   OH239288   1.081   5.382   3.617 -0.1804 -0.3895 -0.1249
 5958TIP3    H139289   1.152   5.349   3.563 -2.0776 -3.8375 -0.7719
 5958TIP3    H239290   1.115   5.381   3.706  0.9504 -0.7888 -0.5551
 5959TIP3   OH239291   6.676   6.582  16.542 -0.4873 -0.3039 -0.1648
 5959TIP3    H139292   6.726   6.587  16.623 -2.0852  0.9995  0.8026
 5959TIP3    H239293   6.714   6.508  16.495  1.9912  0.3194  0.7022
 5960TIP3   OH239294   5.610   5.354  11.212  0.2160  0.2958 -0.1511
 5960TIP3    H139295   5.567   5.275  11.179 -0.3747  1.3346 -2.0314
 5960TIP3    H239296   5.703   5.331  11.214  0.1012 -0.3307 -1.0766
 5961TIP3   OH239297   4.289   5.118   2.987  0.0781  0.3143  0.4423
 5961TIP3    H139298   4.277   5.083   3.075 -0.9603 -0.4533  0.0292
 5961TIP3    H239299   4.201   5.147   2.961  0.1849 -0.3123 -0.6755
 5962TIP3   OH239300   0.666   4.201   4.968 -0.1679  0.1381  0.1753
 5962TIP3    H139301   0.600   4.143   5.008  0.7392 -0.1815  1.2558
 5962TIP3    H239302   0.713   4.145   4.907  1.5931 -0.7177  2.1765
 5963TIP3   OH239303   1.377   0.294   0.927 -0.1907  0.0765 -0.0374
 5963TIP3    H139304   1.316   0.294   0.853 -0.9622 -0.9937  0.5705
 5963TIP3    H239305   1.448   0.237   0.900 -0.0311  0.3915 -0.2908
 5964TIP3   OH239306   3.235   4.861  12.883 -0.4299  0.1448  0.7574
 5964TIP3    H139307   3.289   4.784  12.865 -1.1330 -0.1049 -0.3652
 5964TIP3    H239308   3.145   4.830  12.873 -0.8120  0.5808  2.4870
 5965TIP3   OH239309   6.358   3.795   2.797  0.0259 -0.2494 -0.2219
 5965TIP3    H139310   6.390   3.718   2.845 -0.4327 -1.2499 -1.4644
 5965TIP3    H239311   6.302   3.759   2.728 -1.3774  1.2890  0.0384
 5966TIP3   OH239312   5.460   0.055   5.940 -0.4597 -0.1077  0.4314
 5966TIP3    H139313   5.373   0.091   5.958 -0.0961  1.4675 -0.7484
 5966TIP3    H239314   5.453   0.020   5.851  1.0835  3.7748 -1.4836
 5967TIP3   OH239315   2.564   3.840   1.166 -0.4677 -0.1078  0.5516
 5967TIP3    H139316   2.510   3.806   1.237  0.0501  0.6985  1.3510
 5967TIP3    H239317   2.518   3.918   1.135 -0.6390 -0.3978  0.0649
 5968TIP3   OH239318   1.210   4.276   1.604 -0.1532 -0.1910 -0.1950
 5968TIP3    H139319   1.193   4.254   1.696  0.7189  1.2019  0.3378
 5968TIP3    H239320   1.301   4.250   1.591  0.2111  1.0292 -0.1861
 5969TIP3   OH239321   1.204   5.723  11.811 -0.7499  0.3583  0.0785
 5969TIP3    H139322   1.163   5.685  11.733  0.4155  0.2983 -0.5292
 5969TIP3    H239323   1.266   5.787  11.777 -0.8278  0.9329  0.9998
 5970TIP3   OH239324   0.052   3.914  12.669 -0.5834  0.2094  0.1761
 5970TIP3    H139325   0.019   3.838  12.717 -1.9167  0.8192  0.2707
 5970TIP3    H239326   0.088   3.877  12.588  1.5082 -0.8059  1.4731
 5971TIP3   OH239327   1.280   4.974   3.234 -0.4131  0.2997  0.0681
 5971TIP3    H139328   1.272   4.928   3.150 -0.0147  0.7121 -0.2055
 5971TIP3    H239329   1.337   5.049   3.214  1.7624 -0.9429  1.2428
 5972TIP3   OH239330   5.935   0.581   2.264  0.1854  0.0637 -0.4055
 5972TIP3    H139331   5.989   0.527   2.321  0.7367  0.7232 -0.2922
 5972TIP3    H239332   5.909   0.523   2.193  2.8018  0.2347 -1.6101
 5973TIP3   OH239333   0.597   0.003  13.009 -0.4952  0.9148 -0.0828
 5973TIP3    H139334   0.655  -0.063  13.047  0.1340  1.2759 -0.4107
 5973TIP3    H239335   0.525  -0.048  12.970  0.1152  0.4067 -0.5529
 5974TIP3   OH239336   6.340   3.916   2.421  0.4717  0.2725  0.2623
 5974TIP3    H139337   6.340   4.011   2.434  0.9951  0.3097  0.0209
 5974TIP3    H239338   6.384   3.904   2.337 -1.3490 -0.0559 -0.7181
 5975TIP3   OH239339   6.595   3.010  17.014 -0.1504  0.3155  0.2026
 5975TIP3    H139340   6.604   2.926  16.969 -1.1784 -0.3708  1.2328
 5975TIP3    H239341   6.511   3.044  16.982  0.3376  1.0492 -0.3344
 5976TIP3   OH239342   4.561   1.457   0.970  0.2569  0.1003 -0.6122
 5976TIP3    H139343   4.607   1.439   0.888  0.5086 -0.5231 -0.3441
 5976TIP3    H239344   4.600   1.396   1.033  0.9187  1.3871  0.2770
 5977TIP3   OH239345   3.364   0.187   1.988  0.2055  0.0993 -0.4189
 5977TIP3    H139346   3.277   0.221   2.008  0.0917 -0.6020  0.3272
 5977TIP3    H239347   3.399   0.248   1.922  0.2104  1.9351  1.2028
 5978TIP3   OH239348   6.433   4.956   6.372 -0.2211 -0.2789 -0.0296
 5978TIP3    H139349   6.484   4.975   6.450 -0.9235  1.1407  0.1006
 5978TIP3    H239350   6.401   4.867   6.386 -0.3714 -0.0317  1.3202
 5979TIP3   OH239351   6.184   6.585  15.286  0.1867 -0.4865  0.0840
 5979TIP3    H139352   6.152   6.500  15.258  2.6107 -1.1147 -1.0588
 5979TIP3    H239353   6.134   6.605  15.365 -2.8340 -1.3566 -1.4223
 5980TIP3   OH239354   0.742   4.217   5.587  0.1181  0.7652 -0.1014
 5980TIP3    H139355   0.780   4.234   5.673 -0.4825  1.1480  0.0912
 5980TIP3    H239356   0.818   4.202   5.530  0.4957 -1.7211  0.9263
 5981TIP3   OH239357   1.847   5.496   0.773  0.1832 -0.2184  0.3574
 5981TIP3    H139358   1.797   5.435   0.718  0.9366 -0.5047 -0.0152
 5981TIP3    H239359   1.856   5.450   0.856  0.4768 -0.4825  0.1802
 5982TIP3   OH239360   2.966   6.765   3.623 -0.7746 -0.0503  0.0979
 5982TIP3    H139361   2.890   6.727   3.579 -0.5628 -1.3893  0.8693
 5982TIP3    H239362   3.013   6.811   3.553 -1.0702 -1.1394 -0.8352
 5983TIP3   OH239363   4.593   5.005  15.244 -0.2105  0.2493 -0.1801
 5983TIP3    H139364   4.626   5.047  15.165 -0.7495 -3.1014 -2.4283
 5983TIP3    H239365   4.502   5.034  15.250 -0.3403  0.0812 -1.1779
 5984TIP3   OH239366   5.689   4.413  12.245 -0.4425  0.0327  0.0892
 5984TIP3    H139367   5.769   4.460  12.267 -0.8733 -0.1022  2.1952
 5984TIP3    H239368   5.697   4.330  12.291 -1.5048 -0.2599 -0.2326
 5985TIP3   OH239369   4.117   0.398  12.673 -0.1965  0.3390 -0.2248
 5985TIP3    H139370   4.169   0.395  12.754  0.1730 -2.5272 -0.4474
 5985TIP3    H239371   4.167   0.454  12.614  2.1396 -1.3986 -0.0274
 5986TIP3   OH239372   4.292   3.642  16.620  0.2211  0.2917 -0.2522
 5986TIP3    H139373   4.359   3.674  16.680  1.3457  1.1100 -1.8752
 5986TIP3    H239374   4.244   3.720  16.592 -0.3956 -0.0935 -0.3044
 5987TIP3   OH239375   5.903   0.355  17.070 -0.3666  0.1660  0.4375
 5987TIP3    H139376   5.833   0.386  17.013 -0.4097 -1.7943 -0.6544
 5987TIP3    H239377   5.875   0.380  17.158 -1.3914  1.2755 -0.1773
 5988TIP3   OH239378   3.800   1.002  12.854  0.0968 -0.0041 -0.4410
 5988TIP3    H139379   3.790   1.050  12.936  1.9402 -0.7199  0.2495
 5988TIP3    H239380   3.867   1.049  12.805  3.6674 -2.8957  1.2269
 5989TIP3   OH239381   4.042   1.826   6.020 -0.3710 -0.0240  0.2273
 5989TIP3    H139382   4.011   1.839   5.931  0.4417  2.4158  0.2090
 5989TIP3    H239383   4.133   1.857   6.019  0.1771 -1.4642  1.5535
 5990TIP3   OH239384   3.204   2.564   5.367  0.2383  0.1123  0.5854
 5990TIP3    H139385   3.190   2.516   5.449 -0.1063 -0.6174  0.1101
 5990TIP3    H239386   3.126   2.545   5.314  0.1642  1.0739  0.3147
 5991TIP3   OH239387   6.483   2.579  14.941 -0.0248 -0.1711  0.2081
 5991TIP3    H139388   6.539   2.574  15.019  0.3568 -1.4040 -0.1173
 5991TIP3    H239389   6.543   2.601  14.870 -0.0161 -0.9854 -0.0532
 5992TIP3   OH239390   0.913   5.957  12.991  0.0576 -0.4884  0.7856
 5992TIP3    H139391   0.917   5.892  12.921 -3.7226 -0.5204  0.4216
 5992TIP3    H239392   0.857   5.918  13.057 -0.9994  1.7260  1.2903
 5993TIP3   OH239393   6.549   3.203  11.005 -0.0688  0.1151  0.1868
 5993TIP3    H139394   6.543   3.155  10.923 -1.7541  0.4352  0.0904
 5993TIP3    H239395   6.459   3.223  11.028  0.4175  0.6484  1.7649
 5994TIP3   OH239396   4.340   3.171   0.882  0.0054 -0.1466  0.5880
 5994TIP3    H139397   4.313   3.260   0.905  0.6060  0.2712 -0.2708
 5994TIP3    H239398   4.283   3.147   0.809 -0.5304 -0.6924  1.1724
 5995TIP3   OH239399   2.575   4.341   4.479 -0.2948  0.9875 -0.4938
 5995TIP3    H139400   2.618   4.281   4.541 -0.2224  1.6489  0.1166
 5995TIP3    H239401   2.590   4.428   4.517 -0.9349  1.3391 -1.0372
 5996TIP3   OH239402   2.831   0.107   5.071  0.7065 -0.2485  0.2947
 5996TIP3    H139403   2.784   0.174   5.120  0.3350 -0.9653  0.9408
 5996TIP3    H239404   2.908   0.089   5.125  0.6713 -0.5250  0.2517
 5997TIP3   OH239405   4.835   0.042  16.603 -0.4977  0.4970  0.2735
 5997TIP3    H139406   4.921   0.001  16.611 -0.9240 -0.8570 -1.4537
 5997TIP3    H239407   4.851   0.135  16.621  1.4373  0.3763 -0.5751
 5998TIP3   OH239408   0.943   2.362  16.530  0.1444 -0.5532 -0.3271
 5998TIP3    H139409   0.877   2.320  16.584 -0.0217  0.7064  0.4912
 5998TIP3    H239410   0.975   2.292  16.473 -1.4437 -1.3320 -0.3250
 5999TIP3   OH239411   4.656   1.913  11.641  0.0383  0.2699 -0.7753
 5999TIP3    H139412   4.607   1.943  11.717 -0.2701  0.5810 -1.0898
 5999TIP3    H239413   4.619   1.827  11.621  0.2528  0.1026 -0.4604
 6000TIP3   OH239414   6.084   1.747   2.159 -0.4475  0.1818  0.3289
 6000TIP3    H139415   6.157   1.772   2.102 -0.4893  1.0506  0.6360
 6000TIP3    H239416   6.118   1.673   2.210 -0.6941 -1.1658 -1.3762
 6001TIP3   OH239417   3.539   4.822   3.379  0.3670  0.5320 -0.4882
 6001TIP3    H139418   3.553   4.904   3.426 -0.3242  0.1526  0.4137
 6001TIP3    H239419   3.627   4.788   3.361  0.6406  0.9947 -0.0177
 6002TIP3   OH239420   6.022   2.223   4.138  0.2633 -0.4636 -0.1372
 6002TIP3    H139421   6.038   2.130   4.123 -0.2934 -0.7417  0.9261
 6002TIP3    H239422   6.097   2.252   4.191  1.0282 -0.0228 -1.4175
 6003TIP3   OH239423   4.590   5.156   4.744  0.3654 -0.4140  0.0811
 6003TIP3    H139424   4.676   5.118   4.729  1.2258  0.7596  1.6551
 6003TIP3    H239425   4.528   5.087   4.723  1.7001 -1.3333 -0.9347
 6004TIP3   OH239426   4.993   2.981   4.910  0.5765  0.0846 -0.5287
 6004TIP3    H139427   4.900   2.998   4.892  0.0064 -2.1889  0.0159
 6004TIP3    H239428   5.018   3.050   4.971 -0.1970  1.8878 -2.1460
 6005TIP3   OH239429   3.239   3.010   2.503 -0.2569  0.7294 -0.5772
 6005TIP3    H139430   3.196   2.939   2.550 -1.1254  1.3648 -0.3719
 6005TIP3    H239431   3.223   3.087   2.558  0.5590  1.1021 -0.8557
 6006TIP3   OH239432   5.086   4.977   0.575 -0.2457 -0.7116  0.0979
 6006TIP3    H139433   5.051   5.017   0.496  1.1057 -0.7442 -0.5590
 6006TIP3    H239434   5.136   4.901   0.543 -0.3635 -1.2112  1.0592
 6007TIP3   OH239435   5.536   5.612  12.048 -0.1574 -0.6824 -0.4963
 6007TIP3    H139436   5.520   5.646  12.136  2.8966  0.9154 -0.4327
 6007TIP3    H239437   5.452   5.620  12.003 -1.0792  1.2583  1.4099
 6008TIP3   OH239438   0.746   1.828   4.604 -0.5860  0.1762 -0.2275
 6008TIP3    H139439   0.732   1.756   4.542 -0.0287 -0.1147 -0.0127
 6008TIP3    H239440   0.785   1.897   4.551 -2.2327  0.7994 -0.7159
 6009TIP3   OH239441   2.376   0.266  13.942  0.3167 -0.0414  0.5459
 6009TIP3    H139442   2.314   0.337  13.921  0.6385  0.4493  1.2142
 6009TIP3    H239443   2.400   0.282  14.033  2.7288  0.8134 -0.1566
 6010TIP3   OH239444   4.065   4.769   5.919 -0.6186  0.2262  0.0907
 6010TIP3    H139445   3.984   4.747   5.966  0.0210 -1.7140  0.4044
 6010TIP3    H239446   4.036   4.809   5.838 -1.9129 -0.6432  0.0957
 6011TIP3   OH239447   0.602   6.590   2.900 -0.0260 -0.1676 -0.1239
 6011TIP3    H139448   0.591   6.618   2.991 -2.2877 -0.1961 -0.3304
 6011TIP3    H239449   0.622   6.670   2.852 -0.7936  0.1865  0.1294
 6012TIP3   OH239450   6.548   4.332  11.680 -0.1270 -0.7128 -0.5676
 6012TIP3    H139451   6.559   4.260  11.741  3.6341  0.2658  0.1810
 6012TIP3    H239452   6.503   4.293  11.605  0.6532 -3.5350  0.2915
 6013TIP3   OH239453   1.359   1.850   5.972 -0.3938  0.4549  0.1114
 6013TIP3    H139454   1.309   1.790   6.027 -1.8323  0.7783 -0.8003
 6013TIP3    H239455   1.343   1.820   5.883  2.3706 -0.4064 -0.1723
 6014TIP3   OH239456   3.464   1.640   2.985 -0.6222 -0.0601 -0.3470
 6014TIP3    H139457   3.390   1.701   2.990 -1.3153 -0.8574 -0.6450
 6014TIP3    H239458   3.469   1.617   2.892 -0.3302 -0.4162 -0.2448
 6015TIP3   OH239459   4.399   2.287   0.134 -0.0322 -0.2716 -0.2276
 6015TIP3    H139460   4.448   2.369   0.138 -0.3970 -0.0975  1.5876
 6015TIP3    H239461   4.420   2.242   0.216 -2.6943 -0.2668  0.5561
 6016TIP3   OH239462   5.533   4.175   4.879  0.3190 -0.4293 -0.5251
 6016TIP3    H139463   5.586   4.231   4.823  0.9050 -0.0635  0.3619
 6016TIP3    H239464   5.590   4.100   4.898  0.7814  0.2479  0.9131
 6017TIP3   OH239465   2.159   6.090   5.054  0.2007  0.2855 -0.0396
 6017TIP3    H139466   2.107   6.148   4.999 -0.6635 -0.1755  0.2793
 6017TIP3    H239467   2.178   6.143   5.132 -1.6610 -0.2201  0.8254
 6018TIP3   OH239468   2.309   1.369  14.148 -0.0025  0.4802  0.0750
 6018TIP3    H139469   2.346   1.457  14.146  0.8965  0.1220  0.3146
 6018TIP3    H239470   2.218   1.380  14.121 -0.3570  1.6898  1.6304
 6019TIP3   OH239471   0.419   2.221   4.407 -0.2352  0.3513  0.0228
 6019TIP3    H139472   0.457   2.284   4.345  1.2417 -0.2075  0.3281
 6019TIP3    H239473   0.449   2.136   4.376  0.0202  0.0204  1.1521
 6020TIP3   OH239474   4.740   5.999  13.828 -0.0872 -0.4969  0.2504
 6020TIP3    H139475   4.755   5.996  13.734  0.5167 -0.9752  0.3560
 6020TIP3    H239476   4.694   5.917  13.848  1.9539 -1.6276  0.7096
 6021TIP3   OH239477   4.384   0.106  12.095  0.4357 -0.1080 -0.0016
 6021TIP3    H139478   4.403   0.024  12.141 -0.9793  0.2046  1.2310
 6021TIP3    H239479   4.366   0.169  12.165 -1.4881  0.4663 -0.9408
 6022TIP3   OH239480   4.262   4.271   4.320 -0.0015  0.9321  0.1394
 6022TIP3    H139481   4.228   4.182   4.329  1.4380  0.1594 -1.4616
 6022TIP3    H239482   4.318   4.283   4.397  1.7573 -0.5647 -0.7978
 6023TIP3   OH239483   2.163   4.458  14.399 -0.1827  0.1799  0.4159
 6023TIP3    H139484   2.252   4.424  14.406  0.2260  1.4545  1.9647
 6023TIP3    H239485   2.171   4.552  14.416 -2.0287  0.0095  2.9195
 6024TIP3   OH239486   5.575   3.513  16.272  0.3364 -0.1641 -0.1731
 6024TIP3    H139487   5.523   3.512  16.192  0.0843 -0.1816 -0.0077
 6024TIP3    H239488   5.662   3.543  16.243 -0.1477  1.2798 -0.2148
 6025TIP3   OH239489   4.655   2.668   3.950 -0.4083  0.5025 -0.7328
 6025TIP3    H139490   4.675   2.617   4.029  0.5585  1.2589 -0.4669
 6025TIP3    H239491   4.734   2.659   3.896  0.4294  2.9066 -0.0308
 6026TIP3   OH239492   0.843   4.603  12.771  0.2627 -0.3382  0.4255
 6026TIP3    H139493   0.762   4.653  12.759  0.0327 -0.9174 -0.4780
 6026TIP3    H239494   0.850   4.548  12.693  1.8191  0.0963  0.2198
 6027TIP3   OH239495   4.587   2.608   3.074 -0.0589 -0.6383  1.4956
 6027TIP3    H139496   4.635   2.681   3.034 -2.2968 -0.9309 -2.1551
 6027TIP3    H239497   4.652   2.563   3.127  2.6926  1.1552 -0.1102
 6028TIP3   OH239498   4.145   4.337  13.439  0.2175 -0.1696  1.0033
 6028TIP3    H139499   4.225   4.285  13.432 -0.8409 -1.7151 -0.3559
 6028TIP3    H239500   4.079   4.276  13.471 -1.2301  0.0914 -1.2754
 6029TIP3   OH239501   3.687   2.561   3.862 -0.0271  0.4760 -0.4485
 6029TIP3    H139502   3.738   2.617   3.803 -0.6444  0.2272 -1.2432
 6029TIP3    H239503   3.702   2.472   3.829  0.1099  0.2752  0.1533
 6030TIP3   OH239504   3.137   6.688  12.948 -0.8269 -0.2502 -0.2216
 6030TIP3    H139505   3.169   6.632  13.018  1.2542  0.7139 -0.3427
 6030TIP3    H239506   3.158   6.640  12.868 -2.6777 -1.0810 -0.2639
 6031TIP3   OH239507   5.359   2.382   2.788  0.0906 -0.1931 -0.2358
 6031TIP3    H139508   5.367   2.314   2.722 -2.1567  0.4901 -1.3308
 6031TIP3    H239509   5.283   2.356   2.840  0.9950 -0.0103  1.2234
 6032TIP3   OH239510   2.038   5.216  14.680 -0.1441  0.6215  0.5365
 6032TIP3    H139511   1.994   5.193  14.762 -2.3604  2.9157  0.1483
 6032TIP3    H239512   2.115   5.265  14.706 -0.4301  0.6854  1.2793
 6033TIP3   OH239513   1.711   6.125   0.024  0.1420 -0.5120  0.2233
 6033TIP3    H139514   1.802   6.099   0.032 -0.4269 -2.6913  0.2112
 6033TIP3    H239515   1.686   6.099  -0.065 -0.0651  1.6695 -0.4306
 6034TIP3   OH239516   0.245   5.108  17.248  0.0914  0.0329  0.0096
 6034TIP3    H139517   0.313   5.132  17.185 -0.6667 -2.3148 -1.8492
 6034TIP3    H239518   0.254   5.013  17.258 -1.3665  0.0091  1.6358
 6035TIP3   OH239519   5.011   0.026   4.513 -0.2364 -0.0736  0.0223
 6035TIP3    H139520   5.009   0.039   4.418 -0.9213  0.6977  0.1309
 6035TIP3    H239521   5.003  -0.069   4.524 -1.5936 -0.0660 -0.6646
 6036TIP3   OH239522   0.084   4.292  14.016  0.2041 -0.7587  0.5727
 6036TIP3    H139523   0.133   4.284  14.098  0.9524 -1.3265  0.0846
 6036TIP3    H239524   0.136   4.244  13.952  0.6049  1.2182 -0.6804
 6037TIP3   OH239525   6.025   5.759   3.384  0.9398 -0.3086 -0.6944
 6037TIP3    H139526   5.968   5.683   3.399 -1.1338  1.3902  0.6719
 6037TIP3    H239527   6.014   5.780   3.292  0.1413 -0.6257 -0.6801
 6038TIP3   OH239528   1.210   1.242   4.861  0.1460  0.1439  0.4077
 6038TIP3    H139529   1.285   1.248   4.921 -0.1696 -0.6173  0.9029
 6038TIP3    H239530   1.208   1.150   4.835 -0.3656  0.2491  0.0693
 6039TIP3   OH239531   2.758   1.935  16.119 -0.5616  0.2424  0.5301
 6039TIP3    H139532   2.752   1.985  16.200 -0.2984  1.5660 -0.2373
 6039TIP3    H239533   2.678   1.957  16.071 -1.1803 -1.2769  0.8055
 6040TIP3   OH239534   4.189   6.599  13.213  0.6606 -0.8726  0.6142
 6040TIP3    H139535   4.240   6.569  13.138  0.0989  0.6327 -0.4091
 6040TIP3    H239536   4.098   6.591  13.185  0.4422 -0.2994  1.1390
 6041TIP3   OH239537   5.223   1.652  14.358 -0.2149 -0.1962 -0.7340
 6041TIP3    H139538   5.269   1.704  14.424  0.4264 -1.5066 -0.0957
 6041TIP3    H239539   5.142   1.700  14.341  0.1901  0.8151  0.0767
 6042TIP3   OH239540   3.919   0.806  13.212  0.3509  0.2303 -0.1127
 6042TIP3    H139541   3.986   0.856  13.165  1.6392 -1.2852  0.0273
 6042TIP3    H239542   3.865   0.872  13.254  1.5582  1.5248 -0.5206
 6043TIP3   OH239543   4.239   6.533  11.554  0.6014  0.3984 -0.1063
 6043TIP3    H139544   4.213   6.444  11.530  0.0016  0.4329  0.3902
 6043TIP3    H239545   4.180   6.590  11.505  0.6645  0.5110 -0.0526
 6044TIP3   OH239546   5.372   0.211  14.377  0.0088  0.1149 -0.6157
 6044TIP3    H139547   5.330   0.137  14.422  0.8857 -0.4600 -0.7157
 6044TIP3    H239548   5.429   0.170  14.313  3.3906  0.6671  1.7527
 6045TIP3   OH239549   2.988   5.747  16.135 -0.0736  0.4567  0.2176
 6045TIP3    H139550   2.965   5.819  16.075 -0.7242  1.9386  2.1403
 6045TIP3    H239551   2.908   5.695  16.140  0.4866 -0.6288 -1.4000
 6046TIP3   OH239552   6.165   4.680   5.116 -0.2925 -0.1074 -0.1653
 6046TIP3    H139553   6.208   4.758   5.152  0.5397 -0.1750 -0.9525
 6046TIP3    H239554   6.152   4.701   5.023  0.5417 -1.1359 -0.5393
 6047TIP3   OH239555   0.321   2.288  15.643 -0.0918  0.8460 -0.1506
 6047TIP3    H139556   0.331   2.198  15.612 -1.7211 -0.4782  2.7354
 6047TIP3    H239557   0.393   2.300  15.705 -0.8085  0.8832  0.7001
 6048TIP3   OH239558   6.568   3.294  16.574  0.2644 -0.1323  0.7255
 6048TIP3    H139559   6.557   3.344  16.655 -0.4918 -0.4941  0.8534
 6048TIP3    H239560   6.643   3.336  16.531 -1.0381  1.9002  0.2629
 6049TIP3   OH239561   2.913   3.559   6.658 -0.1587  0.0265  0.2664
 6049TIP3    H139562   2.914   3.486   6.720 -0.1157 -0.3999 -0.2326
 6049TIP3    H239563   2.821   3.581   6.646 -0.1199  0.8907  1.3807
 6050TIP3   OH239564   0.808   3.579  10.916 -0.0801  0.0369  0.7567
 6050TIP3    H139565   0.835   3.646  10.979 -0.0992  0.4480  0.3336
 6050TIP3    H239566   0.749   3.625  10.856  0.7732 -0.0794 -0.2050
 6051TIP3   OH239567   6.049   6.031   0.817  0.1226  0.2442  1.0331
 6051TIP3    H139568   6.016   6.024   0.907  2.2300 -0.5683  1.8122
 6051TIP3    H239569   6.144   6.037   0.827  0.3599  0.9317 -1.1272
 6052TIP3   OH239570   6.579   2.412  15.588  0.0274  0.4798 -0.6293
 6052TIP3    H139571   6.539   2.406  15.675 -0.1235 -1.4067 -0.7872
 6052TIP3    H239572   6.664   2.368  15.597 -0.4643 -0.7509 -1.6698
 6053TIP3   OH239573   4.343   0.960  12.543  0.3189  0.1207 -0.0091
 6053TIP3    H139574   4.312   1.048  12.564  0.6977  0.1093  0.6450
 6053TIP3    H239575   4.419   0.947  12.601 -0.4998 -1.1120  0.8494
 6054TIP3   OH239576   2.801   1.840   3.200 -0.5768 -0.3091  0.1687
 6054TIP3    H139577   2.837   1.764   3.244 -0.0057 -0.4775 -0.5775
 6054TIP3    H239578   2.874   1.878   3.152 -1.2594 -0.3432 -0.9318
 6055TIP3   OH239579   4.208   0.704   5.717 -0.1912 -0.0486 -0.3885
 6055TIP3    H139580   4.231   0.645   5.788 -1.6721  0.0594  0.2229
 6055TIP3    H239581   4.291   0.721   5.672  0.9423  0.4726  1.7420
 6056TIP3   OH239582   0.691   3.006  10.748  0.4780  0.4731 -0.6536
 6056TIP3    H139583   0.609   3.029  10.791  2.4580  1.8841  2.7712
 6056TIP3    H239584   0.733   3.090  10.729  0.6053 -0.1588 -3.8122
 6057TIP3   OH239585   5.743   2.108   3.929  0.0788 -0.1852  0.4691
 6057TIP3    H139586   5.741   2.075   4.019  0.9681 -0.4216  0.4052
 6057TIP3    H239587   5.660   2.078   3.892  0.3252 -1.3003  0.7898
 6058TIP3   OH239588   4.437   5.688  15.983  0.3127  0.3286 -0.0950
 6058TIP3    H139589   4.427   5.621  15.915 -1.1708  0.6139 -0.1974
 6058TIP3    H239590   4.530   5.713  15.979  0.5517 -0.6466 -1.0639
 6059TIP3   OH239591   4.951   3.891  16.262  0.2153 -0.2894 -0.0695
 6059TIP3    H139592   4.867   3.869  16.222  0.7074 -0.3466 -1.0927
 6059TIP3    H239593   5.013   3.829  16.225  0.8772  0.3194 -0.0124
 6060TIP3   OH239594   6.626   1.037   4.804 -1.3496  0.5149  0.0624
 6060TIP3    H139595   6.641   1.129   4.780 -1.4859  0.2681 -1.0264
 6060TIP3    H239596   6.624   0.991   4.720  0.4675 -0.7662  0.6553
 6061TIP3   OH239597   3.975   1.158  16.062 -0.9260  0.2938 -0.6242
 6061TIP3    H139598   4.063   1.122  16.056 -1.9108 -2.7457  1.0338
 6061TIP3    H239599   3.930   1.125  15.985 -0.5460  2.4112 -1.8431
 6062TIP3   OH239600   4.143   2.153   0.249  0.0371 -0.1505  0.2901
 6062TIP3    H139601   4.086   2.114   0.182 -1.6248 -0.1844  1.6602
 6062TIP3    H239602   4.175   2.234   0.209  0.2175 -0.8496 -1.0450
 6063TIP3   OH239603   5.341   2.973  14.786  0.5300 -0.0619  0.0090
 6063TIP3    H139604   5.295   2.892  14.806  0.5636 -0.2702 -0.7131
 6063TIP3    H239605   5.274   3.041  14.789  0.3810 -0.2096  0.0219
 6064TIP3   OH239606   4.463   5.422  14.207  0.2772  0.0247  0.5899
 6064TIP3    H139607   4.502   5.338  14.232 -0.2708 -0.6547 -0.7315
 6064TIP3    H239608   4.379   5.425  14.254 -1.6393 -2.1085 -2.3185
 6065TIP3   OH239609   3.351   3.741   4.385 -0.0236 -0.1607  0.8416
 6065TIP3    H139610   3.426   3.690   4.416  1.4162  1.4832  0.2369
 6065TIP3    H239611   3.326   3.698   4.303  2.4473  1.1331 -0.7161
 6066TIP3   OH239612   3.558   2.267   0.118  0.1054  0.3357 -0.2397
 6066TIP3    H139613   3.547   2.328   0.190 -0.4278 -1.0407  0.8918
 6066TIP3    H239614   3.601   2.318   0.050  2.8046  1.0837  1.8813
 6067TIP3   OH239615   1.222   3.207   3.128 -0.1275 -0.4922 -0.1115
 6067TIP3    H139616   1.176   3.237   3.207 -0.4897 -1.7015  0.1519
 6067TIP3    H239617   1.247   3.117   3.148  1.8855 -0.0470 -0.4722
 6068TIP3   OH239618   0.191   6.543  13.462 -0.1225 -0.4100  0.7194
 6068TIP3    H139619   0.172   6.633  13.434 -1.9341 -1.5495 -2.1837
 6068TIP3    H239620   0.272   6.520  13.415  0.4662 -0.2527  1.6395
 6069TIP3   OH239621   5.480   3.698   4.611 -0.3750 -0.9113 -0.4244
 6069TIP3    H139622   5.415   3.768   4.604 -0.5506 -0.9837  0.3317
 6069TIP3    H239623   5.564   3.743   4.605 -0.4775 -0.5439  0.6587
 6070TIP3   OH239624   0.844   1.038   6.255  0.7560 -0.2949 -0.3667
 6070TIP3    H139625   0.773   1.030   6.192  2.2640 -1.0644 -2.0769
 6070TIP3    H239626   0.839   0.959   6.308  0.1813 -0.1987 -0.2695
 6071TIP3   OH239627   0.710   2.213   4.065  0.2003 -0.0308  0.1381
 6071TIP3    H139628   0.790   2.160   4.058 -0.8613 -1.8155  0.9240
 6071TIP3    H239629   0.718   2.258   4.149  0.9942  0.9273 -0.4232
 6072TIP3   OH239630   0.802   2.860  11.158 -0.6560  0.5387  0.1330
 6072TIP3    H139631   0.806   2.955  11.149  2.6138  0.4886  0.0401
 6072TIP3    H239632   0.725   2.835  11.106 -0.7621  2.9868 -1.0399
 6073TIP3   OH239633   2.650   0.402  14.385 -0.5454  0.2993  0.0266
 6073TIP3    H139634   2.627   0.374  14.473 -0.6860  0.5717  0.0776
 6073TIP3    H239635   2.728   0.351  14.363  0.2006  1.0745  0.7700
 6074TIP3   OH239636   0.041   6.636  11.656  0.0296  0.7130 -0.4614
 6074TIP3    H139637  -0.019   6.576  11.611 -0.1717  0.0145  0.6834
 6074TIP3    H239638   0.123   6.629  11.608 -0.0152 -0.4428 -0.4000
 6075TIP3   OH239639   3.441   5.929   0.831 -0.7816  0.2046  0.1363
 6075TIP3    H139640   3.411   5.947   0.919  0.8375 -3.9275  1.7874
 6075TIP3    H239641   3.470   6.014   0.797 -0.9655  1.8679  3.7423
 6076TIP3   OH239642   2.685   5.017  10.933  0.6001  0.3709  0.3414
 6076TIP3    H139643   2.672   5.071  10.855  1.1050 -0.9008 -0.6600
 6076TIP3    H239644   2.777   4.992  10.931  0.2867 -0.9039  0.5105
 6077TIP3   OH239645   4.159   2.954   3.450  0.9787 -0.5231  0.1201
 6077TIP3    H139646   4.115   3.004   3.380  0.7412  0.7977  1.1703
 6077TIP3    H239647   4.131   2.863   3.435  0.3032 -0.1585 -1.0255
 6078TIP3   OH239648   3.483   1.922  17.030  0.3056  0.0124  0.0378
 6078TIP3    H139649   3.438   1.881  16.955  0.3060  1.3079 -0.6928
 6078TIP3    H239650   3.506   2.009  16.999  2.9008 -0.4171  0.5569
 6079TIP3   OH239651   2.388   2.255  16.808  0.3282  0.0375  0.2400
 6079TIP3    H139652   2.462   2.257  16.868 -0.5137  0.8265  1.2926
 6079TIP3    H239653   2.339   2.335  16.828 -1.0255 -0.6701 -0.1477
 6080TIP3   OH239654   4.521   1.329  14.349 -0.2323  0.0479 -0.4181
 6080TIP3    H139655   4.479   1.401  14.301 -0.3377 -1.0429 -2.0198
 6080TIP3    H239656   4.467   1.252  14.330  0.8980 -0.8147 -0.2353
 6081TIP3   OH239657   4.843   5.334   1.698 -0.5905  0.2798 -0.3506
 6081TIP3    H139658   4.780   5.355   1.629 -0.1375  0.4866 -0.7018
 6081TIP3    H239659   4.876   5.418   1.727 -1.8643  0.2954  1.1631
 6082TIP3   OH239660   4.132   5.538  12.189  0.5652  0.1846 -0.1771
 6082TIP3    H139661   4.095   5.553  12.276  0.2357 -2.0578  0.1263
 6082TIP3    H239662   4.069   5.578  12.129  1.0259  2.1682  0.5662
 6083TIP3   OH239663   5.964   0.682   3.871 -1.1193 -0.0789 -0.5375
 6083TIP3    H139664   5.950   0.719   3.959 -0.0838 -0.7132 -0.0843
 6083TIP3    H239665   6.040   0.625   3.881 -0.5862  0.3301 -1.9982
 6084TIP3   OH239666   4.945   2.093  17.125 -0.5819 -0.1452 -0.0063
 6084TIP3    H139667   5.029   2.056  17.097 -0.5369  0.0579 -0.1456
 6084TIP3    H239668   4.959   2.188  17.122 -1.9419  0.0905 -3.6611
 6085TIP3   OH239669   0.607   4.058  15.479 -0.0665 -0.1318  0.2741
 6085TIP3    H139670   0.634   3.984  15.534  0.4900 -0.3182 -0.2473
 6085TIP3    H239671   0.689   4.099  15.452 -0.3428  0.0783 -0.2553
 6086TIP3   OH239672   2.110   3.105   5.180  0.3043 -0.4680  0.7842
 6086TIP3    H139673   2.137   3.047   5.108 -0.7020  0.6369 -0.5347
 6086TIP3    H239674   2.130   3.193   5.149 -1.9792  0.1857  0.9716
 6087TIP3   OH239675   3.660   6.140   4.333 -0.3177  0.1284 -0.1419
 6087TIP3    H139676   3.588   6.094   4.290 -0.9596 -0.8200  1.8066
 6087TIP3    H239677   3.623   6.226   4.356 -0.0824  0.5026 -1.1091
 6088TIP3   OH239678   1.415   2.039   3.954 -0.0532 -0.5951 -0.1093
 6088TIP3    H139679   1.328   2.003   3.971  0.4393 -2.4396 -1.2180
 6088TIP3    H239680   1.431   2.023   3.861  1.0395  0.7176 -0.1846
 6089TIP3   OH239681   3.330   0.017  11.962  0.3446 -0.5846 -0.3263
 6089TIP3    H139682   3.403   0.003  11.903  0.3283  0.6562 -0.6645
 6089TIP3    H239683   3.349   0.100  12.005 -0.4394 -0.6720  0.2199
 6090TIP3   OH239684   4.835   3.129  13.821 -0.7000  0.1191  0.0925
 6090TIP3    H139685   4.857   3.220  13.800 -0.9099  0.2841  0.5856
 6090TIP3    H239686   4.743   3.121  13.798 -1.5057  0.8689  2.7288
 6091TIP3   OH239687   3.330   3.945   5.974 -0.2450  0.3871 -0.5842
 6091TIP3    H139688   3.347   3.877   6.040 -1.5677 -0.3366 -0.9467
 6091TIP3    H239689   3.360   4.026   6.014  1.7934 -0.4381 -0.2968
 6092TIP3   OH239690   6.235   1.866   5.784  0.5833 -0.4404  0.0168
 6092TIP3    H139691   6.147   1.899   5.772  0.4543 -0.6755  0.2892
 6092TIP3    H239692   6.239   1.787   5.730  0.8581 -0.0404 -0.5564
 6093TIP3   OH239693   5.181   2.312  15.918 -0.1869  0.4573 -0.5134
 6093TIP3    H139694   5.245   2.327  15.848  1.6269 -0.4858  0.8687
 6093TIP3    H239695   5.190   2.220  15.939 -1.0684  0.6169  0.6453
 6094TIP3   OH239696   4.226   3.954   2.835  0.0246  0.2673  0.4766
 6094TIP3    H139697   4.246   4.039   2.797 -0.4560  0.8650  1.5387
 6094TIP3    H239698   4.301   3.935   2.891 -0.0854  0.2021  0.6005
 6095TIP3   OH239699   5.442   5.757   3.473  0.4815  0.5614  0.7445
 6095TIP3    H139700   5.457   5.671   3.432 -0.4358  0.2395  1.0661
 6095TIP3    H239701   5.476   5.820   3.410 -0.1253  0.0314 -0.1337
 6096TIP3   OH239702   5.058   4.761  12.067  0.1456  0.0760  0.6251
 6096TIP3    H139703   5.153   4.768  12.052 -0.1316  0.4634 -1.1511
 6096TIP3    H239704   5.038   4.833  12.127  0.7132  1.2407 -0.5175
 6097TIP3   OH239705   2.365   5.049  15.946  0.3077  0.3048  0.0107
 6097TIP3    H139706   2.422   5.111  15.990 -0.2354  0.3884  0.6119
 6097TIP3    H239707   2.308   5.103  15.892  0.4577  0.2607 -0.1912
 6098TIP3   OH239708   2.715   4.213   4.266 -0.1674  0.2335  0.4648
 6098TIP3    H139709   2.691   4.230   4.175 -1.5203 -0.0773  0.7309
 6098TIP3    H239710   2.643   4.251   4.317  0.2003 -0.2383  1.3573
 6099TIP3   OH239711   4.387   6.764   5.491 -0.1132  0.2833  0.3162
 6099TIP3    H139712   4.421   6.845   5.530  1.4906  0.5242 -1.4580
 6099TIP3    H239713   4.299   6.787   5.461 -0.2073  0.9557  1.0865
 6100TIP3   OH239714   1.019   6.520   5.119  0.5723  0.1218 -0.6062
 6100TIP3    H139715   0.969   6.483   5.191 -0.0121  1.1749 -0.4525
 6100TIP3    H239716   1.040   6.445   5.063  0.2048 -0.5616  0.1571
 6101TIP3   OH239717   3.207   1.261  11.030 -0.1280 -0.0923 -0.4237
 6101TIP3    H139718   3.266   1.300  11.094  0.0216  1.2945 -1.3539
 6101TIP3    H239719   3.264   1.237  10.957 -0.6890  1.3670 -1.3827
 6102TIP3   OH239720   2.963   1.044  15.242  0.8217  0.7236 -0.2669
 6102TIP3    H139721   3.020   1.023  15.316 -1.4747 -0.2972  1.3020
 6102TIP3    H239722   3.008   1.007  15.166  0.9427 -2.6373  1.2833
 6103TIP3   OH239723   0.715   3.444  11.692 -0.3265  0.7528 -0.2703
 6103TIP3    H139724   0.803   3.416  11.668 -0.4788  0.5867 -0.6332
 6103TIP3    H239725   0.657   3.377  11.656 -0.5625  0.5216  0.5112
 6104TIP3   OH239726   1.973   3.923  15.294 -0.1417 -0.3262  0.8537
 6104TIP3    H139727   1.982   3.841  15.342 -1.4299 -1.4492 -0.6811
 6104TIP3    H239728   1.912   3.975  15.345  1.8027  0.3479  2.6036
 6105TIP3   OH239729   6.666   1.291   0.778  0.9647  0.0087  0.4719
 6105TIP3    H139730   6.718   1.371   0.784  1.2750 -0.1853  0.4036
 6105TIP3    H239731   6.600   1.310   0.711  1.3478  0.0388  0.1019
 6106TIP3   OH239732   1.573   1.712  15.242 -0.6106  0.4825 -0.0820
 6106TIP3    H139733   1.648   1.658  15.216 -0.2106  1.2279 -0.5080
 6106TIP3    H239734   1.511   1.703  15.170 -0.7796  0.1492  0.1044
 6107TIP3   OH239735   1.287   1.299   4.107 -0.0335  0.1089 -0.1000
 6107TIP3    H139736   1.237   1.264   4.181  0.1723 -0.1850 -0.0976
 6107TIP3    H239737   1.233   1.279   4.030 -0.1474  0.2215 -0.0484
 6108TIP3   OH239738   1.096   0.439  11.735  0.2189  0.3494 -0.1661
 6108TIP3    H139739   1.100   0.354  11.778 -1.1838  0.5727  0.4695
 6108TIP3    H239740   1.082   0.501  11.807  0.6265  1.0524 -0.6807
 6109TIP3   OH239741   3.406   0.593  11.864  0.4436  0.2489  0.4059
 6109TIP3    H139742   3.431   0.684  11.882 -0.2252  0.9943 -2.1304
 6109TIP3    H239743   3.488   0.544  11.872  1.4314  1.5629 -1.0619
 6110TIP3   OH239744   2.016   1.839  14.179  0.1342 -0.5237 -0.3667
 6110TIP3    H139745   1.942   1.789  14.211  0.6658 -1.8146 -1.0988
 6110TIP3    H239746   2.067   1.859  14.258  0.3397 -1.8518 -0.1477
 6111TIP3   OH239747   5.037   2.563   2.614 -0.3348  0.1533  0.0636
 6111TIP3    H139748   5.075   2.560   2.702 -0.7699  0.8735  0.2823
 6111TIP3    H239749   5.091   2.627   2.568  0.4286 -0.8439 -0.4638
 6112TIP3   OH239750   5.267   3.220  11.277 -0.1898 -0.7154 -0.0503
 6112TIP3    H139751   5.243   3.266  11.358  0.0775 -1.4261  0.4420
 6112TIP3    H239752   5.262   3.287  11.209  1.2149  0.3221  0.7995
 6113TIP3   OH239753   1.668   4.571  12.043  0.2779  0.1629 -0.0941
 6113TIP3    H139754   1.600   4.565  12.110  1.3658  0.7187  1.1034
 6113TIP3    H239755   1.742   4.613  12.087  0.2236  2.8772 -2.2591
 6114TIP3   OH239756   1.537   2.917   5.830  0.2014  0.0428  0.1044
 6114TIP3    H139757   1.546   3.007   5.800 -0.6674  0.6613  1.5872
 6114TIP3    H239758   1.443   2.902   5.835  0.3318 -0.7959  0.3088
 6115TIP3   OH239759   6.779   3.625  12.685  0.9840 -0.2622  0.5894
 6115TIP3    H139760   6.833   3.548  12.670  2.6700  0.6936  1.4452
 6115TIP3    H239761   6.740   3.611  12.771  1.7375  0.0606  0.9942
 6116TIP3   OH239762   3.354   4.909   2.920 -0.0283 -0.2996  0.3034
 6116TIP3    H139763   3.402   4.906   3.003  1.9420  4.5364 -0.3640
 6116TIP3    H239764   3.265   4.935   2.946  0.3216  0.2420  1.0184
 6117TIP3   OH239765   4.366   0.649  15.668  0.9823 -0.2532 -0.2482
 6117TIP3    H139766   4.356   0.554  15.680 -0.4858  0.1570  3.1216
 6117TIP3    H239767   4.447   0.671  15.714  1.0952  0.1784 -0.6490
 6118TIP3   OH239768   4.131   5.805   3.926 -0.1020  0.4610 -0.4714
 6118TIP3    H139769   4.207   5.865   3.929  1.3040 -1.1082 -2.2929
 6118TIP3    H239770   4.134   5.767   3.839 -0.6289 -2.6292  0.7416
 6119TIP3   OH239771   2.103   4.876  16.578 -0.0918  0.8190  0.1259
 6119TIP3    H139772   2.146   4.862  16.662 -0.9989 -0.9181  0.3497
 6119TIP3    H239773   2.093   4.788  16.541 -1.2531  1.3921 -1.0086
 6120TIP3   OH239774   4.442   2.882   3.167  0.6199  0.0382 -0.1459
 6120TIP3    H139775   4.456   2.855   3.077  2.3680 -0.8921  0.3595
 6120TIP3    H239776   4.478   2.971   3.172 -0.7591  0.6611 -0.6577
 6121TIP3   OH239777   6.743   1.591  17.189 -0.0671 -0.1830 -0.1295
 6121TIP3    H139778   6.814   1.655  17.197  1.2664 -1.6025 -0.1166
 6121TIP3    H239779   6.783   1.517  17.143 -1.9143 -0.5063 -1.2952
 6122TIP3   OH239780   1.391   4.157  16.017 -0.4882  0.0502  0.3715
 6122TIP3    H139781   1.376   4.249  16.039  0.5459  0.2018  0.4634
 6122TIP3    H239782   1.406   4.157  15.923 -1.0726 -0.1133  0.2694
 6123TIP3   OH239783   5.014   1.204   2.297 -0.1511  0.6347  0.0043
 6123TIP3    H139784   5.097   1.161   2.317 -0.1028  0.9119  0.3991
 6123TIP3    H239785   4.956   1.133   2.270 -0.1987  0.2628  1.0501
 6124TIP3   OH239786   4.942   2.469   3.531  0.8030 -0.2253  0.1073
 6124TIP3    H139787   5.018   2.465   3.590  0.0592 -0.1395  1.1051
 6124TIP3    H239788   4.885   2.398   3.561 -0.6290  1.2451  1.0071
 6125TIP3   OH239789   1.126   0.936  13.459  0.4935  0.2826 -0.5427
 6125TIP3    H139790   1.137   1.030  13.474  1.5108  0.0202  0.5085
 6125TIP3    H239791   1.032   0.921  13.467  0.5697  0.7692  2.1951
 6126TIP3   OH239792   2.666   5.039  14.102 -0.1418  0.3662 -0.4199
 6126TIP3    H139793   2.730   5.043  14.173  0.7064  4.1872 -1.1936
 6126TIP3    H239794   2.585   5.072  14.140 -0.3213  0.2335 -0.6796
 6127TIP3   OH239795   2.436   0.945  14.581  0.0150 -0.4018 -0.1472
 6127TIP3    H139796   2.520   0.955  14.626 -0.0202 -0.8477  0.0192
 6127TIP3    H239797   2.386   0.885  14.637 -1.1926  1.4496  0.8591
 6128TIP3   OH239798   2.404   2.777  13.423  0.3158 -0.0762 -0.2040
 6128TIP3    H139799   2.394   2.861  13.379 -0.0748  0.6498  1.2005
 6128TIP3    H239800   2.397   2.798  13.517  1.2360 -1.5254  0.2259
 6129TIP3   OH239801   3.491   5.833  14.282 -0.1764 -0.1728  0.3517
 6129TIP3    H139802   3.465   5.782  14.205  1.9131 -0.3677 -0.2813
 6129TIP3    H239803   3.486   5.924  14.254 -1.1272 -0.1459  0.5738
 6130TIP3   OH239804   2.293   2.807  16.991 -0.6792 -0.6289 -0.0850
 6130TIP3    H139805   2.318   2.899  16.982 -0.1078 -0.8856 -1.5375
 6130TIP3    H239806   2.203   2.803  16.959 -0.1789 -0.7915 -1.5739
 6131TIP3   OH239807   1.526   1.817  13.878 -0.4938  0.5759  0.0084
 6131TIP3    H139808   1.503   1.900  13.838 -3.2151 -0.7672 -1.4677
 6131TIP3    H239809   1.530   1.836  13.972  0.6655  2.6725 -0.4065
 6132TIP3   OH239810   1.128   6.780   2.403 -0.4754 -0.0700 -0.0135
 6132TIP3    H139811   1.099   6.727   2.329  2.9205  0.9303 -2.2583
 6132TIP3    H239812   1.119   6.721   2.479 -0.7002 -2.3946 -1.7287
 6133TIP3   OH239813   1.961   3.071   1.974 -0.3114  0.2169  0.3600
 6133TIP3    H139814   1.967   3.054   2.068 -0.9646 -1.6211  0.1056
 6133TIP3    H239815   1.871   3.051   1.951  0.1552 -0.6392 -0.8605
 6134TIP3   OH239816   2.094   1.097   2.922  0.4173 -0.2562  0.1535
 6134TIP3    H139817   2.056   1.171   2.969 -0.5514 -0.6139 -0.0470
 6134TIP3    H239818   2.126   1.039   2.991  0.3936 -0.0605  0.3289
 6135TIP3   OH239819   1.772   1.352  13.529  0.5108 -0.2206 -0.6051
 6135TIP3    H139820   1.798   1.411  13.600 -0.4681  0.4221 -0.7613
 6135TIP3    H239821   1.703   1.298  13.568 -0.5122  0.5922 -1.2366
 6136TIP3   OH239822   3.150   1.377   1.246  0.3927 -0.5227 -0.0927
 6136TIP3    H139823   3.207   1.443   1.207  2.4710 -2.1090  0.0761
 6136TIP3    H239824   3.150   1.396   1.339  1.0992 -0.8363 -0.0268
 6137TIP3   OH239825   4.454   5.788  12.042  0.2846 -0.3142 -0.0243
 6137TIP3    H139826   4.538   5.803  12.085  1.5887  1.6620 -2.9149
 6137TIP3    H239827   4.437   5.695  12.055  2.1719 -0.4730  1.8719
 6138TIP3   OH239828   2.796   0.182   3.423 -0.0600  0.0229  0.4267
 6138TIP3    H139829   2.892   0.180   3.420 -0.0870 -0.4384 -0.5902
 6138TIP3    H239830   2.769   0.165   3.332 -1.0873  1.6560  0.3964
 6139TIP3   OH239831   1.290   3.451  12.213  0.4707  0.8297  0.5814
 6139TIP3    H139832   1.359   3.517  12.218 -0.8317  2.2156  1.0528
 6139TIP3    H239833   1.288   3.413  12.301  0.9538  0.4322  0.4248
 6140TIP3   OH239834   4.659   0.664  12.691 -0.1340  0.4828 -0.1726
 6140TIP3    H139835   4.697   0.622  12.768 -0.7114  0.4787  0.1153
 6140TIP3    H239836   4.659   0.595  12.624  1.6926  0.8977 -0.6342
 6141TIP3   OH239837   2.758   4.584   1.299 -0.1993  0.3648 -0.6677
 6141TIP3    H139838   2.685   4.643   1.281 -1.6687 -1.6833 -1.8018
 6141TIP3    H239839   2.769   4.533   1.219  1.6051 -0.3322 -0.0420
 6142TIP3   OH239840   3.769   6.260   5.199  0.2036  0.2224  0.1915
 6142TIP3    H139841   3.815   6.265   5.283 -1.2536 -1.8339  1.1950
 6142TIP3    H239842   3.677   6.267   5.222 -0.1682  0.7981 -1.3962
 6143TIP3   OH239843   4.040   3.028  15.504 -0.2723  0.0237 -0.0158
 6143TIP3    H139844   4.021   3.120  15.521 -0.9103 -0.4376  1.9867
 6143TIP3    H239845   4.062   2.991  15.590 -2.7446 -2.3062 -0.2447
 6144TIP3   OH239846   1.974   0.034  14.332  0.3499  0.0742 -0.8759
 6144TIP3    H139847   2.038  -0.001  14.270 -0.2349 -0.7225 -1.0435
 6144TIP3    H239848   2.026   0.059  14.409  0.7878 -1.1021 -0.7763
 6145TIP3   OH239849   1.734   4.438   4.726 -0.4837  0.0374  0.0988
 6145TIP3    H139850   1.707   4.494   4.799  1.8180 -0.8485  1.7639
 6145TIP3    H239851   1.765   4.358   4.767  1.9368 -0.0859 -1.7317
 6146TIP3   OH239852   1.655   3.127   1.205  0.2478  0.6888  0.1636
 6146TIP3    H139853   1.730   3.075   1.235  0.7227  1.3336  0.1002
 6146TIP3    H239854   1.689   3.216   1.199 -0.2295  0.8040 -0.9344
 6147TIP3   OH239855   4.888   5.265  12.501  0.3239 -0.4219  0.3618
 6147TIP3    H139856   4.853   5.202  12.438  2.7124 -1.7675  0.2765
 6147TIP3    H239857   4.915   5.212  12.575  2.1158  0.5141  0.4254
 6148TIP3   OH239858   2.821   2.658   6.465  0.6645  0.2846 -0.4997
 6148TIP3    H139859   2.856   2.740   6.429  1.1025 -0.0549 -0.8602
 6148TIP3    H239860   2.728   2.675   6.477  1.0483  1.4345  1.1055
 6149TIP3   OH239861   4.808   4.688  12.121  0.1400 -0.1798 -0.4135
 6149TIP3    H139862   4.756   4.609  12.107  1.7065 -1.3645  0.1412
 6149TIP3    H239863   4.894   4.667  12.086  0.9082  0.8898  0.7204
 6150TIP3   OH239864   6.664   5.566  14.487  0.1393 -0.0834  0.1286
 6150TIP3    H139865   6.591   5.621  14.514  0.0954  0.6393 -1.3813
 6150TIP3    H239866   6.722   5.624  14.437  0.6687 -1.1299 -0.5184
 6151TIP3   OH239867   6.546   3.666  13.643  0.2794 -0.0899  0.1366
 6151TIP3    H139868   6.566   3.614  13.565 -0.2399 -0.9975  0.5880
 6151TIP3    H239869   6.617   3.730  13.648  0.4477 -0.1721 -0.9407
 6152TIP3   OH239870   1.150   5.757  15.967 -0.5701  0.1497 -0.1436
 6152TIP3    H139871   1.242   5.772  15.945 -0.3185  0.4096  0.9880
 6152TIP3    H239872   1.139   5.802  16.051 -0.8064 -2.7635  1.5153
 6153TIP3   OH239873   4.554   3.005   2.023 -0.2453  0.2394 -0.1345
 6153TIP3    H139874   4.577   2.914   2.044  0.7164  0.1811 -1.3869
 6153TIP3    H239875   4.478   3.024   2.080 -0.2452 -1.2190  0.3880
 6154TIP3   OH239876   2.871   3.245   5.777  0.2261  0.8303  0.2127
 6154TIP3    H139877   2.928   3.302   5.830  1.5687  0.2477 -0.5455
 6154TIP3    H239878   2.869   3.162   5.824 -0.9997  1.2004  0.8510
 6155TIP3   OH239879   3.785   6.437   0.433 -0.3807  0.4377 -0.5101
 6155TIP3    H139880   3.751   6.468   0.349 -0.4204 -0.6450 -0.9140
 6155TIP3    H239881   3.825   6.352   0.413 -1.6016 -0.5015  0.7765
 6156TIP3   OH239882   6.179   1.341  12.600 -0.0615  0.3287  0.2227
 6156TIP3    H139883   6.193   1.435  12.606  0.5365  0.3784 -1.3545
 6156TIP3    H239884   6.264   1.302  12.620 -0.1836  0.1441  0.3935
 6157TIP3   OH239885   5.347   6.173   0.857  0.2730  0.1023 -0.2438
 6157TIP3    H139886   5.378   6.224   0.782  0.0045 -0.2553 -0.5984
 6157TIP3    H239887   5.325   6.088   0.821  2.6039 -0.9690  0.6413
 6158TIP3   OH239888   6.739   5.047  14.860  0.0419 -0.1440  0.1151
 6158TIP3    H139889   6.700   4.966  14.828  1.3612 -1.4858  1.7719
 6158TIP3    H239890   6.830   5.025  14.878 -0.1294  1.0364  2.8540
 6159TIP3   OH239891   4.145   0.795  11.340  0.1517 -0.0720  0.0303
 6159TIP3    H139892   4.099   0.879  11.336 -1.8001 -1.1162 -1.1021
 6159TIP3    H239893   4.162   0.772  11.249  3.5630  0.5176  0.4007
 6160TIP3   OH239894   2.087   6.507  16.502  0.1223  0.4949 -0.3197
 6160TIP3    H139895   2.175   6.480  16.474 -0.6472 -0.8059 -1.6091
 6160TIP3    H239896   2.042   6.425  16.521 -0.5241  1.1999  1.3402
 6161TIP3   OH239897   0.058   1.142  14.357 -0.2129 -0.1447 -0.0924
 6161TIP3    H139898   0.086   1.051  14.362  1.0187  0.1618 -0.9452
 6161TIP3    H239899  -0.004   1.145  14.284  1.7188  0.1253 -1.8174
 6162TIP3   OH239900   3.334   1.408   1.725  0.3349  0.5643 -0.0151
 6162TIP3    H139901   3.307   1.400   1.817  0.5966 -1.0949 -0.0445
 6162TIP3    H239902   3.394   1.483   1.725 -0.8600  1.5665  0.8526
 6163TIP3   OH239903   3.382   3.972  15.490 -0.2167 -0.0594 -0.1944
 6163TIP3    H139904   3.445   3.952  15.420  0.3899 -0.2356  0.3919
 6163TIP3    H239905   3.429   3.953  15.571 -0.6599  0.8408  0.2938
 6164TIP3   OH239906   2.265   3.333  15.048  0.4454  0.1978  0.1174
 6164TIP3    H139907   2.197   3.395  15.021 -0.2074 -0.0855  1.0415
 6164TIP3    H239908   2.299   3.298  14.966 -1.9828 -1.1769 -0.4295
 6165TIP3   OH239909   6.456   5.660   0.094 -0.2746  0.5842 -0.3043
 6165TIP3    H139910   6.452   5.698   0.182  0.7265  1.1095 -0.4644
 6165TIP3    H239911   6.438   5.734   0.035 -0.6895  0.2892 -0.5472
 6166TIP3   OH239912   1.190   4.067  13.683  0.1670  0.4086 -0.1862
 6166TIP3    H139913   1.135   4.062  13.761 -0.7200 -0.4683 -0.8495
 6166TIP3    H239914   1.134   4.039  13.612  0.5161  2.5205 -1.3967
 6167TIP3   OH239915   3.279   2.874  16.270  0.6770  0.3609  0.2349
 6167TIP3    H139916   3.342   2.828  16.326 -0.5466 -0.5571  0.9065
 6167TIP3    H239917   3.314   2.963  16.262  0.5273  0.7653  3.0911
 6168TIP3   OH239918   5.910   4.602   3.171 -0.3815  0.1973  0.3940
 6168TIP3    H139919   5.872   4.532   3.118 -0.1713  0.2913  0.1126
 6168TIP3    H239920   5.884   4.683   3.126  2.5105  0.2283 -1.5188
 6169TIP3   OH239921   5.747   4.105  13.665 -0.0017 -0.1759 -0.5401
 6169TIP3    H139922   5.750   4.134  13.574 -1.1637 -0.7616 -0.7898
 6169TIP3    H239923   5.711   4.016  13.660 -0.0583 -0.2191  0.4874
 6170TIP3   OH239924   0.521   2.905   2.011  0.4349  0.3014  0.3775
 6170TIP3    H139925   0.451   2.970   2.002 -0.1135 -0.4102 -0.7108
 6170TIP3    H239926   0.589   2.934   1.950  1.0700  0.9209  1.3392
 6171TIP3   OH239927   5.463   3.257  14.840 -0.0967  0.2220 -0.0506
 6171TIP3    H139928   5.551   3.227  14.862 -0.3703 -0.9149 -0.4361
 6171TIP3    H239929   5.450   3.229  14.749  0.0520  2.5521 -0.8619
 6172TIP3   OH239930   5.298   2.855   4.274  0.1331 -0.1346  0.3280
 6172TIP3    H139931   5.323   2.780   4.221  0.1305  0.5964 -0.7264
 6172TIP3    H239932   5.242   2.908   4.217 -0.9548  0.0246  1.4762
 6173TIP3   OH239933   2.888   5.171  12.682 -0.1793 -0.4519 -0.8222
 6173TIP3    H139934   2.976   5.203  12.702 -0.7251  1.0325 -0.6711
 6173TIP3    H239935   2.831   5.218  12.743 -1.3398  0.5145 -2.5549
 6174TIP3   OH239936   4.305   5.895   4.895 -0.2784  0.3754  0.4692
 6174TIP3    H139937   4.347   5.962   4.949  0.5891 -1.6479  2.4804
 6174TIP3    H239938   4.357   5.894   4.814  0.1028  1.6494  0.6795
 6175TIP3   OH239939   1.300   3.428   1.227  0.4193  0.1077  1.2412
 6175TIP3    H139940   1.273   3.363   1.162  0.0218 -0.4595  1.9447
 6175TIP3    H239941   1.321   3.506   1.177 -1.1159  0.0923  0.5382
 6176TIP3   OH239942   1.352   1.649   3.862 -0.1142 -0.0810  0.8150
 6176TIP3    H139943   1.282   1.612   3.916  0.0603  0.2127  1.2470
 6176TIP3    H239944   1.358   1.590   3.787 -2.9617  1.5370 -0.8994
 6177TIP3   OH239945   4.751   6.207  15.297 -0.3956  0.1789  1.3546
 6177TIP3    H139946   4.782   6.121  15.267 -0.2018  0.4425  0.7905
 6177TIP3    H239947   4.794   6.270  15.239 -0.7793  0.6410  1.5634
 6178TIP3   OH239948   1.957   5.764   3.265 -0.2516  0.5187  0.2115
 6178TIP3    H139949   1.913   5.843   3.231  1.3056  0.4187 -2.3158
 6178TIP3    H239950   1.888   5.698   3.265 -1.6631  1.8566  2.6506
 6179TIP3   OH239951   0.509   1.300   6.218  0.3051  0.3762  0.4008
 6179TIP3    H139952   0.587   1.355   6.229  0.6032  0.2892 -1.0380
 6179TIP3    H239953   0.497   1.257   6.303  2.3464 -0.2772  0.4129
 6180TIP3   OH239954   3.837   6.013  15.979  0.0977  0.0051  0.2911
 6180TIP3    H139955   3.743   6.006  15.996 -0.1372  1.8993  0.0543
 6180TIP3    H239956   3.876   6.021  16.066 -0.0420 -0.1350  0.3673
 6181TIP3   OH239957   5.791   3.745   3.481  0.1882  0.0531 -0.0167
 6181TIP3    H139958   5.820   3.836   3.479 -0.7473  0.4270  1.6817
 6181TIP3    H239959   5.706   3.746   3.438  0.6017 -0.2156 -0.8647
 6182TIP3   OH239960   4.654   1.283   5.149  0.4026 -0.5267 -0.7816
 6182TIP3    H139961   4.579   1.303   5.092  0.4673 -1.3775 -1.1815
 6182TIP3    H239962   4.626   1.312   5.236  1.3841  3.5377 -1.5969
 6183TIP3   OH239963   6.549   0.687  12.807 -0.7060 -0.0906 -0.6377
 6183TIP3    H139964   6.532   0.763  12.862  0.2944 -0.3421  0.0484
 6183TIP3    H239965   6.634   0.706  12.765 -0.0854 -1.1299  0.1111
 6184TIP3   OH239966   0.678   1.842  16.585 -0.0365 -0.0145  0.2947
 6184TIP3    H139967   0.677   1.921  16.638 -1.1278  0.4433 -0.3552
 6184TIP3    H239968   0.670   1.770  16.647 -1.0589  0.4975  0.7746
 6185TIP3   OH239969   5.875   5.981   5.081 -0.2519 -0.0041  0.6690
 6185TIP3    H139970   5.865   5.887   5.096  0.1489 -0.0959  0.3645
 6185TIP3    H239971   5.952   6.006   5.131 -0.3857  0.1749  0.7888
 6186TIP3   OH239972   1.571   1.504   0.573  0.5203  0.1489  0.2499
 6186TIP3    H139973   1.662   1.498   0.544 -0.1575  0.5296 -2.2584
 6186TIP3    H239974   1.540   1.414   0.575  0.6712  0.0908  0.0180
 6187TIP3   OH239975   0.873   2.187   2.398  0.1659  0.5141  0.2803
 6187TIP3    H139976   0.793   2.185   2.451 -0.1157 -2.8025 -0.0502
 6187TIP3    H239977   0.849   2.145   2.316  1.9236  0.6169 -0.3315
 6188TIP3   OH239978   0.114   3.143  14.665 -0.3142 -0.1700  0.2103
 6188TIP3    H139979   0.165   3.149  14.746 -0.3360 -1.3481  0.3317
 6188TIP3    H239980   0.091   3.050  14.658 -1.1749  0.0850 -0.6218
 6189TIP3   OH239981   3.599   5.028   2.786 -0.1760 -0.3972  0.1022
 6189TIP3    H139982   3.645   5.057   2.865 -0.2344 -1.9095  0.7349
 6189TIP3    H239983   3.509   5.013   2.816 -0.0398 -1.6360 -0.0649
 6190TIP3   OH239984   4.015   6.122  10.797  0.0813 -0.2875 -0.3185
 6190TIP3    H139985   4.011   6.116  10.892 -0.7255 -0.6344 -0.3665
 6190TIP3    H239986   4.108   6.109  10.775  0.1164 -1.1658  0.3515
 6191TIP3   OH239987   3.484   2.261   1.756  0.0347  0.1589 -0.4984
 6191TIP3    H139988   3.523   2.289   1.839 -0.1682 -0.8288 -0.0423
 6191TIP3    H239989   3.524   2.316   1.690 -0.2902  1.4254  0.3242
 6192TIP3   OH239990   2.319   3.460  16.804  0.3439  0.1733  0.3892
 6192TIP3    H139991   2.232   3.495  16.783  0.7447  0.5164 -0.7740
 6192TIP3    H239992   2.377   3.500  16.740  1.4285  0.1967  1.3646
 6193TIP3   OH239993   4.420   2.647  15.205 -0.1855  0.1651  0.2476
 6193TIP3    H139994   4.433   2.556  15.233 -0.3645 -0.6992 -2.2463
 6193TIP3    H239995   4.464   2.699  15.272  1.6720 -1.8626  0.7164
 6194TIP3   OH239996   3.116   0.776  11.463 -0.2024 -0.2716  0.2671
 6194TIP3    H139997   3.157   0.717  11.527  1.8539  0.7411 -0.0265
 6194TIP3    H239998   3.136   0.864  11.495 -2.2542  0.3072  0.0956
 6195TIP3   OH239999   2.786   4.250   2.441 -0.0325  0.3100 -0.1753
 6195TIP3    H140000   2.843   4.321   2.410 -0.7392  1.1660  0.4164
 6195TIP3    H240001   2.745   4.216   2.362  0.3380  0.5378 -0.4705
 6196TIP3   OH240002   3.327   6.032  14.773  0.3094  0.1114 -0.0413
 6196TIP3    H140003   3.340   5.942  14.802  0.8313  0.0528 -0.4346
 6196TIP3    H240004   3.335   6.028  14.677 -1.6401  0.2546 -0.2502
 6197TIP3   OH240005   2.847   1.365   1.425 -0.4736 -0.1819  0.0504
 6197TIP3    H140006   2.942   1.353   1.425 -0.4904 -0.3576  0.5070
 6197TIP3    H240007   2.813   1.287   1.469 -0.7426  0.4508  1.0027
 6198TIP3   OH240008   0.708   3.549   3.879  0.0718 -1.2499 -0.1903
 6198TIP3    H140009   0.764   3.623   3.856  0.0101 -1.2616 -0.3785
 6198TIP3    H240010   0.716   3.542   3.974  0.2346 -1.1278 -0.1949
 6199TIP3   OH240011   0.883   6.311   4.049  0.4704  0.8626 -0.0209
 6199TIP3    H140012   0.944   6.309   3.975  1.4716 -1.0114  0.8050
 6199TIP3    H240013   0.896   6.398   4.089  2.4911  0.5649  0.0291
 6200TIP3   OH240014   3.553   5.431   3.904 -0.0831  0.1065 -0.2130
 6200TIP3    H140015   3.563   5.515   3.860 -0.4182 -0.3100 -1.1153
 6200TIP3    H240016   3.574   5.449   3.995 -0.1997  1.1754 -0.3850
 6201TIP3   OH240017   5.722   5.263   5.983  0.1406 -0.4357 -0.3883
 6201TIP3    H140018   5.784   5.334   5.998 -0.8929  0.9316 -2.1288
 6201TIP3    H240019   5.776   5.184   5.977  1.3008  0.1150  1.7873
 6202TIP3   OH240020   0.524   5.403  11.343 -0.0793 -0.2538 -0.1161
 6202TIP3    H140021   0.537   5.372  11.254  0.2770  2.1411 -0.9856
 6202TIP3    H240022   0.434   5.436  11.345  0.1124  0.2813  0.1877
 6203TIP3   OH240023   1.680   2.688  14.172  0.1323 -0.3127  0.1310
 6203TIP3    H140024   1.733   2.763  14.145  0.4360 -0.4448  0.3421
 6203TIP3    H240025   1.684   2.690  14.268  2.0097 -1.8762  0.1522
 6204TIP3   OH240026   3.187   5.408   4.315 -0.0608  0.0370  0.1477
 6204TIP3    H140027   3.240   5.458   4.253 -0.4027  1.7874  1.2097
 6204TIP3    H240028   3.109   5.384   4.266  0.6299 -0.4986 -0.7223
 6205TIP3   OH240029   5.517   2.590  16.646  0.1093  0.1836  0.4451
 6205TIP3    H140030   5.548   2.631  16.565  1.9042  0.2283  1.1105
 6205TIP3    H240031   5.422   2.595  16.640  0.2268  2.0701 -0.7002
 6206TIP3   OH240032   5.747   4.666   4.527 -0.2014  0.7739  0.1126
 6206TIP3    H140033   5.686   4.733   4.559 -0.8370  0.9606 -1.4062
 6206TIP3    H240034   5.820   4.716   4.489  0.0921  0.5706  0.3994
 6207TIP3   OH240035   2.525   1.588  14.511  0.1115  0.1083 -0.1775
 6207TIP3    H140036   2.557   1.546  14.431 -0.9192  0.5883 -0.8720
 6207TIP3    H240037   2.438   1.548  14.524 -0.8641  1.9231 -0.8138
 6208TIP3   OH240038   0.524   3.855  17.243  0.7074 -0.5492 -0.2171
 6208TIP3    H140039   0.522   3.760  17.256  1.9786 -0.6014 -0.2948
 6208TIP3    H240040   0.569   3.867  17.159 -0.4624  0.0954 -0.7936
 6209TIP3   OH240041   4.889   2.521   5.284  0.2850 -0.4962 -0.1407
 6209TIP3    H140042   4.926   2.447   5.236  0.8536  0.2569 -0.8784
 6209TIP3    H240043   4.901   2.497   5.376  1.9772 -0.6079 -0.3543
 6210TIP3   OH240044   2.658   0.126  17.039  0.3243  0.3396  0.0214
 6210TIP3    H140045   2.718   0.200  17.033 -0.1178  0.6538 -0.5614
 6210TIP3    H240046   2.594   0.152  17.104  0.7772  0.0284  0.5995
 6211TIP3   OH240047   5.349   3.182   3.695 -0.1369  0.3431  0.2202
 6211TIP3    H140048   5.299   3.260   3.673  0.7530  0.8765  0.0359
 6211TIP3    H240049   5.325   3.163   3.786 -0.3854  0.8068  0.2526
 6212TIP3   OH240050   6.675   0.621   2.436  1.0453  0.1677 -0.6110
 6212TIP3    H140051   6.702   0.592   2.349  2.2273  2.9130 -1.2608
 6212TIP3    H240052   6.587   0.656   2.424  0.0220 -2.0039 -0.0247
 6213TIP3   OH240053   0.377   1.440   0.900  0.1270 -0.0874 -0.4950
 6213TIP3    H140054   0.434   1.424   0.976 -3.1807  1.2766  2.5118
 6213TIP3    H240055   0.435   1.482   0.836  2.8570 -0.2840  1.6303
 6214TIP3   OH240056   5.808   1.035   4.598 -0.9393  0.1159 -0.4602
 6214TIP3    H140057   5.896   1.029   4.561  0.0468 -0.3123  1.7716
 6214TIP3    H240058   5.768   0.951   4.576 -0.5811  0.0773 -0.9922
 6215TIP3   OH240059   2.666   5.166  17.159  0.2611  0.0951  0.4467
 6215TIP3    H140060   2.701   5.253  17.177 -1.0362  0.6430  0.4600
 6215TIP3    H240061   2.658   5.162  17.064 -0.8449  0.4885  0.5096
 6216TIP3   OH240062   2.595   1.141  12.959 -0.1663 -0.0155  0.1550
 6216TIP3    H140063   2.551   1.182  12.884 -0.1689  0.9127  0.6437
 6216TIP3    H240064   2.549   1.059  12.973 -1.2528  0.5838  0.1706
 6217TIP3   OH240065   1.149   2.774   5.547 -0.6324  0.5252 -0.1208
 6217TIP3    H140066   1.118   2.834   5.479 -0.4956  0.4500 -0.2488
 6217TIP3    H240067   1.242   2.794   5.556 -0.9730  1.7479  1.2575
 6218TIP3   OH240068   4.188   1.519   4.559  0.0730  0.2543 -0.3700
 6218TIP3    H140069   4.145   1.444   4.600  1.9431 -0.8567 -0.3342
 6218TIP3    H240070   4.207   1.490   4.470  0.3867  0.8605 -0.5046
 6219TIP3   OH240071   5.435   3.112   5.014  0.2516  0.0415  0.4377
 6219TIP3    H140072   5.420   3.046   4.947  0.0711 -0.0358  0.5537
 6219TIP3    H240073   5.395   3.192   4.978  2.1956  0.6011 -0.5836
 6220TIP3   OH240074   6.328   4.339  14.373  0.1982  0.3371  0.0246
 6220TIP3    H140075   6.311   4.383  14.290  3.3507  1.1655 -0.3003
 6220TIP3    H240076   6.348   4.249  14.349  1.5163  0.6716 -0.2294
 6221TIP3   OH240077   2.013   0.577  15.355 -0.1419  0.0266  0.3470
 6221TIP3    H140078   2.044   0.596  15.444 -0.2417 -0.9729  0.6039
 6221TIP3    H240079   1.968   0.658  15.328  2.3140  1.4139  0.0825
 6222TIP3   OH240080   5.305   1.604   1.496 -1.1255 -0.1357 -0.1345
 6222TIP3    H140081   5.379   1.592   1.436 -0.6740 -0.5337  0.4883
 6222TIP3    H240082   5.247   1.665   1.450 -0.6325 -0.1743 -0.8310
 6223TIP3   OH240083   3.627   0.830   0.645  0.3527  0.0187  0.8485
 6223TIP3    H140084   3.642   0.901   0.583 -1.1005 -1.2024 -1.0080
 6223TIP3    H240085   3.544   0.853   0.688  0.3778 -0.0919  0.9569
 6224TIP3   OH240086   4.640   3.831   1.961 -0.0062  0.1182 -0.2293
 6224TIP3    H140087   4.673   3.748   1.996 -0.8236 -0.8530 -1.5920
 6224TIP3    H240088   4.547   3.813   1.944  0.0510  0.9569 -1.5369
 6225TIP3   OH240089   0.091   4.068   2.639 -0.4994 -0.0294 -0.9708
 6225TIP3    H140090   0.152   4.001   2.669 -1.9704 -1.0326 -0.0433
 6225TIP3    H240091   0.058   4.035   2.556  0.4882  0.7139 -1.6797
 6226TIP3   OH240092   1.435   3.385   5.911 -0.3419  0.2694 -0.0358
 6226TIP3    H140093   1.472   3.424   5.990 -0.1735 -1.9893  1.0981
 6226TIP3    H240094   1.342   3.376   5.929 -0.1848 -0.9369  0.2466
 6227TIP3   OH240095   2.384   2.472  13.951  0.3879  0.1236  0.0487
 6227TIP3    H140096   2.471   2.510  13.965 -0.3591  2.3933 -1.0250
 6227TIP3    H240097   2.343   2.529  13.887 -1.5584 -1.4982 -0.2479
 6228TIP3   OH240098   4.807   6.357  13.989 -0.4775 -0.9453 -0.4847
 6228TIP3    H140099   4.858   6.432  13.958  1.2590 -1.8386  0.0644
 6228TIP3    H240100   4.869   6.284  13.986 -1.8988 -2.1900 -0.2505
 6229TIP3   OH240101   2.841   5.341  12.059 -0.6452 -0.0044  0.7779
 6229TIP3    H140102   2.822   5.388  12.140 -0.9087 -0.2858  0.8835
 6229TIP3    H240103   2.910   5.278  12.084 -0.0133  0.5865  0.5451
 6230TIP3   OH240104   0.509   6.759  13.276  0.1102 -1.1291 -0.6223
 6230TIP3    H140105   0.559   6.734  13.198  0.5699  0.5308 -0.8995
 6230TIP3    H240106   0.572   6.806  13.331 -0.7819 -0.2647 -0.3078
 6231TIP3   OH240107   6.570   3.320   3.652 -0.1085  0.2836 -0.2939
 6231TIP3    H140108   6.557   3.226   3.653 -0.6005  0.3389 -0.9202
 6231TIP3    H240109   6.655   3.333   3.695 -0.8585 -0.2885  1.4435
 6232TIP3   OH240110   5.533   3.503   4.331 -0.2983  0.1851 -0.0080
 6232TIP3    H140111   5.452   3.460   4.304 -0.6704 -0.1417  1.5430
 6232TIP3    H240112   5.536   3.493   4.426  0.5236  1.9965  0.2161
 6233TIP3   OH240113   1.058   1.607  12.715  0.2774 -0.0029  0.2440
 6233TIP3    H140114   1.080   1.700  12.715 -0.4547  0.2104 -1.3528
 6233TIP3    H240115   0.963   1.604  12.700  0.3635 -0.9994 -0.2449
 6234TIP3   OH240116   5.996   5.774  16.700 -0.0742 -0.3566  0.2759
 6234TIP3    H140117   5.993   5.856  16.650 -0.4410 -0.4101  0.2100
 6234TIP3    H240118   5.925   5.721  16.664  0.7562 -1.0927 -0.3479
 6235TIP3   OH240119   4.594   6.110   0.690 -0.0443 -0.2854  0.1308
 6235TIP3    H140120   4.538   6.134   0.764 -2.7069 -1.3989 -1.3638
 6235TIP3    H240121   4.537   6.117   0.613  2.8669  1.9387 -2.0956
 6236TIP3   OH240122   2.777   2.806   0.628 -0.3313 -0.3930  0.0871
 6236TIP3    H140123   2.708   2.862   0.595 -1.0822 -0.8873  0.7699
 6236TIP3    H240124   2.858   2.846   0.596 -0.8384  1.0494  0.5256
 6237TIP3   OH240125   1.894   3.159  16.459  0.0099 -0.3406  0.3248
 6237TIP3    H140126   1.843   3.165  16.539  0.1967  0.5138  0.3845
 6237TIP3    H240127   1.846   3.096  16.405  0.0460 -1.1450  1.2175
 6238TIP3   OH240128   5.821   3.675  11.960 -0.4932  0.0895 -1.0136
 6238TIP3    H140129   5.900   3.694  12.010 -0.8469 -1.1035  0.0780
 6238TIP3    H240130   5.789   3.593  11.998 -0.0556 -1.6379 -4.0869
 6239TIP3   OH240131   0.951   4.945  16.066  0.2664  0.4243  0.0920
 6239TIP3    H140132   1.037   4.928  16.106  0.2936 -0.6059 -0.3625
 6239TIP3    H240133   0.969   4.945  15.972 -0.4059 -1.0133 -0.0664
 6240TIP3   OH240134   3.805   2.577  12.655  0.7869  0.0909  0.2958
 6240TIP3    H140135   3.848   2.592  12.571 -0.7159 -0.5375 -0.6239
 6240TIP3    H240136   3.739   2.647  12.661  0.4999 -0.2068  0.6775
 6241TIP3   OH240137   4.430   1.898  13.027 -0.4133  0.0487  0.3348
 6241TIP3    H140138   4.389   1.812  13.014  1.8729 -1.2710  1.3263
 6241TIP3    H240139   4.455   1.898  13.119 -0.2716  1.7665  0.3130
 6242TIP3   OH240140   2.846   3.751   3.522  0.4754  0.4536 -0.6057
 6242TIP3    H140141   2.791   3.829   3.513  0.3753  0.4653  0.0936
 6242TIP3    H240142   2.929   3.775   3.481  0.6200  1.1059  0.0512
 6243TIP3   OH240143   3.707   5.501  17.107  0.2650  0.0253 -0.2465
 6243TIP3    H140144   3.693   5.522  17.015  0.1972  1.3677  0.0577
 6243TIP3    H240145   3.640   5.550  17.154 -1.2662 -2.5120  0.3886
 6244TIP3   OH240146   5.473   1.194  16.842  0.9714 -0.7129  0.0023
 6244TIP3    H140147   5.403   1.131  16.861  0.8386  0.4817  4.8773
 6244TIP3    H240148   5.554   1.147  16.862  1.4189 -0.9631 -2.1023
 6245TIP3   OH240149   1.231   1.604   2.695  0.4303 -0.1188  0.3168
 6245TIP3    H140150   1.141   1.602   2.663  0.5932 -2.4974 -0.1273
 6245TIP3    H240151   1.277   1.664   2.635 -0.3952 -0.5202 -0.7309
 6246TIP3   OH240152   5.159   2.436  10.773 -0.1457 -0.3830  0.5919
 6246TIP3    H140153   5.128   2.443  10.682  3.2024 -1.9329 -0.8578
 6246TIP3    H240154   5.173   2.526  10.801 -2.0880  0.1633 -0.0751
 6247TIP3   OH240155   0.589   4.640   3.796 -0.3242  0.5080  0.3656
 6247TIP3    H140156   0.536   4.621   3.874  0.1502 -0.3201  0.4958
 6247TIP3    H240157   0.547   4.715   3.756 -0.3436  1.2114  1.6558
 6248TIP3   OH240158   4.979   4.081  13.397 -0.0548  0.1945  0.6618
 6248TIP3    H140159   4.891   4.048  13.377  1.0584 -1.6681 -1.6736
 6248TIP3    H240160   5.031   4.002  13.411  1.4485  1.2385  1.2129
 6249TIP3   OH240161   2.505   5.854  13.470  0.2396  0.5025 -0.0692
 6249TIP3    H140162   2.523   5.780  13.412  0.6045  0.9990 -0.6087
 6249TIP3    H240163   2.548   5.831  13.553  2.8695  1.3266 -1.0966
 6250TIP3   OH240164   5.097   4.949   3.743 -0.5854 -0.5387  0.1653
 6250TIP3    H140165   5.154   4.988   3.676 -1.5922 -0.7558 -0.8306
 6250TIP3    H240166   5.158   4.903   3.801  0.1449 -2.6440 -2.0986
 6251TIP3   OH240167   3.906   3.041  16.378  0.3643  0.3914 -0.3357
 6251TIP3    H140168   3.904   3.066  16.286 -0.9190  1.0361 -0.1522
 6251TIP3    H240169   3.992   3.068  16.408  0.1823  1.7079 -0.9455
 6252TIP3   OH240170   2.443   3.078  13.385 -0.0501  0.7517  0.0674
 6252TIP3    H140171   2.372   3.131  13.423  0.3148  0.6010  0.9817
 6252TIP3    H240172   2.468   3.126  13.306 -2.6247 -0.3019 -1.5372
 6253TIP3   OH240173   0.466   5.951   0.012  0.0414  0.0738 -0.3069
 6253TIP3    H140174   0.384   5.928  -0.032 -1.4813  1.3746  1.6755
 6253TIP3    H240175   0.507   5.867   0.031 -2.4755 -0.8618  1.5488
 6254TIP3   OH240176   2.395   2.621  11.521 -0.1108  0.1546 -0.3621
 6254TIP3    H140177   2.301   2.631  11.532 -0.4695 -0.3952 -2.5014
 6254TIP3    H240178   2.408   2.527  11.507  0.6016  0.3868 -1.3184
 6255TIP3   OH240179   4.720   1.355   4.365 -0.0395  0.1348 -0.5595
 6255TIP3    H140180   4.752   1.442   4.344  0.5115 -0.3968 -1.9984
 6255TIP3    H240181   4.671   1.328   4.288  0.9125 -1.3609 -0.6669
 6256TIP3   OH240182   1.277   6.113  14.087 -0.3069  0.0927 -0.0686
 6256TIP3    H140183   1.226   6.032  14.088 -2.0264  1.1266  1.1622
 6256TIP3    H240184   1.314   6.116  13.998 -1.5120 -1.2393 -0.6704
 6257TIP3   OH240185   5.773   4.058  16.898  0.6706 -0.0891  0.1357
 6257TIP3    H140186   5.716   4.061  16.821  1.4666 -0.0681 -0.4673
 6257TIP3    H240187   5.751   3.976  16.942  0.4088 -0.2341 -0.2677
 6258TIP3   OH240188   5.682   4.803  12.268  0.2540 -0.3754 -0.0190
 6258TIP3    H140189   5.762   4.756  12.246  2.1393  2.0637  1.0747
 6258TIP3    H240190   5.689   4.886  12.221  0.0319  1.2128  2.5605
 6259TIP3   OH240191   1.156   3.426   5.703 -0.3404 -0.7398  0.2194
 6259TIP3    H140192   1.163   3.335   5.732 -0.2075 -0.4668  1.0666
 6259TIP3    H240193   1.232   3.438   5.646  0.1531 -0.8988  0.8325
 6260TIP3   OH240194   2.765   1.718  17.114 -0.2057 -0.0667 -0.7782
 6260TIP3    H140195   2.705   1.782  17.075  1.7981  1.6149 -1.2963
 6260TIP3    H240196   2.716   1.680  17.187 -1.9363  1.0563 -1.2854
 6261TIP3   OH240197   2.976   6.099   0.021 -0.6746  0.7162  0.3826
 6261TIP3    H140198   2.982   6.075  -0.071  0.0799 -0.3480  0.6931
 6261TIP3    H240199   2.926   6.028   0.062  0.6286  0.1902  1.1165
 6262TIP3   OH240200   2.239   2.582   0.219 -0.0023  0.2733 -0.1994
 6262TIP3    H140201   2.225   2.634   0.299  1.3273  1.5097 -0.7224
 6262TIP3    H240202   2.208   2.639   0.149 -1.0288 -0.7544 -0.6052
 6263TIP3   OH240203   2.954   0.586  12.102  0.4956 -0.3891 -0.6778
 6263TIP3    H140204   2.939   0.625  12.017  2.1044 -1.1741 -1.3739
 6263TIP3    H240205   2.871   0.546  12.126  0.7791 -2.9504 -3.4111
 6264TIP3   OH240206   3.721   4.041   4.181  0.0353 -0.2066  0.1825
 6264TIP3    H140207   3.788   4.002   4.126  1.0673 -1.0766  1.9385
 6264TIP3    H240208   3.646   3.982   4.173 -0.9723  1.3198 -2.5826
 6265TIP3   OH240209   5.359   2.237   3.685 -0.0643  0.5991  0.0582
 6265TIP3    H140210   5.287   2.260   3.627 -0.2168 -0.3792 -0.1470
 6265TIP3    H240211   5.430   2.211   3.627 -0.8202 -2.2109  0.2777
 6266TIP3   OH240212   0.691   3.347  16.197  0.6412 -0.3348  0.3293
 6266TIP3    H140213   0.700   3.284  16.269  0.3775 -1.3859 -0.5293
 6266TIP3    H240214   0.726   3.301  16.121 -1.2027 -0.1581 -0.6929
 6267TIP3   OH240215   6.180   5.334   5.694 -0.3212  0.0921 -0.2017
 6267TIP3    H140216   6.189   5.400   5.625  1.4846  0.1732  0.0548
 6267TIP3    H240217   6.115   5.370   5.754  0.4967  1.5887 -0.1602
 6268TIP3   OH240218   5.576   6.118  12.346  0.1092  0.4796 -0.0172
 6268TIP3    H140219   5.650   6.165  12.386  0.7384  0.5871 -1.2477
 6268TIP3    H240220   5.575   6.149  12.256 -0.8231 -0.2804 -0.2757
 6269TIP3   OH240221   5.795   1.798  16.980  0.4113 -0.5639  0.2511
 6269TIP3    H140222   5.775   1.705  16.994  2.8040 -1.0953  0.5843
 6269TIP3    H240223   5.810   1.832  17.069  0.3248 -0.0452  0.0676
 6270TIP3   OH240224   5.141   5.340  12.801 -0.1655  0.1617  0.9773
 6270TIP3    H140225   5.168   5.378  12.885  2.0930 -0.1130  0.4520
 6270TIP3    H240226   5.127   5.247  12.820 -1.2494  0.3876  1.3495
 6271TIP3   OH240227   5.463   5.151  11.697 -0.1715  0.2706 -0.0556
 6271TIP3    H140228   5.464   5.242  11.668  0.4286  0.1566 -0.4264
 6271TIP3    H240229   5.487   5.155  11.789 -0.2643  0.5010 -0.0409
 6272TIP3   OH240230   4.653   6.663   2.277 -0.1257 -0.6722 -0.1854
 6272TIP3    H140231   4.633   6.747   2.236 -0.9622 -0.8207 -0.1038
 6272TIP3    H240232   4.571   6.614   2.272 -0.1124 -0.8812  1.2040
 6273TIP3   OH240233   0.250   2.792  12.513 -0.2622 -0.4241 -0.2825
 6273TIP3    H140234   0.156   2.771  12.507 -0.2533 -0.1090 -2.3861
 6273TIP3    H240235   0.293   2.719  12.469  0.4337 -0.1636 -0.0396
 6274TIP3   OH240236   5.095   3.552  12.606 -0.4318  0.0991  0.4954
 6274TIP3    H140237   5.156   3.612  12.647 -0.8319  1.3329 -0.6285
 6274TIP3    H240238   5.132   3.535  12.519 -1.7346  1.0434 -0.2915
 6275TIP3   OH240239   5.795   4.645   0.250  0.0179  1.0331  0.3733
 6275TIP3    H140240   5.790   4.559   0.292  1.1442  0.4027 -0.7158
 6275TIP3    H240241   5.761   4.706   0.316  0.8704 -0.0244  1.8476
 6276TIP3   OH240242   6.739   5.652   0.997 -0.2431 -0.2837 -0.2551
 6276TIP3    H140243   6.709   5.619   1.082  0.0376 -0.7985 -0.3552
 6276TIP3    H240244   6.831   5.628   0.993 -0.5844 -1.5816 -1.3267
 6277TIP3   OH240245   5.621   6.666   5.290  0.4898  0.0708 -0.3620
 6277TIP3    H140246   5.558   6.595   5.301  0.7093  0.0546  0.9241
 6277TIP3    H240247   5.567   6.744   5.276  0.1660  0.0522  0.7031
 6278TIP3   OH240248   3.250   5.314   1.305 -0.0120 -0.0940 -0.6265
 6278TIP3    H140249   3.260   5.402   1.339  0.9632  0.1028 -1.3897
 6278TIP3    H240250   3.326   5.301   1.248 -0.2053 -1.3787 -0.6165
 6279TIP3   OH240251   4.621   5.979   3.224  0.2791 -0.5315  0.1324
 6279TIP3    H140252   4.581   5.914   3.167 -0.5181 -0.2318  0.3432
 6279TIP3    H240253   4.550   6.009   3.281  0.0265  2.1980 -1.4579
 6280TIP3   OH240254   4.699   0.169   5.702 -0.2655 -0.1785  0.6033
 6280TIP3    H140255   4.714   0.150   5.794  2.3147 -1.2789  0.0442
 6280TIP3    H240256   4.774   0.130   5.657 -1.3329  0.5172 -1.9462
 6281TIP3   OH240257   0.099   4.907  13.381  0.2499 -0.0653  0.0629
 6281TIP3    H140258   0.074   4.817  13.364  0.9501 -0.0324 -1.2943
 6281TIP3    H240259   0.022   4.959  13.358 -0.1228 -0.2925  0.7627
 6282TIP3   OH240260   1.847   5.366  16.481  0.8517  0.6379 -0.4831
 6282TIP3    H140261   1.911   5.332  16.419  1.0420  0.4848 -0.2066
 6282TIP3    H240262   1.880   5.454  16.504  0.3145  1.0514 -1.2643
 6283TIP3   OH240263   2.874   1.837  11.214 -0.3928  0.2562  0.2748
 6283TIP3    H140264   2.894   1.796  11.299  0.7015  0.4232  0.1141
 6283TIP3    H240265   2.911   1.777  11.149  1.4725  1.5824  0.0455
 6284TIP3   OH240266   5.840   3.146  15.765 -0.1772 -0.3596 -0.2566
 6284TIP3    H140267   5.924   3.112  15.794  0.4565  0.4206 -1.1382
 6284TIP3    H240268   5.860   3.230  15.724 -1.5855  0.6576  1.0030
 6285TIP3   OH240269   5.860   3.496  11.350  0.1501 -0.1791  0.7839
 6285TIP3    H140270   5.926   3.553  11.390 -1.5151  1.6878  0.9898
 6285TIP3    H240271   5.829   3.442  11.422 -0.4046  0.8005  1.3050
 6286TIP3   OH240272   0.193   5.815  10.377  0.3455  0.3352  0.2147
 6286TIP3    H140273   0.283   5.843  10.395  0.9855 -1.0150 -0.7002
 6286TIP3    H240274   0.187   5.728  10.416 -1.0123  0.9336  1.4193
 6287TIP3   OH240275   5.555   2.017   2.858  0.3493  0.5000  0.3099
 6287TIP3    H140276   5.493   1.947   2.839  0.9311  0.0146  0.1926
 6287TIP3    H240277   5.524   2.091   2.806 -0.3524  0.3861  0.5502
 6288TIP3   OH240278   1.368   0.135  12.455 -0.4539 -0.8466 -0.2384
 6288TIP3    H140279   1.380   0.140  12.361 -0.8294  1.4814 -0.2270
 6288TIP3    H240280   1.372   0.226  12.485  1.7061 -1.6013  2.2696
 6289TIP3   OH240281   4.962   1.778  10.618  0.1195  0.4036  0.4761
 6289TIP3    H140282   5.001   1.692  10.634  2.1963  0.9619 -1.1279
 6289TIP3    H240283   4.889   1.783  10.680 -0.0557 -2.4672  0.6365
 6290TIP3   OH240284   6.374   5.694   2.007 -1.3787  0.0681  0.0605
 6290TIP3    H140285   6.342   5.784   2.007 -2.5676 -0.3283  0.5293
 6290TIP3    H240286   6.469   5.702   2.009 -1.4614  1.3446  2.1788
 6291TIP3   OH240287   1.993   6.180   5.898 -0.6772 -0.0147  0.0508
 6291TIP3    H140288   2.049   6.243   5.943  0.8568 -1.2116 -0.1254
 6291TIP3    H240289   2.000   6.100   5.950 -0.6352 -0.7664 -1.0870
 6292TIP3   OH240290   0.056   0.112  11.692 -0.1588 -0.0312 -0.0518
 6292TIP3    H140291   0.023   0.033  11.650 -2.2035  1.4359 -1.3857
 6292TIP3    H240292   0.016   0.112  11.779 -0.7673 -0.0634 -0.3328
 6293TIP3   OH240293   3.484   6.380  12.389 -0.0306 -0.0260  0.0665
 6293TIP3    H140294   3.423   6.399  12.460 -1.3057  1.6759 -1.4018
 6293TIP3    H240295   3.450   6.302  12.347 -0.3033  0.0223  0.1980
 6294TIP3   OH240296   1.764   4.023   1.214  0.2752 -0.1691  0.2775
 6294TIP3    H140297   1.744   3.979   1.132 -0.8731  0.4956  0.1809
 6294TIP3    H240298   1.860   4.024   1.218  0.3456 -0.2969 -1.0024
 6295TIP3   OH240299   3.988   6.518  14.032 -0.1338  0.0603 -1.0091
 6295TIP3    H140300   3.972   6.442  14.088  3.9793  1.4277  2.6186
 6295TIP3    H240301   4.021   6.481  13.950  1.6568 -2.1972  0.5899
 6296TIP3   OH240302   5.727   5.583   3.498 -0.7721  0.0293 -1.0167
 6296TIP3    H140303   5.691   5.540   3.575  0.8125 -3.0305 -1.8196
 6296TIP3    H240304   5.668   5.559   3.427 -0.3723 -0.0528 -1.3272
 6297TIP3   OH240305   2.803   6.084  16.001 -0.0009  0.0286 -0.0119
 6297TIP3    H140306   2.876   6.027  15.979  1.1338  0.8825  1.3397
 6297TIP3    H240307   2.755   6.036  16.069 -0.7178 -0.5140 -0.8712
 6298TIP3   OH240308   5.666   0.775  13.301 -0.2520 -0.0231  0.4771
 6298TIP3    H140309   5.639   0.702  13.246  1.4438  1.3699 -2.4566
 6298TIP3    H240310   5.732   0.738  13.360  0.4213 -0.9576 -0.8044
 6299TIP3   OH240311   1.359   3.654   2.697  0.4173 -0.5256  0.3918
 6299TIP3    H140312   1.281   3.695   2.733 -0.1792 -0.1331 -1.2824
 6299TIP3    H240313   1.332   3.619   2.612  2.1407 -0.0355 -0.4155
 6300TIP3   OH240314   1.668   5.574   5.304 -0.5336 -0.0782  0.5138
 6300TIP3    H140315   1.664   5.589   5.398  0.6168  0.8748  0.4364
 6300TIP3    H240316   1.598   5.628   5.268  0.1883  0.9977  0.6878
 6301TIP3   OH240317   4.244   4.446  15.856 -0.1463  0.0321 -0.1875
 6301TIP3    H140318   4.313   4.386  15.882 -0.3118  0.0858  0.4047
 6301TIP3    H240319   4.180   4.391  15.811 -0.5913 -0.3637  0.8908
 6302TIP3   OH240320   4.349   2.709   3.378  1.0637  0.5474 -0.3378
 6302TIP3    H140321   4.343   2.658   3.297  0.6506  0.7942 -0.4670
 6302TIP3    H240322   4.390   2.791   3.351 -0.4466  1.2543 -0.6124
 6303TIP3   OH240323   0.033   0.258   5.951  0.3242 -0.3143  0.5903
 6303TIP3    H140324   0.050   0.168   5.977  0.4716 -0.1034  1.2442
 6303TIP3    H240325  -0.006   0.298   6.028 -2.2256 -0.4959 -0.4841
 6304TIP3   OH240326   1.099   2.861  16.680  0.2267  0.0626  0.2867
 6304TIP3    H140327   1.143   2.946  16.672  1.4395 -0.6392 -0.8614
 6304TIP3    H240328   1.031   2.876  16.746 -0.8580  2.4414 -1.2262
 6305TIP3   OH240329   5.464   0.668   5.201 -0.2738 -0.4532 -0.0278
 6305TIP3    H140330   5.381   0.622   5.189 -0.8692  0.8730 -1.4706
 6305TIP3    H240331   5.446   0.757   5.169  1.9198 -0.3625 -1.2064
 6306TIP3   OH240332   4.981   2.637  16.165  0.0262 -0.6001  0.2622
 6306TIP3    H140333   5.024   2.556  16.138 -0.9954 -0.6303 -1.4187
 6306TIP3    H240334   4.914   2.652  16.098  1.3088  2.5519 -0.5126
 6307TIP3   OH240335   3.009   0.278  12.518 -0.9538  0.7144  0.3972
 6307TIP3    H140336   3.072   0.259  12.448 -2.1962 -2.3672 -0.0340
 6307TIP3    H240337   3.056   0.256  12.599 -1.0436 -0.4348  0.1558
 6308TIP3   OH240338   1.261   6.571  12.313  0.4549  0.5991 -0.3357
 6308TIP3    H140339   1.271   6.666  12.313 -0.2113  0.7978 -3.6495
 6308TIP3    H240340   1.172   6.557  12.280  0.5522 -1.1832  0.0600
 6309TIP3   OH240341   3.186   4.298   0.716 -0.4525  0.6481 -0.0712
 6309TIP3    H140342   3.152   4.208   0.723 -0.9028  0.8767  0.9075
 6309TIP3    H240343   3.151   4.330   0.633 -0.0500 -0.1708 -0.5728
 6310TIP3   OH240344   0.939   4.518  13.001 -0.3558 -0.6318 -0.0801
 6310TIP3    H140345   0.896   4.534  12.916 -0.3462 -0.9518 -0.1473
 6310TIP3    H240346   0.866   4.501  13.061 -0.5313  1.7624  0.4906
 6311TIP3   OH240347   0.462   2.892   4.096 -0.2815  0.0632  0.3010
 6311TIP3    H140348   0.427   2.844   4.170  0.2832  0.5460  0.8977
 6311TIP3    H240349   0.386   2.911   4.041 -0.8336  0.4053  1.1606
 6312TIP3   OH240350   2.835   2.422   4.127 -0.0905 -0.0095 -0.6047
 6312TIP3    H140351   2.770   2.488   4.150  0.7549 -0.2152  2.9437
 6312TIP3    H240352   2.791   2.338   4.145  0.8812 -0.1646  1.2086
 6313TIP3   OH240353   4.347   1.786   4.321  0.4838 -0.3307 -0.1193
 6313TIP3    H140354   4.332   1.865   4.373  0.7071  0.8766 -1.7734
 6313TIP3    H240355   4.398   1.729   4.377  0.2813  0.6945  1.1532
 6314TIP3   OH240356   4.792   2.972  12.889 -0.2280  0.0172 -0.4069
 6314TIP3    H140357   4.722   3.037  12.888 -1.1668 -0.9477 -2.1473
 6314TIP3    H240358   4.804   2.947  12.797  1.8317 -0.4697 -0.0706
 6315TIP3   OH240359   2.722   3.003  15.122  0.3130  0.8615  0.2858
 6315TIP3    H140360   2.742   2.909  15.127  0.6200  0.9502  0.7757
 6315TIP3    H240361   2.794   3.040  15.072  0.1405  0.8224  0.0070
 6316TIP3   OH240362   3.612   6.512  16.401 -0.7526  0.0956  0.0806
 6316TIP3    H140363   3.658   6.485  16.480  1.1861  0.4356 -0.8604
 6316TIP3    H240364   3.573   6.597  16.423 -1.1451 -0.3116  0.9764
 6317TIP3   OH240365   3.902   1.406  11.158  0.1182 -0.5255 -0.9338
 6317TIP3    H140366   3.911   1.433  11.067  0.0775  0.8102 -0.5603
 6317TIP3    H240367   3.955   1.468  11.208 -0.2978 -0.8906 -0.0028
 6318TIP3   OH240368   5.112   4.873  12.612  0.0616 -0.0865 -0.1076
 6318TIP3    H140369   5.129   4.928  12.535  1.2775  1.2294  1.0283
 6318TIP3    H240370   5.095   4.936  12.683 -2.5927 -1.2782  0.4331
 6319TIP3   OH240371   1.994   2.811   5.409  0.6596  0.5876 -0.6977
 6319TIP3    H140372   2.017   2.902   5.429  0.1517  0.3900  0.9908
 6319TIP3    H240373   2.072   2.761   5.434  0.8296  0.5332 -1.3383
 6320TIP3   OH240374   3.369   1.202   1.179  0.0607 -0.0273 -0.2467
 6320TIP3    H140375   3.278   1.232   1.175  0.7961  2.4349  0.2611
 6320TIP3    H240376   3.375   1.155   1.262 -0.6212  0.2689 -0.0221
 6321TIP3   OH240377   3.827   3.105   0.569 -0.0944 -0.5837  0.7096
 6321TIP3    H140378   3.890   3.106   0.641  0.5306  0.5157  0.1672
 6321TIP3    H240379   3.744   3.079   0.611  0.3744 -0.5224  1.7180
 6322TIP3   OH240380   0.053   5.372   0.987  0.6840  0.0998 -0.6879
 6322TIP3    H140381   0.096   5.379   0.902 -2.0177 -0.9580 -2.2799
 6322TIP3    H240382  -0.032   5.414   0.975 -0.3109 -1.2285  1.0826
 6323TIP3   OH240383   0.632   1.000   3.464  0.2446 -0.2313  0.1719
 6323TIP3    H140384   0.613   1.060   3.392  0.6563  1.1344  1.1567
 6323TIP3    H240385   0.722   0.971   3.447 -0.7375 -2.5084 -1.5938
 6324TIP3   OH240386   3.220   0.854   5.153  0.2221  0.0579 -0.3200
 6324TIP3    H140387   3.308   0.824   5.131  0.5151  0.2563  0.5502
 6324TIP3    H240388   3.223   0.870   5.248 -0.7982 -0.1069 -0.2529
 6325TIP3   OH240389   5.590   1.118  12.790  0.0486  0.4960 -0.4009
 6325TIP3    H140390   5.548   1.203  12.777 -0.5073  0.2323 -0.3667
 6325TIP3    H240391   5.548   1.061  12.725 -0.6215 -0.1062  0.5243
 6326TIP3   OH240392   6.312   1.186  12.009  0.0376 -0.4938  0.6334
 6326TIP3    H140393   6.246   1.147  11.952  0.0391 -2.2727  1.7779
 6326TIP3    H240394   6.265   1.254  12.058 -0.1946  0.3385 -0.6862
 6327TIP3   OH240395   2.483   1.225  13.998 -0.0966 -0.2471  0.3771
 6327TIP3    H140396   2.564   1.256  14.036 -0.3301 -2.3778  2.9074
 6327TIP3    H240397   2.414   1.273  14.044 -0.3172 -0.2351  0.0386
 6328TIP3   OH240398   0.353   1.016  16.473 -0.1797 -0.0044 -0.0887
 6328TIP3    H140399   0.302   0.983  16.547  1.8491 -0.5635  1.1596
 6328TIP3    H240400   0.440   0.978  16.485  0.5053  0.7375 -2.2106
 6329TIP3   OH240401   5.821   2.474   2.592 -0.0692  0.2431  0.4997
 6329TIP3    H140402   5.728   2.450   2.582 -0.2035 -0.5323  2.9809
 6329TIP3    H240403   5.869   2.399   2.557 -0.4679 -1.3417  3.1464
 6330TIP3   OH240404   3.392   6.217   2.726  0.2366 -0.0207  0.4054
 6330TIP3    H140405   3.464   6.218   2.662 -0.3306  0.4303 -0.2454
 6330TIP3    H240406   3.434   6.234   2.810  1.1222 -1.5550  0.2945
 6331TIP3   OH240407   2.421   5.845   1.717 -0.1283 -0.5219  0.0958
 6331TIP3    H140408   2.508   5.806   1.711  0.2470 -0.2642  2.7401
 6331TIP3    H240409   2.424   5.918   1.656  0.6998 -1.8223 -1.5243
 6332TIP3   OH240410   2.247   0.337  10.578  0.0496  0.2248  0.2801
 6332TIP3    H140411   2.160   0.315  10.613  0.2105 -0.3683  0.3257
 6332TIP3    H240412   2.230   0.367  10.489 -0.0007 -2.6875 -0.8300
 6333TIP3   OH240413   0.465   6.554   0.389 -0.3150  0.4903 -0.5897
 6333TIP3    H140414   0.444   6.583   0.300 -0.5101 -0.2135 -0.7788
 6333TIP3    H240415   0.407   6.479   0.403  1.3759 -0.8971 -0.7464
 6334TIP3   OH240416   3.302   5.782   5.238  0.1900 -0.2795 -0.0945
 6334TIP3    H140417   3.395   5.791   5.218  0.5482 -0.2747  1.4394
 6334TIP3    H240418   3.293   5.696   5.277 -0.1714  0.2910  1.1283
 6335TIP3   OH240419   3.942   6.215  13.671 -0.1880 -0.2537  0.0092
 6335TIP3    H140420   3.970   6.155  13.603  0.4461  1.0586 -0.9247
 6335TIP3    H240421   3.874   6.268  13.630 -0.5097 -0.1037  0.7141
 6336TIP3   OH240422   4.499   3.404  14.020  0.2022 -0.1953  0.4863
 6336TIP3    H140423   4.463   3.492  14.032  0.7298 -0.1980  2.5609
 6336TIP3    H240424   4.594   3.418  14.018  0.2379 -0.5732 -0.8389
 6337TIP3   OH240425   4.831   0.456   0.519  0.4192  0.3275  0.1662
 6337TIP3    H140426   4.851   0.527   0.458  1.7529  0.0798  0.2868
 6337TIP3    H240427   4.908   0.399   0.516 -2.0617 -3.3645 -2.9019
 6338TIP3   OH240428   1.974   5.979   5.607 -0.3208 -0.1873 -0.1964
 6338TIP3    H140429   1.931   6.000   5.690 -0.6532  1.2823 -0.7127
 6338TIP3    H240430   2.036   6.050   5.593  0.5367 -1.0085 -0.6686
 6339TIP3   OH240431   3.541   1.539   0.981  0.0559 -0.6109  0.6557
 6339TIP3    H140432   3.470   1.587   0.938 -0.3824 -0.8929  1.0635
 6339TIP3    H240433   3.619   1.592   0.964 -0.2359 -0.3443  0.1324
 6340TIP3   OH240434   3.790   5.455  13.283 -0.1694 -0.3974 -0.2272
 6340TIP3    H140435   3.809   5.430  13.373  0.7288  1.5489  0.1840
 6340TIP3    H240436   3.695   5.447  13.276 -0.7791  2.7263  2.0832
 6341TIP3   OH240437   3.173   6.642   3.988  0.0650 -0.1628  0.1286
 6341TIP3    H140438   3.158   6.553   3.956  0.8309 -0.4271  0.4827
 6341TIP3    H240439   3.246   6.674   3.934  0.6064 -0.2003  0.8250
 6342TIP3   OH240440   4.922   2.615   2.996  0.0195 -0.1522  0.3195
 6342TIP3    H140441   5.008   2.584   2.969  1.7919  3.7978  0.7273
 6342TIP3    H240442   4.896   2.556   3.067  2.1827 -1.6810 -0.0762
 6343TIP3   OH240443   4.662   3.186  16.342  0.4772 -0.6373 -0.3786
 6343TIP3    H140444   4.657   3.123  16.271  0.2925 -1.4049  0.2975
 6343TIP3    H240445   4.575   3.226  16.345  1.3585  1.7488 -2.6246
 6344TIP3   OH240446   1.599   6.331  10.468 -0.0854  0.1965  0.0967
 6344TIP3    H140447   1.510   6.323  10.501  0.1760 -1.2645  0.5176
 6344TIP3    H240448   1.591   6.323  10.373 -0.3395 -0.6966  0.1854
 6345TIP3   OH240449   6.201   2.514   0.051 -0.5295 -0.3677  0.2664
 6345TIP3    H140450   6.233   2.597   0.087 -2.0723 -0.3773  1.7728
 6345TIP3    H240451   6.276   2.454   0.059  0.8878  1.0243 -1.6214
 6346TIP3   OH240452   3.866   0.001  15.818  0.3187 -0.1649  0.3178
 6346TIP3    H140453   3.789  -0.030  15.770  1.3739  1.5338 -2.7167
 6346TIP3    H240454   3.940  -0.041  15.774  1.2832 -0.0428  1.7525
 6347TIP3   OH240455   0.322   1.478   2.310  0.4949  0.0402  0.2624
 6347TIP3    H140456   0.283   1.509   2.392 -0.4423  0.5286 -0.3508
 6347TIP3    H240457   0.407   1.523   2.306 -0.2901  1.5800  0.0248
 6348TIP3   OH240458   5.038   0.042   4.221 -0.0313  0.3705 -0.5828
 6348TIP3    H140459   5.077   0.041   4.133  0.2886 -0.2811 -0.4356
 6348TIP3    H240460   5.007   0.132   4.232  2.2785  1.2079 -0.3341
 6349TIP3   OH240461   4.693   0.475   3.774 -0.2465 -0.5529  0.4173
 6349TIP3    H140462   4.730   0.401   3.727 -2.0378 -1.5421  0.4730
 6349TIP3    H240463   4.635   0.517   3.710  0.2702  0.4244  0.5784
 6350TIP3   OH240464   0.114   0.997   3.224  0.6169 -0.4547  0.1553
 6350TIP3    H140465   0.040   1.048   3.192 -0.8663 -2.3714  0.3620
 6350TIP3    H240466   0.143   0.946   3.149  1.4997  0.0241  0.1680
 6351TIP3   OH240467   6.118   6.655  12.728  0.5828 -0.3565  0.1745
 6351TIP3    H140468   6.143   6.580  12.675 -1.4721 -0.4044 -0.8336
 6351TIP3    H240469   6.123   6.730  12.668  0.6815  0.0062  0.6258
 6352TIP3   OH240470   0.209   5.585  16.043  0.1606 -0.2030 -0.8251
 6352TIP3    H140471   0.250   5.500  16.026  0.3121 -0.0310 -1.3262
 6352TIP3    H240472   0.164   5.607  15.961  0.5552  0.4402 -0.8730
 6353TIP3   OH240473   1.530   0.795   2.861 -0.3267  0.0215  0.1614
 6353TIP3    H140474   1.484   0.849   2.797  0.0856  0.4652  0.2317
 6353TIP3    H240475   1.590   0.742   2.809  1.6117  1.9457  0.2917
 6354TIP3   OH240476   3.235   2.760   4.415  0.1703  0.2143  0.3893
 6354TIP3    H140477   3.300   2.690   4.422  0.0566 -0.0923 -1.1542
 6354TIP3    H240478   3.180   2.734   4.341 -0.9466  1.0912  0.8774
 6355TIP3   OH240479   2.348   3.794  14.224 -0.4349  0.4024 -0.1750
 6355TIP3    H140480   2.274   3.735  14.210 -0.6634  0.3997  0.9611
 6355TIP3    H240481   2.425   3.737  14.225 -0.5740  0.2183  0.1215
 6356TIP3   OH240482   5.539   5.687  12.877  0.6101 -0.2846  0.4680
 6356TIP3    H140483   5.591   5.624  12.826 -0.0817  1.1857 -2.2396
 6356TIP3    H240484   5.465   5.708  12.821 -0.5736  1.0163  2.4019
 6357TIP3   OH240485   3.979   5.158   2.713 -0.3557  0.2257 -0.3657
 6357TIP3    H140486   3.918   5.219   2.671 -0.9361  1.0461  1.5669
 6357TIP3    H240487   4.005   5.201   2.794  0.7880 -1.2577  0.1099
 6358TIP3   OH240488   4.755   4.143  16.639 -0.2793  0.8095 -0.4026
 6358TIP3    H140489   4.792   4.230  16.657  1.2170  0.2048 -0.3952
 6358TIP3    H240490   4.806   4.111  16.565  0.6080 -0.8794  0.8732
 6359TIP3   OH240491   6.538   6.097  10.923  0.1761  0.5594 -0.1268
 6359TIP3    H140492   6.514   6.006  10.904  1.4867  0.3118 -0.7463
 6359TIP3    H240493   6.482   6.149  10.865  0.3350  0.0667 -0.7441
 6360TIP3   OH240494   6.713   4.197  16.512  0.9037  0.0864  0.0620
 6360TIP3    H140495   6.807   4.190  16.525  1.0418 -0.1427 -1.0003
 6360TIP3    H240496   6.700   4.281  16.467  0.5548  0.2959  0.5329
 6361TIP3   OH240497   5.346   1.968  10.830 -0.1047  0.2241  0.0924
 6361TIP3    H140498   5.382   1.998  10.747  1.4006 -0.1046  0.5997
 6361TIP3    H240499   5.251   1.968  10.816  0.0604  1.3561 -1.2005
 6362TIP3   OH240500   1.244   2.459   2.545 -0.1662  0.0015  0.0458
 6362TIP3    H140501   1.161   2.479   2.587 -0.0981  0.4644 -0.0434
 6362TIP3    H240502   1.268   2.539   2.499 -0.7330 -0.7715 -1.7035
 6363TIP3   OH240503   0.567   6.362   4.770 -0.0710  0.4048  0.1299
 6363TIP3    H140504   0.478   6.338   4.793 -0.6065  1.3773 -0.8720
 6363TIP3    H240505   0.573   6.346   4.676  0.4279  1.4862 -0.0312
 6364TIP3   OH240506   0.499   3.587  11.784 -0.6177  0.3037 -0.1033
 6364TIP3    H140507   0.584   3.559  11.751 -1.1962  0.8940 -2.2432
 6364TIP3    H240508   0.511   3.678  11.810  0.1419 -0.4968  2.6231
 6365TIP3   OH240509   2.271   2.517   2.702  0.4833 -0.2196  0.0256
 6365TIP3    H140510   2.181   2.499   2.672 -0.1939  0.0863  1.7699
 6365TIP3    H240511   2.297   2.595   2.652  0.0242 -0.6773 -0.9574
 6366TIP3   OH240512   2.778   5.551  14.208 -0.0697 -0.4622  0.3165
 6366TIP3    H140513   2.767   5.642  14.180  0.4633  0.0880  1.8057
 6366TIP3    H240514   2.690   5.520  14.227 -0.5300 -1.0241 -2.2950
 6367TIP3   OH240515   5.237   2.150  16.747  0.0346 -0.6727 -0.0419
 6367TIP3    H140516   5.212   2.080  16.688 -1.4486 -1.2339  1.2014
 6367TIP3    H240517   5.164   2.158  16.808  1.7109 -0.5086  2.0748
 6368TIP3   OH240518   3.072   2.464  12.447 -0.2051 -0.1120  0.3339
 6368TIP3    H140519   3.037   2.402  12.511 -0.6200 -2.1896 -1.7727
 6368TIP3    H240520   2.995   2.505  12.408  0.0655  2.2894  2.0774
 6369TIP3   OH240521   0.980   3.855   1.310 -0.0656  0.2137 -0.1914
 6369TIP3    H140522   1.040   3.867   1.237  1.5431 -2.1612  0.6222
 6369TIP3    H240523   1.017   3.908   1.381 -0.6401  1.0996 -0.5304
 6370TIP3   OH240524   4.507   4.346  15.029 -0.7637 -0.1744  0.0982
 6370TIP3    H140525   4.505   4.379  15.119 -1.7046 -0.3461  0.1499
 6370TIP3    H240526   4.586   4.293  15.024  0.0990  1.0406  0.3815
 6371TIP3   OH240527   5.408   0.794  16.797  0.1697  0.4594  0.2098
 6371TIP3    H140528   5.433   0.724  16.737 -0.2827 -1.4415  2.1269
 6371TIP3    H240529   5.450   0.770  16.880 -0.6195  2.0810  1.1191
 6372TIP3   OH240530   5.161   4.594  16.603 -0.5690 -0.1118 -0.5856
 6372TIP3    H140531   5.246   4.616  16.565  0.0680 -1.0488  0.2261
 6372TIP3    H240532   5.148   4.660  16.672  0.8610 -1.5423  1.1677
 6373TIP3   OH240533   4.226   3.677   5.619 -0.8452 -0.3359 -0.4409
 6373TIP3    H140534   4.155   3.680   5.683 -1.8759  0.1120 -1.5727
 6373TIP3    H240535   4.274   3.597   5.642 -0.5411  0.3509  1.5200
 6374TIP3   OH240536   4.080   2.959  15.230  0.2656 -0.5746  0.3306
 6374TIP3    H140537   4.073   2.864  15.231 -1.0079 -0.5010 -0.0955
 6374TIP3    H240538   4.064   2.985  15.321  1.4313 -0.7966  0.6165
 6375TIP3   OH240539   4.235   1.391   4.330  0.3783  0.0293 -0.1546
 6375TIP3    H140540   4.169   1.322   4.338  1.3231 -0.9500 -0.5455
 6375TIP3    H240541   4.317   1.349   4.356  1.2883  0.4472 -2.1000
 6376TIP3   OH240542   4.799   3.388  14.712  0.0799 -0.1499 -0.1552
 6376TIP3    H140543   4.802   3.484  14.718 -1.8225  0.0481 -1.5635
 6376TIP3    H240544   4.848   3.367  14.633  0.3260 -0.3352  0.0439
 6377TIP3   OH240545   0.759   0.131  14.033  0.4221  0.0602  0.0481
 6377TIP3    H140546   0.700   0.056  14.046 -1.6255  1.5139 -0.3773
 6377TIP3    H240547   0.705   0.196  13.988  3.6609 -0.3106 -5.2928
 6378TIP3   OH240548   4.589   1.473  15.040 -0.4100  0.2962 -0.7162
 6378TIP3    H140549   4.599   1.556  14.994 -1.0903  0.2132 -1.0396
 6378TIP3    H240550   4.660   1.418  15.008  0.4395  0.9653 -0.0043
 6379TIP3   OH240551   1.357   3.232  16.128  0.0689  0.2335 -0.1670
 6379TIP3    H140552   1.348   3.185  16.211 -0.3846 -0.4431 -0.5901
 6379TIP3    H240553   1.363   3.324  16.153 -0.1243  0.0423  0.6096
 6380TIP3   OH240554   5.731   6.497  16.184 -0.1154  0.7083  0.1620
 6380TIP3    H140555   5.769   6.446  16.112 -0.6901  1.0335 -0.3906
 6380TIP3    H240556   5.665   6.552  16.141  1.0618  2.5270  0.6038
 6381TIP3   OH240557   5.744   5.838  12.520  0.4163  0.2191  0.5003
 6381TIP3    H140558   5.811   5.871  12.460  0.8283  1.5260  1.6200
 6381TIP3    H240559   5.721   5.914  12.574 -0.1249 -0.8455  1.8219
 6382TIP3   OH240560   0.231   5.451   3.405 -0.1931 -0.2164  0.1687
 6382TIP3    H140561   0.162   5.438   3.341 -1.0459 -0.1523  1.0580
 6382TIP3    H240562   0.263   5.363   3.424 -2.0901 -0.5984  1.9578
 6383TIP3   OH240563   5.617   6.232   3.957 -0.4140  0.0638 -0.4030
 6383TIP3    H140564   5.560   6.299   3.995 -1.5449 -0.0040 -1.9052
 6383TIP3    H240565   5.630   6.169   4.028 -0.4139  1.1728  0.6216
 6384TIP3   OH240566   3.076   5.096  11.821  0.2139  0.2384  0.1199
 6384TIP3    H140567   3.107   5.186  11.816  1.2071 -0.0856  0.2445
 6384TIP3    H240568   3.085   5.073  11.913  0.9383 -0.3083 -0.0751
 6385TIP3   OH240569   1.262   4.217   6.067 -0.1167  0.2862 -0.0292
 6385TIP3    H140570   1.272   4.133   6.112  0.6954 -0.6933 -1.9162
 6385TIP3    H240571   1.346   4.262   6.082  1.0892 -0.9958 -2.2693
 6386TIP3   OH240572   6.769   4.749  14.875 -0.3094  0.0454  0.4481
 6386TIP3    H140573   6.850   4.777  14.918 -0.4360  0.7513  0.2464
 6386TIP3    H240574   6.699   4.794  14.924 -0.3806  2.0104 -1.3176
 6387TIP3   OH240575   3.755   6.157   0.155 -0.0529 -0.0572 -0.6443
 6387TIP3    H140576   3.705   6.114   0.084 -0.4139 -0.7783  0.0263
 6387TIP3    H240577   3.710   6.240   0.169  1.4750  1.2645 -2.9137
 6388TIP3   OH240578   2.483   1.481  12.449 -0.2982 -0.2754 -0.4577
 6388TIP3    H140579   2.469   1.428  12.370  0.7078 -0.7174 -0.3532
 6388TIP3    H240580   2.543   1.429  12.502  0.7031  0.9677 -0.3342
 6389TIP3   OH240581   3.420   1.708  11.015 -0.0065  0.8636 -0.0705
 6389TIP3    H140582   3.476   1.756  11.077  0.3258  0.9867 -0.4615
 6389TIP3    H240583   3.467   1.714  10.932 -0.6814  1.1060 -0.4378
 6390TIP3   OH240584   2.049   2.383   4.486 -0.2623 -0.2900 -0.4734
 6390TIP3    H140585   2.051   2.296   4.447  0.9399 -0.6205  0.2875
 6390TIP3    H240586   2.134   2.392   4.530 -0.4884  1.1437 -0.2850
 6391TIP3   OH240587   5.484   4.281  12.113 -0.1458 -0.0358  0.0794
 6391TIP3    H140588   5.432   4.344  12.063 -0.9693 -1.5052 -0.9854
 6391TIP3    H240589   5.557   4.332  12.147 -0.9031  1.5339 -0.5530
 6392TIP3   OH240590   2.113   5.083  13.278  0.2202 -0.6365  0.0917
 6392TIP3    H140591   2.081   5.149  13.216  2.2555  0.7680  0.4440
 6392TIP3    H240592   2.038   5.067  13.336 -0.4987  1.0247 -0.3005
 6393TIP3   OH240593   2.743   2.869   2.415 -0.5348  0.3957  0.4283
 6393TIP3    H140594   2.805   2.942   2.418  0.6653 -0.6312  1.1741
 6393TIP3    H240595   2.795   2.794   2.386 -1.0018 -0.8746  2.6699
 6394TIP3   OH240596   4.181   3.622   4.338 -0.4189  0.1788  0.4200
 6394TIP3    H140597   4.265   3.664   4.320  0.4217 -1.6629 -0.2464
 6394TIP3    H240598   4.118   3.694   4.342  0.8956  1.4692 -0.8313
 6395TIP3   OH240599   1.937   0.977  16.505  0.3126  0.3725 -0.1423
 6395TIP3    H140600   1.950   0.902  16.447 -2.3861 -2.1154  2.1919
 6395TIP3    H240601   1.843   0.992  16.506  0.6672  3.2837  0.2187
 6396TIP3   OH240602   4.358   4.215  15.263 -0.7429  0.4929  0.0217
 6396TIP3    H140603   4.327   4.275  15.330  0.0194 -1.8356  2.6695
 6396TIP3    H240604   4.453   4.214  15.274 -0.8309 -2.9559  1.9371
 6397TIP3   OH240605   2.943   4.787   0.629 -0.4275 -0.1638 -0.3274
 6397TIP3    H140606   2.939   4.840   0.709  1.5532  0.8797 -0.8450
 6397TIP3    H240607   2.919   4.699   0.657  1.7825 -0.1868  1.8033
 6398TIP3   OH240608   2.277   4.490  16.774  0.1098 -0.2325  0.3402
 6398TIP3    H140609   2.231   4.443  16.704 -1.1334  0.5521  0.5822
 6398TIP3    H240610   2.335   4.551  16.728  0.2393 -0.6057  0.0086
 6399TIP3   OH240611   3.090   2.753   5.658  0.7687  0.2419  0.1205
 6399TIP3    H140612   3.158   2.688   5.676  1.0065 -0.0940 -1.8262
 6399TIP3    H240613   3.129   2.811   5.593 -0.3064  0.8877  0.0431
 6400TIP3   OH240614   1.929   6.259   3.511  0.3462  0.2908  0.3835
 6400TIP3    H140615   1.862   6.193   3.529  0.1655  0.3516 -0.0630
 6400TIP3    H240616   2.008   6.224   3.553  0.1001  0.0915  0.6833
 6401TIP3   OH240617   3.025   0.141   5.269 -0.2454  0.3975 -0.5639
 6401TIP3    H140618   2.955   0.143   5.334 -0.6197 -4.7767 -0.4330
 6401TIP3    H240619   3.104   0.121   5.320 -0.4188 -2.9656 -1.3819
 6402TIP3   OH240620   1.392   4.978  15.791  0.0315 -0.5922  0.1454
 6402TIP3    H140621   1.421   5.013  15.707 -2.3605 -1.0138 -0.9392
 6402TIP3    H240622   1.437   5.032  15.856 -0.1813  1.6115 -1.4318
 6403TIP3   OH240623   0.751   4.085  13.580  0.2239  0.7835  0.1981
 6403TIP3    H140624   0.821   4.123  13.632  0.8076 -0.7189  0.5682
 6403TIP3    H240625   0.781   4.092  13.490  1.7494 -1.4540  0.4531
 6404TIP3   OH240626   1.977   6.336  15.285  0.1315  0.4707 -0.0466
 6404TIP3    H140627   2.071   6.323  15.274  0.2335  1.1380  0.0074
 6404TIP3    H240628   1.969   6.425  15.319 -0.4845  0.2325  0.4642
 6405TIP3   OH240629   4.704   1.517  14.273  0.0372  0.2543  0.5714
 6405TIP3    H140630   4.652   1.450  14.316 -0.6578  0.7363  0.4996
 6405TIP3    H240631   4.645   1.593  14.266  0.2674  0.3338 -0.8286
 6406TIP3   OH240632   3.349   4.020   0.666 -0.1754  0.2445  0.0094
 6406TIP3    H140633   3.369   4.095   0.610  1.1722 -0.1138 -0.0190
 6406TIP3    H240634   3.337   3.947   0.605  0.1559  0.0965  0.1187
 6407TIP3   OH240635   4.301   6.719   3.031  0.0705  0.1281  0.1037
 6407TIP3    H140636   4.333   6.646   2.978  0.9544  1.4264 -1.2431
 6407TIP3    H240637   4.370   6.736   3.094  0.6628  0.8702 -0.7130
 6408TIP3   OH240638   5.215   0.149  11.696  0.3539 -0.1200  0.3720
 6408TIP3    H140639   5.169   0.184  11.620  1.1642 -0.0001 -0.0618
 6408TIP3    H240640   5.182   0.059  11.704 -1.0747  0.4106  0.9746
 6409TIP3   OH240641   4.248   1.089  16.328 -0.1683  0.1665  0.2322
 6409TIP3    H140642   4.274   1.175  16.293 -0.6739  0.5011  0.6578
 6409TIP3    H240643   4.274   1.092  16.420  1.4901 -0.8491 -0.1643
 6410TIP3   OH240644   5.106   6.282   0.434 -0.9434 -0.3411 -0.1131
 6410TIP3    H140645   5.136   6.244   0.352  2.2480  2.6939 -0.6222
 6410TIP3    H240646   5.035   6.340   0.409 -1.7560 -1.3761 -0.2601
 6411TIP3   OH240647   3.219   6.019   5.672  0.8406 -0.0892 -0.0940
 6411TIP3    H140648   3.211   6.012   5.577 -1.4116  0.7215 -0.0104
 6411TIP3    H240649   3.244   5.931   5.700  0.8873 -0.5058 -1.3717
 6412TIP3   OH240650   6.248   1.976  13.922 -0.2325  0.0796 -0.4505
 6412TIP3    H140651   6.255   1.962  14.017 -0.5094  1.8452 -0.1366
 6412TIP3    H240652   6.167   1.932  13.898 -1.1645  1.1999  0.5047
 6413TIP3   OH240653   2.720   2.059   1.825  0.3527 -0.0170 -0.1237
 6413TIP3    H140654   2.721   1.973   1.783  0.3178 -0.7231  1.2633
 6413TIP3    H240655   2.764   2.117   1.762 -0.6479 -0.7792 -1.5846
 6414TIP3   OH240656   3.759   6.351   3.607  0.0796  0.0777 -0.4262
 6414TIP3    H140657   3.758   6.425   3.546  0.5174  1.2078  0.8765
 6414TIP3    H240658   3.795   6.279   3.557 -0.8687  0.5924 -1.8964
 6415TIP3   OH240659   0.402   5.678  11.101 -0.1016 -0.6162 -0.1765
 6415TIP3    H140660   0.427   5.593  11.064 -0.3748 -0.4549 -0.7464
 6415TIP3    H240661   0.484   5.728  11.105  0.4395 -1.5859  2.0549
 6416TIP3   OH240662   5.447   3.864   0.849  0.2035 -0.0049  0.1187
 6416TIP3    H140663   5.478   3.779   0.818  0.7140 -0.3473  1.5080
 6416TIP3    H240664   5.354   3.865   0.826  0.4556 -0.4050 -1.0094
 6417TIP3   OH240665   3.260   5.681   4.258  0.2223 -0.1353  0.5074
 6417TIP3    H140666   3.309   5.742   4.203  0.5554 -1.3097 -0.5590
 6417TIP3    H240667   3.281   5.707   4.348 -0.1065  1.6491  0.1035
 6418TIP3   OH240668   1.479   3.124   4.748  0.6579 -0.2916  0.0423
 6418TIP3    H140669   1.453   3.074   4.825 -0.3994  2.2130  1.4306
 6418TIP3    H240670   1.401   3.172   4.723  1.3061 -0.1739 -1.9434
 6419TIP3   OH240671   1.644   0.075   1.551 -0.4242  0.0309  0.5471
 6419TIP3    H140672   1.574   0.104   1.609  0.1737  2.1905  0.2580
 6419TIP3    H240673   1.602   0.065   1.466 -0.8121 -0.8322  0.8301
 6420TIP3   OH240674   4.802   3.534  13.605 -0.3546  0.1102  0.3807
 6420TIP3    H140675   4.741   3.467  13.576  1.3240 -1.0709 -0.6398
 6420TIP3    H240676   4.825   3.582  13.525 -0.0577  0.6202  0.7627
 6421TIP3   OH240677   5.320   4.187  12.633 -0.6595 -0.0737 -0.4607
 6421TIP3    H140678   5.258   4.245  12.590 -0.5209 -1.1823 -2.2732
 6421TIP3    H240679   5.266   4.125  12.682 -0.8321  0.9327  0.6722
 6422TIP3   OH240680   1.676   1.691   3.543 -0.1067 -0.5262 -0.3263
 6422TIP3    H140681   1.587   1.725   3.548 -0.0977 -0.5803  0.2632
 6422TIP3    H240682   1.668   1.599   3.568  0.3838 -0.0512  1.7938
 6423TIP3   OH240683   0.365   2.088  16.457  0.1635  0.4085 -0.5015
 6423TIP3    H140684   0.439   2.092  16.397  0.9525 -1.5058  0.2473
 6423TIP3    H240685   0.299   2.037  16.410  0.3553 -0.1387 -0.1890
 6424TIP3   OH240686   0.728   2.535  13.722  0.3826 -0.2927  1.0903
 6424TIP3    H140687   0.793   2.582  13.670 -0.8718 -0.3974 -0.6464
 6424TIP3    H240688   0.701   2.599  13.789 -1.2553  1.5487 -1.1833
 6425TIP3   OH240689   6.050   0.063  13.840 -0.2782  0.2630 -0.3677
 6425TIP3    H140690   6.069   0.150  13.875 -1.1514  0.5861 -0.6861
 6425TIP3    H240691   5.989   0.078  13.769  0.2291 -0.5419 -0.9939
 6426TIP3   OH240692   5.534   6.138   6.963 -0.6625 -0.1569  0.7231
 6426TIP3    H140693   5.524   6.228   6.932  0.0580 -1.2420 -3.1921
 6426TIP3    H240694   5.621   6.111   6.933 -1.7085 -2.8233 -0.2205
 6427TIP3   OH240695   3.411   5.439   0.513  0.1140  0.0295  0.4825
 6427TIP3    H140696   3.435   5.347   0.503 -0.5152 -0.1717  0.7833
 6427TIP3    H240697   3.491   5.482   0.543  0.8232 -0.1456 -1.0533
 6428TIP3   OH240698   6.379   1.151  16.848 -0.1584 -0.1075 -0.3092
 6428TIP3    H140699   6.352   1.216  16.784  0.2008  0.8137  0.4479
 6428TIP3    H240700   6.325   1.075  16.830  2.2611 -1.2307 -4.0087
 6429TIP3   OH240701   1.820   1.403  11.799  0.0429 -0.5519 -0.0399
 6429TIP3    H140702   1.854   1.442  11.880  0.2824  0.0082 -0.4101
 6429TIP3    H240703   1.898   1.374  11.751  0.0214  0.7508 -0.8965
 6430TIP3   OH240704   1.920   0.270  13.823  0.0051 -0.1093  0.4497
 6430TIP3    H140705   1.985   0.245  13.889  1.8440  0.8442 -0.8874
 6430TIP3    H240706   1.873   0.344  13.862 -0.3045 -0.7966  1.4289
 6431TIP3   OH240707   4.370   3.288   3.957  0.1382 -0.2327 -0.2007
 6431TIP3    H140708   4.392   3.329   4.041  1.4305 -0.3184 -0.4765
 6431TIP3    H240709   4.455   3.261   3.921 -0.2374  1.0281 -2.1651
 6432TIP3   OH240710   5.262   5.773   2.046  0.4464  0.5448 -0.0258
 6432TIP3    H140711   5.312   5.728   2.115  2.3768  0.0284 -1.6565
 6432TIP3    H240712   5.296   5.863   2.046  2.8466 -0.2057 -2.2390
 6433TIP3   OH240713   5.970   1.929   4.995  0.3463 -0.0010  0.8004
 6433TIP3    H140714   5.993   1.992   4.927 -0.6077  1.1915  1.5379
 6433TIP3    H240715   5.882   1.900   4.972  1.2912 -2.2177 -0.3236
 6434TIP3   OH240716   4.023   3.711   5.844  0.8263 -0.1794 -0.1800
 6434TIP3    H140717   3.964   3.786   5.852  2.0421  0.9651 -1.2486
 6434TIP3    H240718   4.079   3.716   5.922  2.3917  1.4771 -1.3056
 6435TIP3   OH240719   3.333   6.300  17.158  0.9246 -0.0033 -0.3076
 6435TIP3    H140720   3.261   6.327  17.215 -0.9784 -2.5916 -1.2876
 6435TIP3    H240721   3.364   6.382  17.119 -2.2278  1.1848 -0.6673
 6436TIP3   OH240722   6.235   5.580   5.044 -0.4662  0.5175  0.5648
 6436TIP3    H140723   6.323   5.582   5.083 -0.6798  0.1232  1.0832
 6436TIP3    H240724   6.222   5.488   5.021 -0.7394  0.5773  0.4757
 6437TIP3   OH240725   3.153   5.040   0.785  0.8553  0.1667  0.0570
 6437TIP3    H140726   3.132   4.990   0.864  2.1159 -2.0274 -0.8887
 6437TIP3    H240727   3.217   5.105   0.814  0.1597  0.4108  1.0927
 6438TIP3   OH240728   2.375   5.509  16.523 -0.0878  0.1147  0.1182
 6438TIP3    H140729   2.296   5.561  16.510 -2.0866 -3.0670 -1.8137
 6438TIP3    H240730   2.345   5.431  16.570  2.4719 -0.0641  1.6486
 6439TIP3   OH240731   6.377   4.896   2.768  0.1733 -0.0612 -0.2906
 6439TIP3    H140732   6.461   4.854   2.752  0.8836  1.2524 -0.0719
 6439TIP3    H240733   6.345   4.921   2.681  0.5259  0.4339 -0.2751
 6440TIP3   OH240734   3.246   2.548   4.976 -0.5666  0.8729 -0.0792
 6440TIP3    H140735   3.198   2.514   5.051 -1.7984  1.8347 -0.3853
 6440TIP3    H240736   3.230   2.485   4.906 -0.7961  0.8209  0.0203
 6441TIP3   OH240737   2.559   1.495  11.027  0.1424 -0.5256  0.3018
 6441TIP3    H140738   2.583   1.495  10.934  1.4666 -0.5090  0.6175
 6441TIP3    H240739   2.572   1.585  11.055 -2.4687  0.0040  0.0058
 6442TIP3   OH240740   4.450   0.688   1.055  0.1499  0.3349 -0.4345
 6442TIP3    H140741   4.414   0.758   1.110 -1.2443 -0.8751  0.2418
 6442TIP3    H240742   4.405   0.699   0.971 -0.6749 -0.2173 -0.0778
 6443TIP3   OH240743   4.827   6.388   6.024 -0.1108  0.1154 -0.5154
 6443TIP3    H140744   4.910   6.434   6.009  0.4677 -0.1569  1.5052
 6443TIP3    H240745   4.854   6.300   6.052 -1.0724  0.0608  0.2826
 6444TIP3   OH240746   4.073   6.419  13.797  0.1466 -0.3930  0.8141
 6444TIP3    H140747   4.154   6.375  13.772 -0.3940 -0.5649 -0.7258
 6444TIP3    H240748   4.005   6.376  13.746 -0.4931  1.7834 -0.2843
 6445TIP3   OH240749   0.588   1.074  12.807  0.2853  0.7913 -0.1124
 6445TIP3    H140750   0.674   1.057  12.847 -0.7971 -0.5019  1.8703
 6445TIP3    H240751   0.575   1.001  12.746 -0.3696 -0.4295  1.4053
 6446TIP3   OH240752   3.290   2.140   0.007  0.1952 -0.7050  0.1896
 6446TIP3    H140753   3.365   2.200   0.010  0.7383 -1.1169 -2.5605
 6446TIP3    H240754   3.214   2.198   0.000  0.4232 -0.3125  0.8791
 6447TIP3   OH240755   4.380   4.524   2.171  0.1490  0.2198 -0.4128
 6447TIP3    H140756   4.357   4.601   2.119 -1.1972  0.1953  0.0967
 6447TIP3    H240757   4.444   4.556   2.234  0.0106  0.8038 -0.5635
 6448TIP3   OH240758   0.757   2.890   3.960  0.1877  0.1626  0.3604
 6448TIP3    H140759   0.681   2.948   3.948  0.6812  0.4275 -1.9681
 6448TIP3    H240760   0.724   2.818   4.014 -1.8514  0.0990 -0.8513
 6449TIP3   OH240761   6.191   6.126   2.145  0.7979  0.2949  0.4167
 6449TIP3    H140762   6.133   6.056   2.174  0.0778  0.8183  0.2775
 6449TIP3    H240763   6.135   6.182   2.091  1.5218  0.6290  0.0035
 6450TIP3   OH240764   0.708   4.164   6.003 -0.4312  0.3569 -0.2488
 6450TIP3    H140765   0.632   4.155   5.946  0.6251 -1.5144 -1.4485
 6450TIP3    H240766   0.681   4.123   6.086 -1.1987  1.0313 -0.1564
 6451TIP3   OH240767   5.374   3.285  12.531  0.3120 -0.2076 -0.1821
 6451TIP3    H140768   5.293   3.324  12.497 -1.5066 -2.2210  1.5232
 6451TIP3    H240769   5.437   3.356  12.530 -1.6677  1.6542 -0.9530
 6452TIP3   OH240770   3.532   0.337   4.820  0.0642 -0.3095 -0.2381
 6452TIP3    H140771   3.529   0.412   4.879 -0.0967  0.4250 -1.1502
 6452TIP3    H240772   3.615   0.293   4.841  0.7783  0.8380 -0.5250
 6453TIP3   OH240773   2.342   1.749   4.028 -0.5891  0.8218 -0.1317
 6453TIP3    H140774   2.313   1.718   4.113 -1.2785  2.7384  0.3850
 6453TIP3    H240775   2.318   1.842   4.027  0.9729  1.2585 -1.7244
 6454TIP3   OH240776   1.520   6.674   2.179  0.0047 -0.0477  0.0256
 6454TIP3    H140777   1.508   6.637   2.091  0.5968 -1.8758  0.6759
 6454TIP3    H240778   1.432   6.693   2.209 -0.3995 -1.6592 -0.0617
 6455TIP3   OH240779   1.555   0.582  17.226 -0.0050  0.9919 -0.6883
 6455TIP3    H140780   1.517   0.564  17.312  1.2280  1.3384 -0.0423
 6455TIP3    H240781   1.650   0.575  17.240  0.2471  1.9331 -1.8085
 6456TIP3   OH240782   2.369   1.154  12.349 -0.7004  0.2386  0.4142
 6456TIP3    H140783   2.295   1.213  12.337 -1.7226 -0.9965  0.5177
 6456TIP3    H240784   2.408   1.146  12.262 -1.1131  0.3293  0.2182
 6457TIP3   OH240785   6.672   2.702  13.247 -0.3808  0.0236 -0.1354
 6457TIP3    H140786   6.721   2.763  13.192  0.3340  2.7010  3.1803
 6457TIP3    H240787   6.589   2.689  13.201  1.3070 -0.5792 -3.3590
 6458TIP3   OH240788   0.948   5.496   4.468  0.0856  0.1985 -0.8408
 6458TIP3    H140789   0.909   5.510   4.554 -0.2656  1.9909 -1.2547
 6458TIP3    H240790   1.040   5.479   4.486 -0.3983 -1.8672  0.0000
 6459TIP3   OH240791   3.560   1.958   1.790  0.2043  0.2261  0.0034
 6459TIP3    H140792   3.581   2.015   1.865 -1.6342  0.2090  0.5736
 6459TIP3    H240793   3.523   2.017   1.725 -0.6532 -0.1327  0.1530
 6460TIP3   OH240794   3.953   6.084  16.612  0.4800 -0.7427  0.3977
 6460TIP3    H140795   3.980   6.092  16.704 -0.8847 -1.1286  0.8597
 6460TIP3    H240796   3.909   5.999  16.608  1.1533 -1.0503 -0.7945
 6461TIP3   OH240797   5.517   3.239  15.541 -0.8930 -0.3599  0.6006
 6461TIP3    H140798   5.605   3.206  15.523 -0.2538  0.4562  2.0788
 6461TIP3    H240799   5.531   3.321  15.588 -2.4545 -0.0008  0.4982
 6462TIP3   OH240800   0.759   6.234   4.489 -0.4729  0.1431  0.0521
 6462TIP3    H140801   0.814   6.181   4.432 -0.2954 -0.9685  1.2152
 6462TIP3    H240802   0.779   6.325   4.463  1.4584 -0.2359  0.0158
 6463TIP3   OH240803   3.374   2.160   6.137  0.8008  0.1119  0.6982
 6463TIP3    H140804   3.391   2.187   6.047 -2.8258 -1.2491 -0.5833
 6463TIP3    H240805   3.373   2.242   6.187  1.1741  1.0866 -0.8186
 6464TIP3   OH240806   6.113   6.178  13.857 -0.3048 -0.0593 -0.3703
 6464TIP3    H140807   6.172   6.232  13.803  0.8225 -0.1489  0.7223
 6464TIP3    H240808   6.043   6.237  13.883  0.1792  0.5073 -0.3365
 6465TIP3   OH240809   6.000   5.347   5.977  0.0349 -0.5255  0.3899
 6465TIP3    H140810   6.041   5.406   6.041 -1.5303  1.7368 -0.5685
 6465TIP3    H240811   5.997   5.262   6.021 -0.7149  0.8601  3.2321
 6466TIP3   OH240812   5.778   4.437   1.705 -0.2517 -0.2141  0.7789
 6466TIP3    H140813   5.722   4.497   1.754  1.4391 -0.1315  2.7072
 6466TIP3    H240814   5.717   4.373   1.667 -1.8267  1.1153  0.9844
 6467TIP3   OH240815   1.781   5.433   4.236 -1.0123  0.6704  0.1218
 6467TIP3    H140816   1.864   5.424   4.188 -0.3593 -0.2374  1.3312
 6467TIP3    H240817   1.720   5.469   4.173  0.3863  1.6301 -0.7363
 6468TIP3   OH240818   1.590   0.161   1.277 -0.3910 -0.2892 -0.3019
 6468TIP3    H140819   1.554   0.244   1.309 -1.0523 -0.4845 -0.5192
 6468TIP3    H240820   1.518   0.099   1.287  0.5040 -1.1602  1.1105
 6469TIP3   OH240821   4.688   6.360   2.156  0.6850  0.0730  0.4867
 6469TIP3    H140822   4.698   6.291   2.221  0.7744  0.2074  0.6187
 6469TIP3    H240823   4.774   6.403   2.155  0.9786 -0.5172 -0.3978
 6470TIP3   OH240824   3.741   5.579  16.631 -0.1255 -0.0226  0.2882
 6470TIP3    H140825   3.802   5.514  16.666 -0.2267  0.1998  0.8837
 6470TIP3    H240826   3.675   5.590  16.699  0.0739  0.9535  0.3438
 6471TIP3   OH240827   3.756   2.074  11.557  0.1414 -0.3595 -0.0696
 6471TIP3    H140828   3.747   1.982  11.531 -1.2299 -0.0742 -0.6624
 6471TIP3    H240829   3.680   2.091  11.612  0.7305  0.2581  0.5669
 6472TIP3   OH240830   0.643   1.320  12.698 -0.2724 -0.0802 -0.2870
 6472TIP3    H140831   0.562   1.356  12.664 -0.3897  1.9371  1.8759
 6472TIP3    H240832   0.617   1.238  12.741 -0.8706 -0.2352 -0.9286
 6473TIP3   OH240833   4.187   3.087   3.886 -0.3136 -0.1766  0.0170
 6473TIP3    H140834   4.115   3.113   3.828 -0.2960  0.6322  0.3493
 6473TIP3    H240835   4.257   3.150   3.868 -0.2922  0.0612  0.8826
 6474TIP3   OH240836   0.654   1.238  13.733  0.2173 -0.1732 -0.2702
 6474TIP3    H140837   0.672   1.227  13.640  1.8898 -1.4893  0.1566
 6474TIP3    H240838   0.727   1.289  13.766 -1.2474  1.8242  0.0667
 6475TIP3   OH240839   2.572   3.367   5.284 -0.1746  0.3624 -0.1057
 6475TIP3    H140840   2.582   3.282   5.326  0.7749  0.2015 -0.6187
 6475TIP3    H240841   2.658   3.409   5.295 -0.8606  1.5680  0.8062
 6476TIP3   OH240842   6.527   3.224  12.321 -0.4676 -0.2228 -0.3233
 6476TIP3    H140843   6.481   3.227  12.237  2.2050 -1.9283 -1.9665
 6476TIP3    H240844   6.561   3.135  12.328 -0.3581 -0.0658  2.4993
 6477TIP3   OH240845   1.831   0.470  14.861 -0.7511 -0.3088 -0.1055
 6477TIP3    H140846   1.829   0.496  14.953 -1.8433  0.5899 -0.3618
 6477TIP3    H240847   1.771   0.396  14.856  0.6721 -1.5275  0.2113
 6478TIP3   OH240848   1.145   2.619   0.424  0.4142  0.0114 -0.3885
 6478TIP3    H140849   1.112   2.699   0.383  2.3455  0.5271 -1.0613
 6478TIP3    H240850   1.167   2.645   0.514 -1.8323 -0.5953  0.4132
 6479TIP3   OH240851   1.362   1.550   3.240  0.0922 -0.0463 -0.1029
 6479TIP3    H140852   1.445   1.598   3.244 -0.0474  0.2793 -0.8395
 6479TIP3    H240853   1.338   1.552   3.147  0.5985 -2.4367 -0.3549
 6480TIP3   OH240854   4.142   1.415  16.880 -0.2731 -0.0723  0.2760
 6480TIP3    H140855   4.134   1.510  16.876 -0.5269 -0.1224 -2.3912
 6480TIP3    H240856   4.179   1.390  16.795  1.8795 -2.2218  1.7003
 6481TIP3   OH240857   0.889   1.726   1.921 -0.3489 -0.5308 -0.1632
 6481TIP3    H140858   0.807   1.690   1.951 -1.0803 -0.0395 -1.4696
 6481TIP3    H240859   0.879   1.821   1.931  1.2726 -0.5349  2.5646
 6482TIP3   OH240860   0.945   4.839   5.683  0.0320 -0.1747  0.3713
 6482TIP3    H140861   0.896   4.906   5.731  0.4550 -0.1705  0.8021
 6482TIP3    H240862   1.016   4.887   5.640 -1.3460  0.1258 -1.7583
 6483TIP3   OH240863   2.382   6.484   0.105 -0.8920  0.7488  0.4215
 6483TIP3    H140864   2.331   6.454   0.030 -0.6809  0.2712  0.4618
 6483TIP3    H240865   2.347   6.570   0.126 -1.2583  0.6891  0.0584
 6484TIP3   OH240866   6.572   5.585  12.378 -0.2427 -0.5585  0.0421
 6484TIP3    H140867   6.493   5.593  12.324  0.3778 -1.3612 -1.0296
 6484TIP3    H240868   6.602   5.675  12.390  0.1162 -0.4004 -1.7762
 6485TIP3   OH240869   6.251   0.948  13.624 -0.3043  0.1550  0.1154
 6485TIP3    H140870   6.287   0.894  13.554  0.9104  2.2393 -0.9707
 6485TIP3    H240871   6.219   1.027  13.580  0.4724  1.5408  1.8746
 6486TIP3   OH240872   5.876   5.279   6.234 -0.1979 -0.4350 -0.0191
 6486TIP3    H140873   5.937   5.212   6.204 -0.6334 -0.8578  0.0205
 6486TIP3    H240874   5.903   5.359   6.189  1.0645 -0.3573  0.8333
 6487TIP3   OH240875   6.158   4.397  11.784  0.1858 -0.2492  0.3469
 6487TIP3    H140876   6.209   4.456  11.729 -1.3350  0.8324  0.0295
 6487TIP3    H240877   6.201   4.312  11.776  0.7304  0.1627 -1.5188
 6488TIP3   OH240878   2.504   1.988  12.326  0.7896 -0.1166  0.1782
 6488TIP3    H140879   2.510   1.913  12.267  1.6973 -0.9779  1.3304
 6488TIP3    H240880   2.496   1.950  12.413 -3.4896  1.0509  0.5533
 6489TIP3   OH240881   1.352   1.596   6.610  0.0483  0.2799 -0.2709
 6489TIP3    H140882   1.293   1.609   6.536 -1.0440  0.4256  0.5903
 6489TIP3    H240883   1.321   1.658   6.676 -1.7717 -2.6598  1.8922
 6490TIP3   OH240884   3.606   2.993   1.020  0.1478 -0.1898 -0.4906
 6490TIP3    H140885   3.539   2.952   0.966  1.1541  1.9419 -3.6530
 6490TIP3    H240886   3.560   3.065   1.064 -0.3002 -0.8355  0.1250
 6491TIP3   OH240887   5.915   4.821  11.839  0.4208  0.7455  0.3373
 6491TIP3    H140888   5.930   4.728  11.851 -3.8141 -0.0674  0.9403
 6491TIP3    H240889   5.996   4.863  11.869  1.2768 -2.5986  3.3227
 6492TIP3   OH240890   2.852   3.354   6.403  0.3379 -0.0046  0.3715
 6492TIP3    H140891   2.929   3.299   6.413  0.0323 -0.4302  0.3935
 6492TIP3    H240892   2.782   3.308   6.449  0.3648  1.0203  1.4851
 6493TIP3   OH240893   5.969   3.028  15.452  0.1953 -0.7954  0.6957
 6493TIP3    H140894   5.946   2.950  15.504 -0.0158 -1.7080 -0.6996
 6493TIP3    H240895   6.050   3.004  15.408  0.7619  0.2476  1.1353
 6494TIP3   OH240896   0.772   3.046  16.810  0.1479 -0.3667  0.5338
 6494TIP3    H140897   0.724   2.965  16.825  1.2068 -0.6465  2.7094
 6494TIP3    H240898   0.771   3.091  16.894  4.1323 -0.6931  0.9520
 6495TIP3   OH240899   5.009   6.315  15.850 -0.7512 -0.5881  0.4993
 6495TIP3    H140900   5.053   6.372  15.787 -1.7049  0.3129  0.6234
 6495TIP3    H240901   5.011   6.364  15.933 -1.0352 -0.9962  0.7533
 6496TIP3   OH240902   5.830   0.975  11.138  0.4542 -0.1614  0.0980
 6496TIP3    H140903   5.865   1.037  11.203  0.1079 -1.0914  1.2023
 6496TIP3    H240904   5.855   1.012  11.054  1.8789  0.5157  0.7860
 6497TIP3   OH240905   5.564   0.094  13.391 -0.0851 -0.3935 -0.2326
 6497TIP3    H140906   5.606   0.152  13.455  1.4747 -0.0576 -1.5156
 6497TIP3    H240907   5.582   0.006  13.423  1.3921 -0.2503 -0.6059
 6498TIP3   OH240908   0.500   2.082   3.669 -0.4631  0.3298 -0.2112
 6498TIP3    H140909   0.578   2.103   3.722 -0.7531 -0.9748  0.8028
 6498TIP3    H240910   0.428   2.127   3.713 -0.3873  1.0071 -0.7708
 6499TIP3   OH240911   0.880   6.098   3.499 -0.2306 -0.3865 -0.2140
 6499TIP3    H140912   0.864   6.029   3.433 -2.9321 -1.4281  1.3447
 6499TIP3    H240913   0.811   6.084   3.564 -0.5915  3.5110  0.4598
 6500TIP3   OH240914   0.645   5.539   6.689  0.2645  0.1484  0.4286
 6500TIP3    H140915   0.650   5.599   6.615  0.1370  0.3736  0.6004
 6500TIP3    H240916   0.555   5.504   6.685  0.4356 -0.2670  0.1469
 6501TIP3   OH240917   2.089   5.647  13.918  0.0985 -0.4252  0.0707
 6501TIP3    H140918   2.183   5.635  13.935 -0.0115 -1.0754  0.2397
 6501TIP3    H240919   2.082   5.650  13.823  0.0281 -2.8867 -0.0830
 6502TIP3   OH240920   4.663   3.824   5.225 -0.3403  0.1976  0.1946
 6502TIP3    H140921   4.638   3.898   5.170 -0.9212 -0.8441 -1.0049
 6502TIP3    H240922   4.594   3.759   5.210  1.0942 -1.2876 -0.2234
 6503TIP3   OH240923   5.693   0.770   2.629 -0.2507 -0.0385  0.0214
 6503TIP3    H140924   5.686   0.713   2.706  2.1431  0.8925  1.0367
 6503TIP3    H240925   5.625   0.836   2.642 -0.1583 -0.1420  1.1698
 6504TIP3   OH240926   3.533   0.276  15.194  0.2938  0.3908  0.2942
 6504TIP3    H140927   3.553   0.290  15.286 -0.5238  1.5738  0.3184
 6504TIP3    H240928   3.487   0.356  15.167  0.1226 -0.1221 -1.0198
 6505TIP3   OH240929   3.673   0.965  14.691  0.2450 -0.0840  0.1973
 6505TIP3    H140930   3.681   0.871  14.707 -0.0595 -0.2670 -0.6840
 6505TIP3    H240931   3.590   0.989  14.732  0.1930 -0.2510  0.1886
 6506TIP3   OH240932   4.372   0.362  15.726 -0.3655  0.1561 -0.0344
 6506TIP3    H140933   4.305   0.362  15.794 -0.6695  0.2023 -0.3310
 6506TIP3    H240934   4.408   0.274  15.728 -0.4528  0.1229  0.1088
 6507TIP3   OH240935   2.578   5.906  11.741  0.5724  0.5554  0.1220
 6507TIP3    H140936   2.663   5.883  11.704  1.0287 -0.2221  1.5980
 6507TIP3    H240937   2.593   5.989  11.786  0.6832  0.2043  0.7515
 6508TIP3   OH240938   6.292   2.236   2.529 -0.4818  0.5792  0.3352
 6508TIP3    H140939   6.209   2.247   2.576 -0.3969 -0.0506  0.6332
 6508TIP3    H240940   6.352   2.198   2.593 -0.7195 -1.4893 -0.5879
 6509TIP3   OH240941   6.161   0.749   2.501 -0.0498 -0.3086  0.0230
 6509TIP3    H140942   6.136   0.834   2.537 -3.2333 -0.6510 -1.0556
 6509TIP3    H240943   6.099   0.687   2.540  2.1577 -2.1995  0.7534
 6510TIP3   OH240944   2.624   2.348  16.956  0.2740  0.1244  0.1162
 6510TIP3    H140945   2.605   2.267  17.004  0.1587 -0.7158 -1.3045
 6510TIP3    H240946   2.579   2.417  17.006  0.0349 -0.7355  1.1099
 6511TIP3   OH240947   4.125   2.816   2.575 -0.2233  0.0499 -0.0448
 6511TIP3    H140948   4.059   2.883   2.590 -1.8362 -1.4385 -0.2350
 6511TIP3    H240949   4.076   2.739   2.548  1.5561 -1.2476  0.2276
 6512TIP3   OH240950   2.034   5.684   0.732 -0.0415  0.0855  0.1253
 6512TIP3    H140951   1.978   5.761   0.740  0.3343  0.3398  0.2938
 6512TIP3    H240952   1.973   5.610   0.738 -0.5956  0.3675 -1.4372
 6513TIP3   OH240953   1.265   6.463   5.707  1.3211 -0.0932  0.0384
 6513TIP3    H140954   1.316   6.419   5.775  0.4128 -2.1420 -0.5157
 6513TIP3    H240955   1.188   6.408   5.696  0.9831  0.6970 -1.9841
 6514TIP3   OH240956   5.333   5.397   2.384 -0.0683 -0.0938  0.4336
 6514TIP3    H140957   5.322   5.306   2.357 -0.0913  0.0446 -0.0291
 6514TIP3    H240958   5.245   5.432   2.389 -0.0753 -0.1599  0.8524
 6515TIP3   OH240959   3.080   0.207  11.201 -0.2334 -0.0080 -0.8483
 6515TIP3    H140960   3.125   0.278  11.155  0.0577  0.2024 -0.2484
 6515TIP3    H240961   3.003   0.248  11.240  1.1229  0.5410  1.4499
 6516TIP3   OH240962   3.977   6.687  10.653  0.0708  0.6728 -0.1340
 6516TIP3    H140963   3.889   6.699  10.688 -0.6690  2.1313 -2.2756
 6516TIP3    H240964   3.983   6.593  10.637  0.1450  0.0608  2.8727
 6517TIP3   OH240965   2.625   1.639   3.550 -0.1230  0.6378 -0.0695
 6517TIP3    H140966   2.638   1.734   3.548  1.2590  0.4656 -0.4599
 6517TIP3    H240967   2.530   1.628   3.550 -0.4630  1.9952 -3.8999
 6518TIP3   OH240968   4.194   1.413  11.639  0.1249  0.1211  0.6177
 6518TIP3    H140969   4.251   1.474  11.686  1.2411  0.8609 -1.5572
 6518TIP3    H240970   4.206   1.330  11.685  1.3811  0.7362  1.4596
 6519TIP3   OH240971   1.189   2.724   6.012 -0.0335  0.5875 -0.1965
 6519TIP3    H140972   1.233   2.792   5.961  1.1486 -0.1396 -0.1716
 6519TIP3    H240973   1.143   2.772   6.081  1.3472  1.3389  0.2421
 6520TIP3   OH240974   1.823   2.425  13.321 -0.5483 -0.1324 -0.0509
 6520TIP3    H140975   1.857   2.427  13.410 -1.7040  0.2469  0.3991
 6520TIP3    H240976   1.901   2.417  13.265  0.2222  0.2398  0.9540
 6521TIP3   OH240977   3.509   1.960   5.658 -0.4667  0.3243  0.0867
 6521TIP3    H140978   3.500   1.935   5.750 -0.2381  1.1139  0.3333
 6521TIP3    H240979   3.603   1.958   5.641 -0.5722 -0.8116 -0.4257
 6522TIP3   OH240980   3.083   3.055   1.632 -0.5954 -0.5120  0.0041
 6522TIP3    H140981   3.093   2.977   1.578 -0.7868 -0.5957  0.0890
 6522TIP3    H240982   3.132   3.035   1.712  0.1707 -0.1629 -0.3696
 6523TIP3   OH240983   0.894   5.121   2.781  0.9595 -0.6259  0.5297
 6523TIP3    H140984   0.943   5.076   2.849 -0.0391 -1.0209  1.0135
 6523TIP3    H240985   0.914   5.213   2.793  1.9413 -0.8179  0.4146
 6524TIP3   OH240986   4.394   2.754  16.094 -0.0764  0.6320  0.2650
 6524TIP3    H140987   4.408   2.703  16.174 -1.7669 -1.0768 -0.4470
 6524TIP3    H240988   4.446   2.708  16.028 -1.4810 -0.1190 -0.3490
 6525TIP3   OH240989   4.694   1.256   2.835  0.1897 -0.1726  0.0052
 6525TIP3    H140990   4.697   1.199   2.912 -0.9181  1.1320  1.0701
 6525TIP3    H240991   4.614   1.308   2.846  1.6374  2.3046 -0.3718
 6526TIP3   OH240992   2.750   5.920   1.103 -0.1957  0.9339 -0.1751
 6526TIP3    H140993   2.733   5.843   1.158 -0.8869  0.8296 -0.5301
 6526TIP3    H240994   2.846   5.923   1.097 -0.0882  1.1858  1.3527
 6527TIP3   OH240995   5.086   6.495   1.687 -0.0667  0.3177 -0.6395
 6527TIP3    H140996   5.081   6.584   1.721  0.4295 -0.4405  1.6125
 6527TIP3    H240997   5.012   6.449   1.727  0.4862 -0.6186 -0.6563
 6528TIP3   OH240998   0.185   5.791   2.677  0.0480 -0.0577 -0.7007
 6528TIP3    H140999   0.237   5.741   2.615  1.1791 -2.4349  1.9391
 6528TIP3    H241000   0.249   5.827   2.739 -1.0056  2.4222 -0.9442
 6529TIP3   OH241001   3.529   0.354  13.811  1.0376 -0.5161  0.9149
 6529TIP3    H141002   3.577   0.315  13.738  0.2096 -0.8029  0.5082
 6529TIP3    H241003   3.481   0.281  13.850  1.0329 -0.2596  1.4014
 6530TIP3   OH241004   3.264   5.411  14.567  0.3335  0.4559 -0.6440
 6530TIP3    H141005   3.271   5.316  14.554  0.9674  0.5790 -1.3313
 6530TIP3    H241006   3.282   5.448  14.480 -1.6194  1.1621 -0.7883
 6531TIP3   OH241007   0.047   3.260   3.215  0.6781 -0.4017  0.2979
 6531TIP3    H141008   0.090   3.175   3.222  0.0697 -0.9145 -1.6836
 6531TIP3    H241009   0.119   3.323   3.214  1.3111 -1.1059 -0.9849
 6532TIP3   OH241010   0.781   2.518  14.725  0.0492 -0.6710  0.1299
 6532TIP3    H141011   0.724   2.535  14.651 -0.1421 -0.9156  0.2207
 6532TIP3    H241012   0.851   2.582  14.716 -1.1306  0.8002  0.9664
 6533TIP3   OH241013   3.106   1.396   5.405 -0.3692 -0.5356 -0.4364
 6533TIP3    H141014   3.193   1.386   5.368 -0.4680 -1.3936 -0.4640
 6533TIP3    H241015   3.054   1.436   5.335  0.1626  0.6212 -0.1776
 6534TIP3   OH241016   4.644   2.911  12.393 -0.6401  0.4887  0.5805
 6534TIP3    H141017   4.735   2.922  12.366  0.0499 -1.4128  1.8760
 6534TIP3    H241018   4.598   2.986  12.355  1.0224  0.3378 -1.9355
 6535TIP3   OH241019   3.390   6.633   2.881  0.3492 -0.2787  0.0461
 6535TIP3    H141020   3.397   6.728   2.886  1.3036 -0.3570  0.5391
 6535TIP3    H241021   3.368   6.606   2.970 -1.0789 -0.4565 -0.3366
 6536TIP3   OH241022   0.693   1.129  10.911 -0.2597 -0.0949  0.8171
 6536TIP3    H141023   0.615   1.174  10.944  0.1141  0.2233  1.2815
 6536TIP3    H241024   0.678   1.037  10.932 -1.1174 -0.2431 -0.3046
 6537TIP3   OH241025   4.442   0.231   5.631  0.1395  0.0179 -0.7188
 6537TIP3    H141026   4.454   0.319   5.595  0.4251  0.8706  1.3442
 6537TIP3    H241027   4.519   0.217   5.685 -0.2951 -1.1822 -0.3911
 6538TIP3   OH241028   3.807   5.124   1.090  0.3045 -0.7855  0.0217
 6538TIP3    H141029   3.802   5.033   1.060 -1.0902 -0.4618 -0.8037
 6538TIP3    H241030   3.772   5.122   1.179 -3.9532 -0.4917 -1.4220
 6539TIP3   OH241031   0.378   3.808   0.217 -0.0987  0.4084 -0.1901
 6539TIP3    H141032   0.369   3.897   0.183  1.3274  0.4645 -0.4620
 6539TIP3    H241033   0.315   3.757   0.167 -1.4288  1.3551  0.4256
 6540TIP3   OH241034   5.048   3.808   4.319 -0.3189 -0.4060 -0.1217
 6540TIP3    H141035   5.015   3.855   4.396 -1.2105 -1.7431  0.3579
 6540TIP3    H241036   4.987   3.832   4.249 -1.0791 -1.2043  0.2445
 6541TIP3   OH241037   4.889   5.389  15.628 -0.1232 -0.0516 -0.7515
 6541TIP3    H141038   4.841   5.380  15.546  0.1970  0.0104 -0.9479
 6541TIP3    H241039   4.921   5.300  15.646  1.8266  0.3490 -1.9452
 6542TIP3   OH241040   1.489   0.878  15.313 -0.3546  0.5853  0.2349
 6542TIP3    H141041   1.429   0.952  15.304 -2.0771 -0.5527  1.5275
 6542TIP3    H241042   1.505   0.849  15.223 -0.8803  1.5816 -0.1989
 6543TIP3   OH241043   3.280   5.793  13.217 -0.0908  0.3490  0.5120
 6543TIP3    H141044   3.363   5.773  13.260 -0.1579  1.5556  1.2341
 6543TIP3    H241045   3.220   5.724  13.246  0.4616 -0.1163  0.5578
 6544TIP3   OH241046   2.956   3.060   2.387 -0.1638 -0.4529  0.3289
 6544TIP3    H141047   2.971   3.093   2.298 -0.6153  0.8182  0.7093
 6544TIP3    H241048   3.039   3.019   2.410 -0.0222 -0.7632 -0.6610
 6545TIP3   OH241049   6.579   6.756  12.722  0.0472  0.3137  0.3533
 6545TIP3    H141050   6.659   6.752  12.670 -0.9813 -1.2701 -1.2248
 6545TIP3    H241051   6.575   6.671  12.766 -0.1365  0.8702  1.4556
 6546TIP3   OH241052   2.478   6.005  16.115 -0.0374 -0.5780  0.0307
 6546TIP3    H141053   2.562   5.998  16.162  0.3618 -0.8950 -0.7173
 6546TIP3    H241054   2.423   6.058  16.173  0.0155 -1.9887  1.4602
 6547TIP3   OH241055   6.453   3.489   1.640  0.7344  0.5062  1.0217
 6547TIP3    H141056   6.522   3.537   1.595 -0.0003  0.0304 -0.6878
 6547TIP3    H241057   6.420   3.550   1.705  0.0976  2.2168 -0.8012
 6548TIP3   OH241058   5.395   6.135  15.052 -0.3354 -0.0182  0.2643
 6548TIP3    H141059   5.409   6.226  15.027  0.9244  0.1375  1.4194
 6548TIP3    H241060   5.475   6.090  15.024 -1.1744 -0.9079 -0.8065
 6549TIP3   OH241061   0.622   2.354   1.500 -0.5866 -0.0403  0.8771
 6549TIP3    H141062   0.658   2.271   1.532  0.0260 -0.0794  0.1085
 6549TIP3    H241063   0.577   2.331   1.419  0.0987  0.4675  0.3432
 6550TIP3   OH241064   2.662   0.239  15.383  0.7392 -0.4699  0.2766
 6550TIP3    H141065   2.629   0.309  15.440  1.3945 -1.0603  1.4351
 6550TIP3    H241066   2.675   0.165  15.442  0.9163 -1.2913 -0.7637
 6551TIP3   OH241067   1.297   3.250  11.895  0.1381 -0.1013  0.0994
 6551TIP3    H141068   1.209   3.223  11.869  0.2227  1.1667 -1.7319
 6551TIP3    H241069   1.283   3.314  11.964 -0.5084  1.3477 -1.3254
 6552TIP3   OH241070   6.091   6.267  16.149 -0.2244  0.0200 -0.1853
 6552TIP3    H141071   6.133   6.181  16.154 -1.1117 -0.5739 -1.8712
 6552TIP3    H241072   6.051   6.279  16.235 -0.0124 -1.2222  0.1082
 6553TIP3   OH241073   1.052   6.506  13.462 -0.0395  0.4126  0.6877
 6553TIP3    H141074   1.029   6.424  13.505  2.4822  0.2587  1.9682
 6553TIP3    H241075   1.125   6.483  13.404 -0.8793  1.3413 -0.8133
 6554TIP3   OH241076   1.406   2.373  15.781  0.6110  0.3650  0.1278
 6554TIP3    H141077   1.357   2.396  15.859 -0.0132 -1.2665  0.2555
 6554TIP3    H241078   1.482   2.325  15.813 -0.6537 -2.0916 -0.2505
 6555TIP3   OH241079   5.658   0.930  14.103  0.6282  0.5609 -0.1353
 6555TIP3    H141080   5.668   1.014  14.149  0.0365  0.4113  0.2711
 6555TIP3    H241081   5.631   0.869  14.171 -3.3806  0.9546 -1.1074
 6556TIP3   OH241082   5.984   3.289   2.022 -0.3430 -1.1848  0.0597
 6556TIP3    H141083   5.971   3.194   2.012  0.0583 -1.2423  0.0704
 6556TIP3    H241084   6.033   3.315   1.945 -3.0636 -0.4252 -1.5413
 6557TIP3   OH241085   2.757   4.114   1.263  0.1837  0.0983  0.5486
 6557TIP3    H141086   2.735   4.035   1.312  0.2178  0.1256  0.6074
 6557TIP3    H241087   2.804   4.169   1.325 -0.2984  0.3917  0.6646
 6558TIP3   OH241088   0.435   0.542   1.563  0.0317 -0.6985  0.4427
 6558TIP3    H141089   0.467   0.494   1.640 -0.0802  0.7169  1.4103
 6558TIP3    H241090   0.432   0.633   1.591 -2.8737 -0.4779 -0.2736
 6559TIP3   OH241091   5.758   1.930  15.296  0.1692  0.3588  0.3184
 6559TIP3    H141092   5.691   1.861  15.300 -0.5186  0.8955 -1.2652
 6559TIP3    H241093   5.708   2.011  15.291  0.9527  0.8350  0.0973
 6560TIP3   OH241094   1.086   6.227  14.603  0.2432 -0.0879  0.2632
 6560TIP3    H141095   1.014   6.267  14.651 -0.1083  0.7627 -0.9374
 6560TIP3    H241096   1.127   6.299  14.556  1.1142 -0.7682 -0.0451
 6561TIP3   OH241097   3.490   0.049  16.957 -0.0095  0.5853 -0.1977
 6561TIP3    H141098   3.480   0.111  17.029 -1.5160 -0.8320  0.8969
 6561TIP3    H241099   3.438   0.086  16.886 -1.6138  0.2036  0.7367
 6562TIP3   OH241100   6.664   3.106   5.070  0.2369  0.3461 -0.4546
 6562TIP3    H141101   6.691   3.046   5.140 -1.2726  0.2632  0.0945
 6562TIP3    H241102   6.629   3.049   5.001 -2.1323  0.5601  0.4782
 6563TIP3   OH241103   5.927   6.473   0.150 -0.4433  0.3699 -0.4657
 6563TIP3    H141104   5.981   6.491   0.073 -0.4296 -1.8929 -1.0634
 6563TIP3    H241105   5.886   6.388   0.131  0.4301 -0.8265  2.4683
 6564TIP3   OH241106   4.394   3.414   5.711  0.1568  0.0913 -0.1587
 6564TIP3    H141107   4.373   3.327   5.744  1.0779  0.5271  1.7143
 6564TIP3    H241108   4.455   3.451   5.776  0.1368  1.9623 -1.1181
 6565TIP3   OH241109   2.556   5.812   0.442 -0.6718 -0.1397  0.3867
 6565TIP3    H141110   2.473   5.819   0.394 -1.3900  0.1200  1.6133
 6565TIP3    H241111   2.564   5.896   0.487  0.4566 -0.0264  0.0186
 6566TIP3   OH241112   3.977   6.612  11.784  0.1577 -1.3831 -0.1807
 6566TIP3    H141113   3.889   6.598  11.751  0.2609 -0.6815 -0.7739
 6566TIP3    H241114   4.006   6.525  11.812 -2.0136 -1.1421  3.4236
 6567TIP3   OH241115   4.043   1.453   3.975  0.1875 -0.2489 -0.1797
 6567TIP3    H141116   4.061   1.516   4.045 -0.1088  1.4815 -1.5842
 6567TIP3    H241117   3.967   1.404   4.006 -0.0354  0.5939  0.6488
 6568TIP3   OH241118   4.763   1.683  13.517 -0.5579 -0.6179  0.1165
 6568TIP3    H141119   4.744   1.765  13.472  0.5020 -0.5827 -0.2846
 6568TIP3    H241120   4.858   1.675  13.515 -0.5541 -1.1506  1.4150
 6569TIP3   OH241121   5.818   3.349   0.112 -0.2511 -0.4923  0.2576
 6569TIP3    H141122   5.739   3.389   0.148 -0.2778  1.0996 -1.4411
 6569TIP3    H241123   5.890   3.395   0.156 -0.2482 -1.1660  0.9818
 6570TIP3   OH241124   6.734   4.954  11.655 -0.1049 -0.0133  0.3714
 6570TIP3    H141125   6.814   4.986  11.698  1.2416  0.0224 -1.9695
 6570TIP3    H241126   6.747   4.859  11.648  0.8545  0.2186 -1.9502
 6571TIP3   OH241127   1.364   3.815  14.060  0.4556 -0.0619  0.0414
 6571TIP3    H141128   1.378   3.773  13.976 -0.4102 -1.5438  0.5874
 6571TIP3    H241129   1.306   3.888  14.041 -0.5210 -0.9574 -0.5578
 6572TIP3   OH241130   0.123   0.566   0.765  0.6776 -0.3216  0.0740
 6572TIP3    H141131   0.091   0.483   0.731  1.7911 -0.3630 -0.9648
 6572TIP3    H241132   0.215   0.570   0.736  1.6370 -0.1951  2.8482
 6573TIP3   OH241133   3.567   1.024   5.873  0.4816 -0.5208 -0.5454
 6573TIP3    H141134   3.615   1.095   5.917 -1.2672 -0.2687  1.0665
 6573TIP3    H241135   3.614   0.945   5.897  0.8870 -0.1668 -0.1440
 6574TIP3   OH241136   0.910   2.886   4.544 -0.1367  0.1133  0.8859
 6574TIP3    H141137   0.938   2.892   4.452 -0.9150 -0.1964  0.6240
 6574TIP3    H241138   0.932   2.971   4.581 -1.9170  1.0971 -0.1927
 6575TIP3   OH241139   2.374   4.674  12.364 -0.4267  0.0870  0.3905
 6575TIP3    H141140   2.354   4.612  12.434 -1.7756  0.7808  0.6557
 6575TIP3    H241141   2.469   4.683  12.366 -0.3048 -1.1330  1.0580
 6576TIP3   OH241142   3.036   6.298  12.533  0.3073 -0.4830  0.1475
 6576TIP3    H141143   3.081   6.216  12.554  1.6229 -0.1080 -1.0684
 6576TIP3    H241144   3.106   6.363  12.527 -0.7521  0.8526  1.5350
 6577TIP3   OH241145   6.425   2.580  12.271 -0.2671 -0.3449 -0.0007
 6577TIP3    H141146   6.507   2.607  12.231 -0.1594  0.3703  0.6747
 6577TIP3    H241147   6.451   2.514  12.336 -0.1742  0.1933  0.5116
 6578TIP3   OH241148   4.459   2.361  13.229 -0.1457  0.4408 -0.6691
 6578TIP3    H141149   4.550   2.377  13.255  0.1009 -1.0500 -0.5269
 6578TIP3    H241150   4.466   2.313  13.146 -0.7343 -1.1053  0.1453
 6579TIP3   OH241151   4.984   1.171  15.236 -0.2339 -0.6425 -0.3367
 6579TIP3    H141152   5.000   1.116  15.313  1.9211 -1.4078 -1.2853
 6579TIP3    H241153   4.899   1.142  15.204 -0.2019 -1.7911  0.5287
 6580TIP3   OH241154   4.890   4.760  15.801  0.0273  0.6061 -0.4645
 6580TIP3    H141155   4.932   4.760  15.887 -1.0431 -0.1386  0.0712
 6580TIP3    H241156   4.890   4.852  15.774  1.8942  0.6586 -0.4496
 6581TIP3   OH241157   3.220   4.256  13.691  0.0644  0.2162  0.0875
 6581TIP3    H141158   3.182   4.180  13.735 -1.3396  0.8448  0.0070
 6581TIP3    H241159   3.175   4.260  13.607  1.1961  0.2862 -0.5262
 6582TIP3   OH241160   3.087   2.171   5.325 -0.4774 -0.0085 -0.3671
 6582TIP3    H141161   3.101   2.258   5.364  0.5494  0.4776 -1.7508
 6582TIP3    H241162   3.134   2.111   5.383  1.6993  0.8005 -1.1803
 6583TIP3   OH241163   1.004   6.520   6.511  0.3678 -0.4106  0.0801
 6583TIP3    H141164   1.058   6.597   6.493  0.4047  0.0533  1.9131
 6583TIP3    H241165   0.914   6.551   6.499  0.3736  0.0069  0.9933
 6584TIP3   OH241166   2.041   0.272   6.148  0.7798 -0.2439  0.0852
 6584TIP3    H141167   2.048   0.315   6.234 -1.6264 -0.1792  0.3213
 6584TIP3    H241168   1.999   0.188   6.167  1.5919 -0.8829 -0.8747
 6585TIP3   OH241169   6.514   2.035  17.260  0.4023 -0.0401  0.1859
 6585TIP3    H141170   6.514   2.049  17.354 -1.2778 -3.5565  0.9073
 6585TIP3    H241171   6.422   2.049  17.234  0.4971 -0.7036 -0.5619
 6586TIP3   OH241172   4.880   2.874  12.634  0.8775 -0.2040 -0.1655
 6586TIP3    H141173   4.954   2.820  12.661  0.0815 -1.4482 -0.4089
 6586TIP3    H241174   4.848   2.832  12.554 -1.1338 -0.7080  0.8438
 6587TIP3   OH241175   1.706   6.497  11.717  0.1432  0.5150  0.0049
 6587TIP3    H141176   1.657   6.563  11.668 -1.4836 -0.4709  0.2433
 6587TIP3    H241177   1.730   6.432  11.651  0.9434  0.8609 -0.0609
 6588TIP3   OH241178   5.003   5.533  15.820 -0.0508  0.3771 -0.4149
 6588TIP3    H141179   5.005   5.625  15.793  3.2074  0.1462 -1.3793
 6588TIP3    H241180   4.964   5.488  15.745  0.8046  0.7230 -1.0927
 6589TIP3   OH241181   0.606   5.565   4.050  0.4980  0.1852 -0.2282
 6589TIP3    H141182   0.691   5.577   4.006  0.6718 -2.4973 -0.8472
 6589TIP3    H241183   0.606   5.473   4.076 -2.0233  0.2540  0.2553
 6590TIP3   OH241184   5.448   1.486  16.976  0.4751  0.3594 -0.1659
 6590TIP3    H141185   5.464   1.418  16.911  1.7282 -1.8209  2.2443
 6590TIP3    H241186   5.352   1.494  16.979  0.3662 -0.2413 -1.4814
 6591TIP3   OH241187   4.421   0.776  11.355 -0.7147 -0.1937 -0.4984
 6591TIP3    H141188   4.424   0.698  11.411 -1.4331 -0.5412 -0.9230
 6591TIP3    H241189   4.328   0.802  11.357 -0.8854 -0.6011 -2.0442
 6592TIP3   OH241190   2.505   5.456  14.634 -0.0242 -0.0869  0.3952
 6592TIP3    H141191   2.450   5.528  14.602 -1.0762 -0.6040  0.9985
 6592TIP3    H241192   2.586   5.464  14.584 -1.1868 -0.2120 -1.6210
 6593TIP3   OH241193   6.758   6.609  15.701 -0.1313  0.2229  0.4396
 6593TIP3    H141194   6.827   6.546  15.722  0.0522 -0.1097 -1.0141
 6593TIP3    H241195   6.678   6.556  15.698 -0.4462  0.5871  2.0129
 6594TIP3   OH241196   2.589   2.990  14.823  0.5109  0.0058  0.1270
 6594TIP3    H141197   2.572   2.901  14.794  1.7931  0.1839 -1.2751
 6594TIP3    H241198   2.624   2.981  14.912  0.3483 -0.8512  0.1074
 6595TIP3   OH241199   1.862   3.790   6.635 -0.0584  0.8625  0.0540
 6595TIP3    H141200   1.919   3.732   6.684 -1.2744  0.1653  0.6592
 6595TIP3    H241201   1.896   3.786   6.545  0.6896  0.2794  0.3526
 6596TIP3   OH241202   2.116   1.819   1.715  0.2724  0.4397 -0.0934
 6596TIP3    H141203   2.061   1.856   1.646 -1.1371  0.1563  0.8398
 6596TIP3    H241204   2.056   1.767   1.768  1.9985 -2.4844 -0.8210
 6597TIP3   OH241205   1.406   3.862   0.422  0.0354 -0.3321  0.6553
 6597TIP3    H141206   1.495   3.855   0.386  0.1232  0.5533  0.6785
 6597TIP3    H241207   1.385   3.955   0.414  0.2594  0.0309  3.3395
 6598TIP3   OH241208   1.823   3.804  17.252  0.2040 -0.4949 -0.0260
 6598TIP3    H141209   1.777   3.834  17.331 -1.0749 -1.1811 -0.4681
 6598TIP3    H241210   1.897   3.864  17.243  0.2699 -0.2750  1.5740
 6599TIP3   OH241211   6.145   0.474  16.976 -0.3935  0.1458 -0.0314
 6599TIP3    H141212   6.062   0.435  17.005 -0.5220  1.7250  1.9213
 6599TIP3    H241213   6.121   0.526  16.899 -1.2679  0.6861  0.5867
 6600TIP3   OH241214   1.807   5.020   0.571 -0.0476  0.9880 -0.0415
 6600TIP3    H141215   1.795   5.071   0.491 -0.5856 -0.6602 -1.0632
 6600TIP3    H241216   1.750   5.062   0.635 -0.2075  1.8675 -0.7485
 6601TIP3   OH241217   4.711   0.031   1.356  0.3012  0.2514 -0.2277
 6601TIP3    H141218   4.732  -0.010   1.440 -2.1280 -2.3617 -0.7459
 6601TIP3    H241219   4.795   0.043   1.313  1.4989  0.4159  1.9803
 6602TIP3   OH241220   5.133   0.570  10.614  0.4657  0.3784  0.3733
 6602TIP3    H141221   5.077   0.498  10.587  0.8191  0.3953 -0.4435
 6602TIP3    H241222   5.211   0.528  10.650 -0.6130  0.3296  2.8484
 6603TIP3   OH241223   2.461   3.763   3.080 -0.0772  0.1723 -0.3245
 6603TIP3    H141224   2.473   3.842   3.027 -2.0095  0.2993 -0.6418
 6603TIP3    H241225   2.539   3.760   3.136  1.2531  0.9195 -2.0256
 6604TIP3   OH241226   5.918   1.956   4.339 -0.1771  0.3528  0.8141
 6604TIP3    H141227   5.953   2.035   4.378  0.9264 -0.1202  0.8230
 6604TIP3    H241228   5.834   1.982   4.303  0.3574  1.6316  0.4434
 6605TIP3   OH241229   1.631   2.682   0.143 -0.2964  0.2930 -0.1135
 6605TIP3    H141230   1.656   2.700   0.234  0.0293  0.2807 -0.1990
 6605TIP3    H241231   1.544   2.644   0.149  0.0341 -0.4262  0.2511
 6606TIP3   OH241232   3.236   3.488  13.008 -0.0358 -0.6245 -0.2028
 6606TIP3    H141233   3.189   3.424  13.061  0.9577 -1.2111 -0.0066
 6606TIP3    H241234   3.301   3.526  13.068  0.3833 -0.5182 -0.7127
 6607TIP3   OH241235   5.811   4.984  14.772 -0.9176 -0.6988 -0.0811
 6607TIP3    H141236   5.738   4.950  14.720 -0.4857 -0.2683 -1.0168
 6607TIP3    H241237   5.831   5.069  14.731  2.1304 -2.1173 -1.9573
 6608TIP3   OH241238   6.677   5.843   1.248  0.1081 -0.1554 -0.0555
 6608TIP3    H141239   6.643   5.760   1.280 -1.7035  0.4374 -0.3191
 6608TIP3    H241240   6.739   5.871   1.316 -0.4213 -0.9771  0.7943
 6609TIP3   OH241241   3.933   6.188  12.160 -0.0445  0.1396  0.0097
 6609TIP3    H141242   3.992   6.135  12.106  0.7228  0.5537  0.4304
 6609TIP3    H241243   3.963   6.173  12.249 -0.7832  0.1150  0.2620
 6610TIP3   OH241244   5.907   5.922  16.362  0.2235  0.6953 -0.2585
 6610TIP3    H141245   5.816   5.893  16.371  0.4204  0.1481 -0.0085
 6610TIP3    H241246   5.914   5.996  16.421  0.3357 -0.1795  0.8470
 6611TIP3   OH241247   1.844   2.463   2.423 -0.8173 -0.2806  0.3490
 6611TIP3    H141248   1.843   2.501   2.335 -0.7682 -1.7747 -0.3197
 6611TIP3    H241249   1.782   2.516   2.473  0.0454  1.3475 -0.2413
 6612TIP3   OH241250   5.499   1.577   6.113  0.5547  0.0610 -0.2770
 6612TIP3    H141251   5.562   1.515   6.148 -0.6367 -2.8895 -2.8523
 6612TIP3    H241252   5.433   1.585   6.182  0.3898 -2.2207 -0.0781
 6613TIP3   OH241253   6.546   6.457   0.308 -0.1142  0.0853  0.3221
 6613TIP3    H141254   6.641   6.442   0.305 -0.1631 -0.0806 -1.6819
 6613TIP3    H241255   6.515   6.429   0.222 -1.2004  4.9696 -1.1714
 6614TIP3   OH241256   6.748   4.603  13.574 -0.5152 -0.3689  0.4473
 6614TIP3    H141257   6.769   4.591  13.481  0.5854 -0.6805  0.7235
 6614TIP3    H241258   6.673   4.662  13.574 -0.3354 -0.1180 -0.6295
 6615TIP3   OH241259   1.059   3.868   6.148  0.0726  0.0323 -0.2408
 6615TIP3    H141260   1.140   3.914   6.170  0.1250 -0.0288 -0.3079
 6615TIP3    H241261   1.031   3.907   6.066 -0.0078  0.1082 -0.1777
 6616TIP3   OH241262   2.813   6.555  16.869 -0.1519  0.5347  0.4145
 6616TIP3    H141263   2.756   6.543  16.946 -0.3434  1.4324  0.4200
 6616TIP3    H241264   2.900   6.567  16.906 -0.0483 -0.2166  0.4340
 6617TIP3   OH241265   1.003   1.532  13.719  0.2826  0.0136  0.0982
 6617TIP3    H141266   0.995   1.621  13.754 -0.9635  0.3835 -1.0433
 6617TIP3    H241267   0.954   1.477  13.781  0.3338  0.2560  0.3547
 6618TIP3   OH241268   1.847   2.551   2.151 -0.1354 -0.3373  0.1935
 6618TIP3    H141269   1.837   2.512   2.064 -0.8380  2.1801 -0.9252
 6618TIP3    H241270   1.932   2.595   2.148  0.8709 -2.0463  1.6014
 6619TIP3   OH241271   3.262   6.731  13.837 -0.1486  0.0774 -0.2961
 6619TIP3    H141272   3.176   6.690  13.848  0.6038 -1.2123  1.1638
 6619TIP3    H241273   3.276   6.733  13.742 -0.8396 -1.7980 -0.4810
 6620TIP3   OH241274   5.094   4.230  15.063  0.2888 -0.3720  0.0581
 6620TIP3    H141275   5.053   4.314  15.085  0.3710 -0.7893  2.0226
 6620TIP3    H241276   5.186   4.242  15.085  0.5916 -0.5402 -1.0526
 6621TIP3   OH241277   6.439   6.038  12.538  0.0578 -0.0573  0.4179
 6621TIP3    H141278   6.466   6.127  12.560  1.6341 -0.3181 -0.3367
 6621TIP3    H241279   6.353   6.029  12.578  0.6856  1.1454  2.1900
 6622TIP3   OH241280   5.969   4.444  12.336  0.3014  0.2744 -0.1832
 6622TIP3    H141281   6.050   4.464  12.289  0.3134 -0.5514 -0.5359
 6622TIP3    H241282   5.985   4.358  12.375 -0.0654  0.5225  0.5294
 6623TIP3   OH241283   3.888   0.476  17.171  0.0640 -0.5011 -0.6097
 6623TIP3    H141284   3.915   0.408  17.233 -0.4632  0.1361  0.3461
 6623TIP3    H241285   3.956   0.543  17.178 -1.3605  0.8194  1.3389
 6624TIP3   OH241286   5.952   0.631   5.632  0.2946 -0.1973 -0.2957
 6624TIP3    H141287   6.031   0.578   5.619  0.9466 -0.2200  2.9084
 6624TIP3    H241288   5.903   0.584   5.701 -0.8149  1.5624  0.1680
 6625TIP3   OH241289   1.530   0.810  15.061 -0.1512  0.0751  0.0336
 6625TIP3    H141290   1.496   0.725  15.033 -1.8380  0.2763  1.3138
 6625TIP3    H241291   1.563   0.850  14.981  1.4224 -2.0606 -0.4925
 6626TIP3   OH241292   0.406   5.473   2.272  0.0612 -0.4994  0.0523
 6626TIP3    H141293   0.419   5.494   2.365 -0.8151  0.5701 -0.0511
 6626TIP3    H241294   0.312   5.462   2.263 -0.0698  1.2380 -1.0726
 6627TIP3   OH241295   2.259   1.075  16.748  0.4119  0.4693 -0.1575
 6627TIP3    H141296   2.204   1.132  16.695 -0.6884  0.8298  1.2877
 6627TIP3    H241297   2.302   1.017  16.685  0.5934  2.0479 -1.5598
 6628TIP3   OH241298   6.077   3.965   2.536  0.4368 -0.1204 -0.2358
 6628TIP3    H141299   6.040   3.881   2.563  0.4239 -0.3156 -0.8467
 6628TIP3    H241300   6.155   3.942   2.485  2.0926  0.2978  1.9568
 6629TIP3   OH241301   6.580   3.931   2.220  0.4740  0.4055  0.4123
 6629TIP3    H141302   6.639   3.896   2.152 -1.5070  1.0312 -1.7813
 6629TIP3    H241303   6.614   4.019   2.238  1.2224  0.1053  0.5068
 6630TIP3   OH241304   5.213   2.351   1.020  0.4343  0.2082  0.0944
 6630TIP3    H141305   5.209   2.398   1.104 -1.3036  1.0678 -0.4269
 6630TIP3    H241306   5.223   2.420   0.955  1.3938 -0.4345 -0.4670
 6631TIP3   OH241307   2.006   2.012  17.001  0.2198  0.0508 -0.0725
 6631TIP3    H141308   1.993   2.089  16.945  1.0132 -0.0886 -0.4638
 6631TIP3    H241309   1.951   1.944  16.961  0.7745 -0.0458 -0.6974
 6632TIP3   OH241310   1.975   1.802   6.266  0.4915  0.0567 -0.7006
 6632TIP3    H141311   1.932   1.855   6.199 -0.0674  0.4048 -0.0733
 6632TIP3    H241312   1.957   1.847   6.348  2.0848  0.2203 -0.4136
 6633TIP3   OH241313   1.327   2.760   4.586 -0.0857  0.3667  0.3235
 6633TIP3    H141314   1.324   2.788   4.494 -0.0872  2.2887  0.8655
 6633TIP3    H241315   1.236   2.741   4.608 -0.2660  1.1192  0.2573
 6634TIP3   OH241316   5.910   1.455  13.495  0.6465 -0.1312  0.2284
 6634TIP3    H141317   5.875   1.414  13.575  0.2678 -1.9927 -0.8474
 6634TIP3    H241318   5.841   1.442  13.430 -0.3716  3.9788  0.2338
 6635TIP3   OH241319   1.751   3.455   3.617  0.2166  0.5378  0.3052
 6635TIP3    H141320   1.686   3.489   3.555  1.1831  0.1408 -0.9650
 6635TIP3    H241321   1.812   3.527   3.631  1.1664 -0.0065 -0.8619
 6636TIP3   OH241322   4.533   4.052   3.889  0.0333 -0.6806 -0.7046
 6636TIP3    H141323   4.517   4.080   3.979  0.2951  0.0845 -0.8870
 6636TIP3    H241324   4.515   4.130   3.836  0.9935 -0.7863 -1.2080
 6637TIP3   OH241325   5.911   1.990  13.305  0.7702 -0.0204 -0.0953
 6637TIP3    H141326   5.967   2.009  13.230 -0.5605 -0.4179 -1.2523
 6637TIP3    H241327   5.943   2.047  13.374  1.9198  0.5125 -1.0208
 6638TIP3   OH241328   6.695   2.438   1.276  0.5192 -0.5028  0.6401
 6638TIP3    H141329   6.619   2.406   1.325 -0.3246 -0.7240 -0.7685
 6638TIP3    H241330   6.740   2.359   1.247 -0.5991 -0.4804 -1.3519
 6639TIP3   OH241331   0.759   6.266  12.348 -0.2330 -0.1903 -0.0371
 6639TIP3    H141332   0.847   6.228  12.354 -0.7735 -1.4803 -0.0464
 6639TIP3    H241333   0.727   6.266  12.438  0.1215  1.1765  0.1102
 6640TIP3   OH241334   6.762   4.312  16.904 -0.0586 -0.1525 -0.3852
 6640TIP3    H141335   6.692   4.325  16.840 -0.3766 -0.4232 -0.0954
 6640TIP3    H241336   6.837   4.359  16.867 -0.8596  1.6231  0.1138
 6641TIP3   OH241337   1.323   4.978   1.387  0.0778 -0.1065  0.2701
 6641TIP3    H141338   1.292   5.066   1.406 -0.9181 -0.2644 -0.5151
 6641TIP3    H241339   1.372   4.987   1.305  0.6112 -0.1691  0.5742
 6642TIP3   OH241340   2.242   4.196  14.651  0.1220  0.4043  0.0144
 6642TIP3    H141341   2.248   4.174  14.744  1.1078  1.9867  0.3630
 6642TIP3    H241342   2.149   4.185  14.629  0.1122 -1.3722  0.7913
 6643TIP3   OH241343   2.265   6.143   4.040  0.0958  0.4290  0.0828
 6643TIP3    H141344   2.232   6.220   3.995  0.7308  0.9054  0.4137
 6643TIP3    H241345   2.360   6.145   4.025  0.0871 -0.4744 -0.1933
 6644TIP3   OH241346   2.133   1.459   6.368 -0.0712 -0.3575 -0.1661
 6644TIP3    H141347   2.205   1.425   6.420 -1.1780 -0.6989  1.1799
 6644TIP3    H241348   2.064   1.479   6.431 -0.6810  1.2698 -1.2589
 6645TIP3   OH241349   0.125   2.798   4.199  0.5242 -0.6588 -0.8105
 6645TIP3    H141350   0.118   2.705   4.222  1.0535 -0.5943 -0.3648
 6645TIP3    H241351   0.124   2.844   4.283 -4.1200  0.1460 -1.0587
 6646TIP3   OH241352   0.115   6.470   0.658  0.0268  0.0725  0.4128
 6646TIP3    H141353   0.069   6.415   0.721  1.0902  0.3842  1.4990
 6646TIP3    H241354   0.207   6.467   0.686  0.2486  1.7073 -0.0214
 6647TIP3   OH241355   5.025   1.208   5.140  0.3320 -0.3878  0.2481
 6647TIP3    H141356   5.082   1.132   5.147  1.6037  0.5960  1.3069
 6647TIP3    H241357   5.064   1.272   5.200 -0.0002  1.5092 -1.4560
 6648TIP3   OH241358   1.640   0.200   0.300  0.3055 -0.5983 -0.1987
 6648TIP3    H141359   1.546   0.193   0.283  0.4586 -1.0159 -0.9253
 6648TIP3    H241360   1.677   0.118   0.268  1.2046  0.4392 -2.0037
 6649TIP3   OH241361   3.190   3.808  17.059  0.7229 -0.3448 -0.1811
 6649TIP3    H141362   3.172   3.714  17.066  2.6086 -0.7810 -0.4962
 6649TIP3    H241363   3.135   3.838  16.987 -0.6313 -0.9778  0.5596
 6650TIP3   OH241364   5.161   3.885  11.041 -0.2440 -0.4352  0.3073
 6650TIP3    H141365   5.131   3.975  11.057 -1.0184 -0.5360 -0.4782
 6650TIP3    H241366   5.252   3.894  11.015 -0.1699  0.0826  0.7432
 6651TIP3   OH241367   6.734   4.685   4.801 -0.0984 -0.1757 -0.3494
 6651TIP3    H141368   6.785   4.718   4.874 -0.6826  2.2458 -0.9364
 6651TIP3    H241369   6.706   4.597   4.828  2.9242 -0.9428  0.6419
 6652TIP3   OH241370   4.639   6.585  10.895  0.0175 -0.2720  0.7064
 6652TIP3    H141371   4.728   6.618  10.882  0.6267 -1.3665  1.8405
 6652TIP3    H241372   4.582   6.657  10.870  1.1863  0.0212 -1.2735
 6653TIP3   OH241373   4.954   0.975  10.647  0.1699  0.2372 -0.1927
 6653TIP3    H141374   4.865   0.960  10.613 -0.7219  1.5781  1.3727
 6653TIP3    H241375   4.965   1.070  10.643  1.1372  0.1656  0.5486
 6654TIP3   OH241376   5.800   5.511   2.573 -0.3292  0.2801 -0.5229
 6654TIP3    H141377   5.806   5.554   2.488 -0.5920 -2.0316 -1.7872
 6654TIP3    H241378   5.783   5.419   2.553 -1.6421 -0.1456  2.0672
 6655TIP3   OH241379   4.734   4.327  13.284 -0.1474  0.3859  0.4187
 6655TIP3    H141380   4.829   4.321  13.282 -0.2198 -1.3453  0.2711
 6655TIP3    H241381   4.713   4.400  13.226  1.0479  0.1684 -0.3222
 6656TIP3   OH241382   1.343   0.598  15.666  0.3313  0.5254 -0.9496
 6656TIP3    H141383   1.273   0.540  15.697 -0.2143  1.2186 -0.8618
 6656TIP3    H241384   1.417   0.540  15.652 -1.0695 -0.8040 -3.8532
 6657TIP3   OH241385   4.671   1.737  15.592  0.5147 -0.2453 -0.4203
 6657TIP3    H141386   4.636   1.652  15.565 -0.2577 -1.2034  3.0746
 6657TIP3    H241387   4.766   1.724  15.593  0.3794 -1.2707  0.5919
 6658TIP3   OH241388   5.984   5.439  12.912  0.0935 -0.0700 -0.4684
 6658TIP3    H141389   6.010   5.481  12.995  1.1267 -0.2011 -0.7072
 6658TIP3    H241390   5.993   5.508  12.847  1.2064 -0.4832 -0.7679
 6659TIP3   OH241391   6.540   6.593   3.113 -0.2896  0.4920 -0.6370
 6659TIP3    H141392   6.452   6.625   3.094  0.1373  1.8318 -0.4965
 6659TIP3    H241393   6.598   6.665   3.087  0.7207 -0.0863 -0.0727
 6660TIP3   OH241394   6.476   1.346  14.786  0.5004 -0.1248 -0.0897
 6660TIP3    H141395   6.525   1.374  14.864 -0.3266  0.6898  0.1625
 6660TIP3    H241396   6.542   1.334  14.719  1.4957 -2.7375  1.2059
 6661TIP3   OH241397   0.069   2.025  16.991  0.2313  0.1675 -0.5784
 6661TIP3    H141398   0.120   1.944  17.002 -0.3160 -0.0028  1.0202
 6661TIP3    H241399   0.129   2.094  17.018 -0.0911  0.0421  0.5039
 6662TIP3   OH241400   4.081   0.654  17.164 -0.2470 -0.0114  0.1575
 6662TIP3    H141401   4.056   0.731  17.113  0.2850  0.4926  0.6597
 6662TIP3    H241402   4.175   0.661  17.174 -0.4118  0.2146  1.7215
 6663TIP3   OH241403   1.269   4.278   0.721  0.2703  0.6772  0.1292
 6663TIP3    H141404   1.273   4.288   0.816  1.3139  0.8086  0.0802
 6663TIP3    H241405   1.313   4.356   0.687  0.1789  0.4768 -0.4567
 6664TIP3   OH241406   1.906   5.286   1.811 -0.4212  0.1304  0.7451
 6664TIP3    H141407   1.965   5.270   1.884 -0.7836  0.9293  1.2178
 6664TIP3    H241408   1.883   5.198   1.779  0.0993 -0.2080  1.2878
 6665TIP3   OH241409   5.778   6.727   0.165 -0.3015  0.0813  0.2439
 6665TIP3    H141410   5.832   6.650   0.181  1.9435  1.8603  1.8739
 6665TIP3    H241411   5.688   6.694   0.166  0.5934 -2.5518  0.4634
 6666TIP3   OH241412   0.195   4.178  14.227 -0.4124 -0.2700 -0.5760
 6666TIP3    H141413   0.254   4.110  14.261 -0.1642 -0.7281 -1.8700
 6666TIP3    H241414   0.150   4.211  14.305  1.4596  0.0256  0.4367
 6667TIP3   OH241415   2.878   4.144   6.386 -0.0288 -0.0984 -0.0180
 6667TIP3    H141416   2.926   4.062   6.390  1.1483  0.5742 -0.0721
 6667TIP3    H241417   2.853   4.162   6.477  0.3729 -0.1317  0.0991
 6668TIP3   OH241418   5.101   3.853  11.381 -0.4265 -0.2236 -0.2345
 6668TIP3    H141419   5.108   3.871  11.288  1.1703  0.2142 -0.0577
 6668TIP3    H241420   5.115   3.759  11.388 -0.1783 -0.1988 -0.3985
 6669TIP3   OH241421   3.083   3.413  12.525 -0.6093  0.7792  0.1448
 6669TIP3    H141422   3.114   3.497  12.492  0.8740 -0.0537 -0.6991
 6669TIP3    H241423   3.048   3.368  12.448  0.5553 -0.1847  0.1468
 6670TIP3   OH241424   3.864   2.583  14.950 -0.2924 -0.7168 -0.5957
 6670TIP3    H141425   3.863   2.598  15.044  0.4877  0.5195 -0.7620
 6670TIP3    H241426   3.798   2.643  14.915 -0.0204 -0.5860 -0.8977
 6671TIP3   OH241427   0.592   5.266   4.119  1.2026 -0.0337 -0.4286
 6671TIP3    H141428   0.681   5.241   4.095  0.8786 -0.3850 -1.3030
 6671TIP3    H241429   0.541   5.251   4.040  0.0457 -1.4144  0.5443
 6672TIP3   OH241430   2.282   2.872   3.538 -0.1103  0.3859 -0.6055
 6672TIP3    H141431   2.317   2.806   3.478  2.0581  0.0422  0.8970
 6672TIP3    H241432   2.233   2.821   3.603  1.4061  0.1952  0.4472
 6673TIP3   OH241433   4.482   0.894   0.551  0.4127 -0.3472 -0.4656
 6673TIP3    H141434   4.484   0.987   0.528 -1.5008 -0.0293  0.4924
 6673TIP3    H241435   4.483   0.893   0.646  3.2465 -1.4724 -0.4055
 6674TIP3   OH241436   3.662   4.580  16.272 -0.8507 -0.3994 -0.3952
 6674TIP3    H141437   3.652   4.675  16.269  0.1238 -0.3120 -1.1266
 6674TIP3    H241438   3.735   4.561  16.213 -2.6507 -1.8455 -2.3153
 6675TIP3   OH241439   1.840   2.995   3.764  0.0467 -0.2130 -0.2388
 6675TIP3    H141440   1.917   3.052   3.775  0.9026 -1.6008  1.3401
 6675TIP3    H241441   1.766   3.049   3.792  0.7791  0.3084  0.7481
 6676TIP3   OH241442   4.831   4.469   4.016 -0.5948  0.1770  0.5058
 6676TIP3    H141443   4.832   4.404   3.946  1.2531 -0.7101  1.2801
 6676TIP3    H241444   4.879   4.543   3.981  1.4437 -0.7552  1.2030
 6677TIP3   OH241445   3.058   2.689  10.755  0.2584 -0.0049 -0.5689
 6677TIP3    H141446   3.059   2.599  10.724  0.6045 -0.0033 -0.5669
 6677TIP3    H241447   2.978   2.696  10.808  0.8590 -0.6521  0.4428
 6678TIP3   OH241448   4.445   0.330  14.808  0.2740  0.1282 -0.3705
 6678TIP3    H141449   4.426   0.388  14.734 -1.3079 -0.3415 -0.3787
 6678TIP3    H241450   4.435   0.386  14.886  0.6530  0.3180 -0.4587
 6679TIP3   OH241451   3.874   5.296   1.488 -0.3660 -0.1048 -0.0190
 6679TIP3    H141452   3.947   5.266   1.433  2.1655  1.7136  2.1020
 6679TIP3    H241453   3.842   5.374   1.444 -1.3363 -1.1027 -1.1450
 6680TIP3   OH241454   5.932   2.410  17.108 -0.0776  0.2045 -0.5273
 6680TIP3    H141455   5.883   2.406  17.026  0.2660 -0.0564 -0.7246
 6680TIP3    H241456   6.023   2.413  17.081  0.0390  0.0912 -0.1523
 6681TIP3   OH241457   2.108   4.894   4.756  0.6183  0.3608  0.0102
 6681TIP3    H141458   2.130   4.986   4.744  0.2152  0.6184  1.1698
 6681TIP3    H241459   2.187   4.847   4.727  0.4890  1.0029 -1.4774
 6682TIP3   OH241460   1.031   5.368  12.109  0.7443  0.6722 -0.5250
 6682TIP3    H141461   1.109   5.392  12.060 -0.3077  0.9571 -2.1253
 6682TIP3    H241462   0.958   5.392  12.052 -0.5149  0.1302  0.7907
 6683TIP3   OH241463   3.384   6.066   4.817 -0.1342  0.0759  0.1163
 6683TIP3    H141464   3.396   6.156   4.787 -1.0334 -0.1293 -0.8962
 6683TIP3    H241465   3.295   6.064   4.853  0.9574  0.3700  3.1165
 6684TIP3   OH241466   3.757   6.735   2.978 -0.1506  0.1505 -0.2663
 6684TIP3    H141467   3.817   6.731   2.904 -1.3472  0.5528 -1.2988
 6684TIP3    H241468   3.745   6.828   2.994 -1.5001  0.1273 -0.9626
 6685TIP3   OH241469   4.913   1.442   2.891 -0.6315  0.3267 -0.2500
 6685TIP3    H141470   4.943   1.476   2.806 -1.0750  0.1545 -0.4809
 6685TIP3    H241471   4.833   1.392   2.870 -0.0767 -0.7432  0.0968
 6686TIP3   OH241472   1.954   6.256   0.661 -0.3320  0.0183 -0.0499
 6686TIP3    H141473   1.990   6.199   0.593  0.1527 -0.9531  0.9869
 6686TIP3    H241474   1.860   6.237   0.662 -0.2094 -0.6016  0.1204
 6687TIP3   OH241475   4.640   0.730   4.373 -0.0492 -0.4480  0.0529
 6687TIP3    H141476   4.665   0.820   4.354 -0.0563 -0.2574  0.8904
 6687TIP3    H241477   4.557   0.738   4.420 -0.1736 -0.9075 -0.0809
 6688TIP3   OH241478   3.288   1.715   4.055 -0.3653  0.1071 -0.1169
 6688TIP3    H141479   3.221   1.784   4.060  0.6196  1.0551  0.2457
 6688TIP3    H241480   3.352   1.749   3.993  1.1349  0.4188  1.5475
 6689TIP3   OH241481   4.841   4.432  16.629  0.3601 -0.0182  0.4328
 6689TIP3    H141482   4.866   4.502  16.689 -0.2433  0.5819 -0.0135
 6689TIP3    H241483   4.778   4.472  16.569 -0.4592 -1.0829  0.5388
 6690TIP3   OH241484   0.729   0.314   2.760 -0.1172 -0.5503 -0.2238
 6690TIP3    H141485   0.646   0.353   2.734  1.0042  0.7291 -2.1176
 6690TIP3    H241486   0.742   0.242   2.697 -0.5078 -1.8017  1.0731
 6691TIP3   OH241487   0.605   5.595   4.511 -0.0553  0.0766 -0.3177
 6691TIP3    H141488   0.628   5.646   4.434 -1.3706 -1.5369 -1.8538
 6691TIP3    H241489   0.551   5.523   4.478  1.4599 -2.2027  1.7338
 6692TIP3   OH241490   2.876   0.181  14.585  1.1246 -0.4053  0.6047
 6692TIP3    H141491   2.898   0.129  14.662 -0.9449  0.9309  2.2096
 6692TIP3    H241492   2.862   0.269  14.619  1.0175  0.4294 -1.4760
 6693TIP3   OH241493   1.037   1.515  11.493  0.2128 -0.2474  0.3241
 6693TIP3    H141494   1.032   1.458  11.417  0.4654 -0.2112  0.2814
 6693TIP3    H241495   0.955   1.566  11.490 -0.0055 -0.5951  0.3548
 6694TIP3   OH241496   4.090   4.988  12.684  0.3131 -0.2408  0.1479
 6694TIP3    H141497   4.034   4.960  12.756 -1.8855  0.5375 -1.1654
 6694TIP3    H241498   4.179   4.978  12.718 -0.5928 -1.0437  2.5144
 6695TIP3   OH241499   0.022   0.457   1.261  0.4857 -0.2046  0.1775
 6695TIP3    H141500  -0.029   0.538   1.262 -1.1415 -1.1909  0.2711
 6695TIP3    H241501   0.080   0.465   1.337 -0.7621  0.2047  1.1294
 6696TIP3   OH241502   3.202   4.819   0.507 -0.2050  0.2953 -0.6220
 6696TIP3    H141503   3.190   4.897   0.453 -1.3539  0.0691 -0.7071
 6696TIP3    H241504   3.123   4.814   0.560  2.7338  3.4699  5.0595
 6697TIP3   OH241505   2.437   4.335  16.456  0.4907  0.8745  0.4142
 6697TIP3    H141506   2.495   4.397  16.501  0.8127  1.3758 -0.6493
 6697TIP3    H241507   2.434   4.367  16.366  0.1917 -0.3344 -0.0178
 6698TIP3   OH241508   5.224   2.942   4.646  0.0252  0.4259 -0.0987
 6698TIP3    H141509   5.200   2.875   4.581  3.4495 -2.5791  1.4143
 6698TIP3    H241510   5.297   2.989   4.606  1.2791 -0.5574  0.9467
 6699TIP3   OH241511   5.622   6.194   1.379  0.2305  0.4708  0.1464
 6699TIP3    H141512   5.550   6.177   1.440 -1.9557 -0.8730 -2.5757
 6699TIP3    H241513   5.674   6.114   1.380  0.9897  0.9538  1.1547
 6700TIP3   OH241514   3.933   5.605  13.094 -0.2187 -0.7878 -0.4817
 6700TIP3    H141515   3.880   5.553  13.155 -0.2203 -0.4735 -0.2167
 6700TIP3    H241516   3.988   5.540  13.050 -1.8725 -1.3241 -1.8531
 6701TIP3   OH241517   4.746   4.332   0.783  0.0368  0.4321  0.0103
 6701TIP3    H141518   4.655   4.342   0.810  0.1077 -2.0682  1.5375
 6701TIP3    H241519   4.795   4.390   0.841 -0.3439 -0.5584  1.3611
 6702TIP3   OH241520   3.374   0.915   4.839  0.0932  0.2427  0.8302
 6702TIP3    H141521   3.297   0.973   4.837  0.4497  0.7113  0.3726
 6702TIP3    H241522   3.435   0.960   4.898 -0.1914 -0.4052  1.6320
 6703TIP3   OH241523   1.458   1.829  13.264 -0.2410  0.4754  0.0470
 6703TIP3    H141524   1.504   1.855  13.184  0.4227 -1.3519 -0.2216
 6703TIP3    H241525   1.394   1.765  13.235 -1.1686  1.0396  0.7876
 6704TIP3   OH241526   0.114   3.106  13.208  0.1399  0.2335 -0.1099
 6704TIP3    H141527   0.069   3.035  13.163  1.5343 -0.7253 -0.0714
 6704TIP3    H241528   0.203   3.073  13.221  0.5040  1.5453  0.9459
 6705TIP3   OH241529   5.471   5.776  16.678  0.0869 -0.8593 -0.5512
 6705TIP3    H141530   5.475   5.700  16.735 -1.7780 -2.6411 -2.6030
 6705TIP3    H241531   5.384   5.772  16.638  0.3746  1.6933 -1.6752
 6706TIP3   OH241532   2.793   2.639   1.822  0.2104 -0.3444 -0.3953
 6706TIP3    H141533   2.738   2.697   1.770 -1.2668 -1.6038 -0.3242
 6706TIP3    H241534   2.791   2.676   1.910  1.3291  0.8430 -0.8383
 6707TIP3   OH241535   0.930   5.806   2.089  0.4422 -0.9754 -0.5685
 6707TIP3    H141536   0.969   5.892   2.070  0.7250 -1.3173 -1.5905
 6707TIP3    H241537   0.937   5.797   2.184 -0.2740  0.4571 -0.3595
 6708TIP3   OH241538   5.253   4.040   2.387 -0.2378 -0.3909 -0.3517
 6708TIP3    H141539   5.254   3.953   2.428 -0.9806  0.5007  1.7209
 6708TIP3    H241540   5.183   4.087   2.433  2.0309  2.2246  0.7281
 6709TIP3   OH241541   1.352   2.825   1.504 -0.1153 -0.4391 -0.0975
 6709TIP3    H141542   1.357   2.838   1.599 -0.0824  2.4873 -0.4012
 6709TIP3    H241543   1.443   2.829   1.475 -0.2826  1.5164 -0.4797
 6710TIP3   OH241544   3.831   0.409  15.905 -0.7514 -0.3125 -0.1702
 6710TIP3    H141545   3.799   0.403  15.995  1.2143  0.4277  0.6234
 6710TIP3    H241546   3.843   0.319  15.878 -0.4809 -0.5294  0.6471
 6711TIP3   OH241547   0.823   2.089   0.919  0.0251 -0.7715 -0.1807
 6711TIP3    H141548   0.805   2.050   1.005 -0.7829 -1.4070 -0.6214
 6711TIP3    H241549   0.741   2.131   0.894  0.4399 -0.0704 -0.3799
 6712TIP3   OH241550   5.276   5.634  11.910  0.7370 -0.3245 -0.0967
 6712TIP3    H141551   5.275   5.711  11.853  1.1317 -0.2930 -0.0588
 6712TIP3    H241552   5.200   5.583  11.881 -1.0655  1.2701  1.5161
 6713TIP3   OH241553   3.517   3.339  11.790  0.1837  0.1955  0.4896
 6713TIP3    H141554   3.539   3.400  11.719  0.1719  2.4548  2.2831
 6713TIP3    H241555   3.430   3.367  11.819  1.1485  0.9676  2.8942
 6714TIP3   OH241556   5.591   1.878   0.352  0.3202 -0.6310 -0.4890
 6714TIP3    H141557   5.635   1.948   0.303  0.3185 -1.3586 -1.5712
 6714TIP3    H241558   5.535   1.924   0.414  0.0823  0.3456 -1.3821
 6715TIP3   OH241559   0.935   6.672  15.385 -0.1323 -0.4695  0.3075
 6715TIP3    H141560   0.954   6.581  15.408 -0.9791 -0.5270  0.8031
 6715TIP3    H241561   0.918   6.715  15.469 -1.6176 -0.2988 -0.0571
 6716TIP3   OH241562   1.772   3.740  15.454 -0.0015  0.3385 -0.0750
 6716TIP3    H141563   1.728   3.673  15.507  0.7175  1.4603  2.0261
 6716TIP3    H241564   1.704   3.806  15.439  0.5103  1.4680  2.1122
 6717TIP3   OH241565   6.733   0.667   3.689 -0.2077  0.4395  0.2805
 6717TIP3    H141566   6.726   0.761   3.706 -0.3014  0.4718  0.0624
 6717TIP3    H241567   6.819   0.656   3.649 -0.6169  0.5760 -0.6542
 6718TIP3   OH241568   0.334   2.824  10.668 -0.1706 -0.0885  0.4561
 6718TIP3    H141569   0.368   2.898  10.719  0.6666 -0.0577 -0.1222
 6718TIP3    H241570   0.409   2.765  10.660 -0.0607  0.2488 -1.3652
 6719TIP3   OH241571   1.386   4.853  13.927  0.4082  0.0894 -0.3465
 6719TIP3    H141572   1.415   4.792  13.860  0.6177  0.0428 -0.2137
 6719TIP3    H241573   1.322   4.909  13.883  0.7122  0.2040 -0.6408
 6720TIP3   OH241574   4.674   1.920   2.723  0.1761  0.9333  0.0605
 6720TIP3    H141575   4.734   1.939   2.795 -0.7584  0.7285  0.9295
 6720TIP3    H241576   4.673   1.825   2.717 -1.4296  0.8160  1.3195
 6721TIP3   OH241577   0.447   0.539   3.054  0.1577  0.2514  0.1966
 6721TIP3    H141578   0.523   0.563   3.001  2.2439 -1.2888  2.2863
 6721TIP3    H241579   0.475   0.554   3.144 -2.1185 -0.1944  1.0515
 6722TIP3   OH241580   6.697   6.387   3.686 -0.3086  0.3628 -0.3700
 6722TIP3    H141581   6.695   6.317   3.621 -0.6712 -0.4402  0.4826
 6722TIP3    H241582   6.675   6.344   3.769  4.1207  0.4390  1.1466
 6723TIP3   OH241583   2.964   4.186   1.445  0.1767 -0.3173 -0.2513
 6723TIP3    H141584   2.988   4.276   1.465 -2.7860 -0.0628  3.2651
 6723TIP3    H241585   3.044   4.136   1.460  1.2323  1.4306  0.2344
 6724TIP3   OH241586   3.166   5.302  13.303 -0.2584 -0.2405  0.7675
 6724TIP3    H141587   3.128   5.247  13.371  0.8520 -0.3755  1.2949
 6724TIP3    H241588   3.259   5.307  13.325  0.1480 -0.3846 -0.8058
 6725TIP3   OH241589   3.892   2.641   3.277  0.1166 -0.1217  0.7100
 6725TIP3    H141590   3.870   2.548   3.279  0.8809 -0.3071  0.7501
 6725TIP3    H241591   3.967   2.649   3.337  0.4778  0.4008  0.1998
 6726TIP3   OH241592   1.796   5.567  17.054  0.5065  0.4127 -0.0936
 6726TIP3    H141593   1.868   5.525  17.007  0.4546 -2.1202  1.9072
 6726TIP3    H241594   1.718   5.517  17.028  0.1472  0.4137  0.9503
 6727TIP3   OH241595   2.678   1.178   4.298 -0.4713 -0.8036 -0.0350
 6727TIP3    H141596   2.729   1.216   4.227  0.1133 -2.9646 -0.8415
 6727TIP3    H241597   2.740   1.169   4.370 -0.3983 -0.9866 -0.1207
 6728TIP3   OH241598   3.554   6.536   5.968 -0.1673  0.2396  0.0438
 6728TIP3    H141599   3.536   6.452   6.012  0.8422  0.6579  1.3187
 6728TIP3    H241600   3.646   6.530   5.942  0.4038  1.5416  1.6038
 6729TIP3   OH241601   0.538   4.697  12.504 -0.2579  0.3814 -0.2708
 6729TIP3    H141602   0.550   4.738  12.589 -2.4114 -0.1252  0.3354
 6729TIP3    H241603   0.535   4.603  12.522 -0.3385  0.2422 -0.9596
 6730TIP3   OH241604   5.494   4.091  16.325  0.6811 -0.3131 -0.0431
 6730TIP3    H141605   5.590   4.090  16.319  1.0461 -0.7735  3.5347
 6730TIP3    H241606   5.470   4.183  16.314  1.6603 -0.0306  0.0862
 6731TIP3   OH241607   5.938   4.566  11.678  0.3214  0.0228  0.0658
 6731TIP3    H141608   6.003   4.519  11.626 -0.9577 -0.7569 -0.8743
 6731TIP3    H241609   5.855   4.553  11.632 -0.6855  0.2093  1.7320
 6732TIP3   OH241610   5.085   2.882   2.769  0.2531 -0.5042  0.3610
 6732TIP3    H141611   5.111   2.854   2.857  0.2087 -0.8117  0.2773
 6732TIP3    H241612   4.991   2.864   2.766 -0.0148  0.7311  0.7161
 6733TIP3   OH241613   5.373   6.734  15.986  0.8981 -0.4117 -0.0394
 6733TIP3    H141614   5.452   6.761  16.032 -0.1741  1.1674  0.9902
 6733TIP3    H241615   5.341   6.658  16.035  1.4470 -0.6917 -0.1071
 6734TIP3   OH241616   1.812   4.309  13.123 -0.0764 -0.3856 -0.6488
 6734TIP3    H141617   1.720   4.330  13.104  0.1646  1.2275 -0.2195
 6734TIP3    H241618   1.850   4.392  13.150  0.9641 -1.4572  1.4053
 6735TIP3   OH241619   6.139   5.524   4.266 -0.3391 -0.5324  0.2981
 6735TIP3    H141620   6.107   5.596   4.211 -0.4695 -0.4476  0.4868
 6735TIP3    H241621   6.105   5.542   4.353  1.8077  0.6343  0.9737
 6736TIP3   OH241622   4.750   2.296  14.111 -0.7137 -0.0586  0.3689
 6736TIP3    H141623   4.750   2.341  14.196 -0.5716  1.4872 -0.4325
 6736TIP3    H241624   4.659   2.296  14.084 -0.9053 -1.3694  0.9011
 6737TIP3   OH241625   0.107   6.157   0.581 -0.4335  0.5380 -0.7465
 6737TIP3    H141626   0.171   6.094   0.548 -1.4943 -0.5117 -0.8543
 6737TIP3    H241627   0.109   6.146   0.676  0.5868  1.5689 -0.6184
 6738TIP3   OH241628   4.046   6.027  15.720 -0.1064  0.0715 -0.4341
 6738TIP3    H141629   4.044   5.950  15.663 -0.3267 -0.7949  0.6923
 6738TIP3    H241630   3.955   6.056  15.724 -0.1727 -0.1640 -0.1576
 6739TIP3   OH241631   0.416   1.294   3.769 -0.8115  0.0619 -0.4213
 6739TIP3    H141632   0.441   1.209   3.733  1.4370  0.8985 -1.0573
 6739TIP3    H241633   0.492   1.350   3.750 -1.8567  1.9693  0.7787
 6740TIP3   OH241634   6.377   1.227   4.755 -0.4228  0.6635 -0.8432
 6740TIP3    H141635   6.342   1.310   4.789 -0.0425  1.1677 -1.6491
 6740TIP3    H241636   6.462   1.251   4.716  1.4746 -0.7171  2.1090
 6741TIP3   OH241637   4.589   6.537   1.784 -0.5039  0.0325 -0.1019
 6741TIP3    H141638   4.559   6.558   1.696  1.5439 -1.1338 -1.1515
 6741TIP3    H241639   4.540   6.458   1.808 -3.6898  2.2303  1.3762
 6742TIP3   OH241640   5.613   5.055  13.216  0.6859 -0.0890 -0.1317
 6742TIP3    H141641   5.653   5.120  13.158  0.6840  0.1269  0.1079
 6742TIP3    H241642   5.628   4.971  13.172  0.0668  0.1344 -0.8092
 6743TIP3   OH241643   5.646   3.059   2.919 -0.0506 -0.0221  0.1423
 6743TIP3    H141644   5.686   3.106   2.846 -1.0885  1.5230  0.4943
 6743TIP3    H241645   5.719   3.038   2.977  0.6245 -0.1242 -0.7274
 6744TIP3   OH241646   4.118   3.339  13.005  0.7200 -0.0834 -0.4316
 6744TIP3    H141647   4.069   3.419  13.024  1.0513 -0.1749  0.8868
 6744TIP3    H241648   4.052   3.269  13.012  0.7787 -0.0867  0.1310
 6745TIP3   OH241649   2.473   5.002  14.761  0.0531  0.6065 -0.1417
 6745TIP3    H141650   2.546   5.035  14.814 -0.8697 -0.8331  2.1868
 6745TIP3    H241651   2.482   4.907  14.763 -1.5032  0.4273 -0.3776
 6746TIP3   OH241652   0.194   0.288  15.724 -1.0508  0.0734 -0.1703
 6746TIP3    H141653   0.117   0.300  15.668 -1.8969 -0.4016  0.8494
 6746TIP3    H241654   0.167   0.222  15.788  0.1342  0.0748  0.3600
 6747TIP3   OH241655   4.678   0.766   5.316 -0.4253 -0.0098  0.0546
 6747TIP3    H141656   4.758   0.750   5.366 -0.1452 -0.3082 -0.4744
 6747TIP3    H241657   4.673   0.862   5.310  0.6044  0.0054 -0.9963
 6748TIP3   OH241658   6.698   0.209   2.781  0.3160  0.1647  0.2461
 6748TIP3    H141659   6.778   0.170   2.746 -0.0182  1.4048 -2.1182
 6748TIP3    H241660   6.701   0.300   2.750 -1.7561  0.3644  0.5229
 6749TIP3   OH241661   4.037   1.728   2.739  0.0394 -0.1781 -0.2278
 6749TIP3    H141662   4.116   1.726   2.794 -0.1097 -1.8237 -0.0042
 6749TIP3    H241663   4.063   1.685   2.658 -0.5069 -0.3337 -0.3253
 6750TIP3   OH241664   5.395   5.673  12.519  0.4014 -0.2445  0.0496
 6750TIP3    H141665   5.303   5.693  12.504 -0.1358 -0.8721  2.1153
 6750TIP3    H241666   5.430   5.751  12.563  0.7567 -0.1641 -0.3704
 6751TIP3   OH241667   3.114   5.365   5.411 -0.1981  0.6819  0.9005
 6751TIP3    H141668   3.158   5.318   5.482  2.6542  0.6793 -0.6860
 6751TIP3    H241669   3.056   5.301   5.371  0.5864 -0.2806  1.2796
 6752TIP3   OH241670   0.023   5.942  12.692  0.2523  0.4479  0.2167
 6752TIP3    H141671   0.109   5.983  12.684  0.8655 -0.5996  1.1642
 6752TIP3    H241672  -0.026   6.001  12.750  1.5270 -0.6709  2.5781
 6753TIP3   OH241673   2.506   0.961   0.896  0.4442 -0.2664  0.0972
 6753TIP3    H141674   2.498   1.026   0.966 -0.4826 -0.2034 -0.0563
 6753TIP3    H241675   2.564   0.894   0.933  0.4161  0.0413  0.7168
 6754TIP3   OH241676   5.522   0.377  15.819 -0.2362  0.3281  0.4585
 6754TIP3    H141677   5.561   0.293  15.845  1.8353  1.6787  1.9822
 6754TIP3    H241678   5.493   0.362  15.729 -0.6979 -2.2545  0.9513
 6755TIP3   OH241679   4.458   6.297  10.452  0.3912  0.1625  0.2996
 6755TIP3    H141680   4.449   6.269  10.542  1.3313  0.1758  0.4082
 6755TIP3    H241681   4.539   6.256  10.422 -1.3634 -2.3077 -1.4826
 6756TIP3   OH241682   1.433   6.532   3.485  1.0403  0.3687  0.1898
 6756TIP3    H141683   1.427   6.595   3.413  0.6703  0.8656  0.6407
 6756TIP3    H241684   1.385   6.455   3.455  1.1190  0.4683 -0.1957
 6757TIP3   OH241685   1.351   4.954  11.190 -0.6227 -0.1126  0.1672
 6757TIP3    H141686   1.427   4.992  11.234 -0.7343  2.3061 -1.5785
 6757TIP3    H241687   1.380   4.866  11.164  1.9674  1.0622 -1.2573
 6758TIP3   OH241688   4.003   0.517   1.574  0.1200 -0.1422 -0.2100
 6758TIP3    H141689   4.027   0.573   1.500  0.7296 -0.6894 -0.4315
 6758TIP3    H241690   4.073   0.452   1.578 -0.2226 -0.4703  0.4818
 6759TIP3   OH241691   3.558   5.570  15.245  0.2988 -0.1431 -0.0241
 6759TIP3    H141692   3.641   5.602  15.280  0.6688 -0.6817 -0.4006
 6759TIP3    H241693   3.550   5.614  15.160 -1.0016  1.8219  1.0202
 6760TIP3   OH241694   1.242   6.535  16.238 -0.4572 -0.0871  0.2224
 6760TIP3    H141695   1.322   6.501  16.279  0.5547  0.0394 -1.5349
 6760TIP3    H241696   1.237   6.626  16.269  0.8730  0.3340 -0.6952
 6761TIP3   OH241697   2.524   3.813   4.700 -0.9073  0.0009  0.6305
 6761TIP3    H141698   2.447   3.843   4.651 -0.3714  0.4201  0.0316
 6761TIP3    H241699   2.596   3.816   4.637 -0.3391 -0.1208  1.2554
 6762TIP3   OH241700   3.742   5.935  13.963  0.6141  0.0661  0.0671
 6762TIP3    H141701   3.830   5.904  13.940  1.3077  0.7902  1.5638
 6762TIP3    H241702   3.757   6.007  14.024 -1.0283  0.3759  0.1612
 6763TIP3   OH241703   3.073   0.176  16.454  0.4137 -0.4416 -0.0569
 6763TIP3    H141704   3.097   0.084  16.467  1.0346 -0.1284  1.2174
 6763TIP3    H241705   3.156   0.224  16.458 -0.0144  0.2821  0.4743
 6764TIP3   OH241706   6.537   3.770   1.119 -0.2485  0.4885 -0.7225
 6764TIP3    H141707   6.596   3.695   1.119 -0.2985  0.4502 -0.4774
 6764TIP3    H241708   6.452   3.734   1.094 -0.6680  0.1537  1.0989
 6765TIP3   OH241709   1.566   3.141  11.932  0.1476  0.1866 -0.2701
 6765TIP3    H141710   1.590   3.208  11.869 -0.5700 -0.7440 -1.5795
 6765TIP3    H241711   1.474   3.121  11.912  0.1465 -0.7152  0.5337
 6766TIP3   OH241712   3.846   4.867   3.661 -0.0255  0.7836 -0.2879
 6766TIP3    H141713   3.878   4.779   3.678  0.7797  1.1176 -0.0269
 6766TIP3    H241714   3.768   4.875   3.716 -0.0289  0.2829 -0.2151
 6767TIP3   OH241715   6.088   0.037  10.811  0.1594 -0.5320  0.4370
 6767TIP3    H141716   6.058   0.067  10.725  1.7706 -0.3999 -0.1238
 6767TIP3    H241717   6.055   0.102  10.872 -0.1015 -0.0295 -0.2244
 6768TIP3   OH241718   5.667   3.606   4.117  0.1443  0.3354  0.1570
 6768TIP3    H141719   5.651   3.700   4.118  1.6968  0.6313  0.9788
 6768TIP3    H241720   5.627   3.573   4.197 -2.8484 -0.2262 -1.4435
 6769TIP3   OH241721   6.675   6.575   5.590  0.3800  0.0067 -0.1237
 6769TIP3    H141722   6.703   6.666   5.594 -0.2992  0.1932  1.3510
 6769TIP3    H241723   6.652   6.553   5.681 -0.3635 -1.3456 -0.6010
 6770TIP3   OH241724   6.091   0.413   5.614 -0.5567  0.1208 -0.0092
 6770TIP3    H141725   6.103   0.318   5.621  1.9496  0.1539 -2.2590
 6770TIP3    H241726   6.174   0.449   5.644 -0.2545  1.3817 -2.1706
 6771TIP3   OH241727   4.409   5.240   3.412 -0.1389 -0.1707  0.0751
 6771TIP3    H141728   4.420   5.252   3.318  0.7694 -0.2573  0.1599
 6771TIP3    H241729   4.409   5.145   3.424 -1.3212 -0.1852  0.0545
 6772TIP3   OH241730   1.884   2.534  15.152  0.1010  0.0637  0.3311
 6772TIP3    H141731   1.878   2.467  15.220  0.1493 -0.4601 -0.1701
 6772TIP3    H241732   1.877   2.485  15.070 -1.0232  0.7907 -0.0295
 6773TIP3   OH241733   5.834   5.489   4.089  0.4474 -0.2960 -0.2982
 6773TIP3    H141734   5.905   5.425   4.087  0.3294 -0.4556  0.4305
 6773TIP3    H241735   5.817   5.503   4.182 -1.3342 -1.2154 -0.4437
 6774TIP3   OH241736   6.410   2.645   4.729  0.0597 -0.4636 -0.3021
 6774TIP3    H141737   6.485   2.588   4.712  0.1614 -0.2004 -0.7345
 6774TIP3    H241738   6.404   2.701   4.652 -1.0274 -0.9770 -0.6237
 6775TIP3   OH241739   4.438   4.542  11.514  0.4269  0.6120 -0.2039
 6775TIP3    H141740   4.366   4.481  11.532  0.9339  0.3208  0.9019
 6775TIP3    H241741   4.489   4.499  11.445 -0.9543  1.2619 -1.7141
 6776TIP3   OH241742   4.010   5.462  15.675 -0.1402 -0.2613 -0.4513
 6776TIP3    H141743   4.078   5.524  15.702  0.9048 -0.7279 -1.8798
 6776TIP3    H241744   3.972   5.431  15.757 -0.1814  1.6826  0.3232
 6777TIP3   OH241745   0.136   1.467   1.040 -0.4776 -0.1735  0.0635
 6777TIP3    H141746   0.101   1.546   0.997 -1.0256  0.1676  1.0957
 6777TIP3    H241747   0.208   1.440   0.984  0.2455  1.5369  0.0877
 6778TIP3   OH241748   0.308   6.497   3.492 -0.0847  0.5011 -0.0950
 6778TIP3    H141749   0.279   6.460   3.409 -2.9664  2.3050 -0.0004
 6778TIP3    H241750   0.304   6.423   3.553  2.3672 -0.9362 -1.4616
 6779TIP3   OH241751   2.451   6.480  12.454  0.0640  0.2479 -0.9185
 6779TIP3    H141752   2.464   6.535  12.531  0.6321 -0.2820 -0.6203
 6779TIP3    H241753   2.357   6.464  12.451 -0.4233  2.8464 -2.1578
 6780TIP3   OH241754   4.619   1.596   3.191 -0.2112  0.3522 -0.1472
 6780TIP3    H141755   4.639   1.512   3.232  0.2772  0.6782  0.2903
 6780TIP3    H241756   4.704   1.640   3.182  0.1279 -0.7307 -3.8741
 6781TIP3   OH241757   6.666   3.249  14.239 -0.2763 -0.0219 -0.2327
 6781TIP3    H141758   6.581   3.236  14.281 -1.0177 -0.0069 -1.6732
 6781TIP3    H241759   6.688   3.341  14.257 -0.2848 -0.1696  0.5985
 6782TIP3   OH241760   1.129   5.030   4.458  0.2353 -0.0902  0.0946
 6782TIP3    H141761   1.135   5.003   4.550 -1.1317 -0.6999  0.0397
 6782TIP3    H241762   1.035   5.036   4.441  0.3285 -2.6578 -1.9846
 6783TIP3   OH241763   6.472   6.742  13.571  0.5564 -0.1384  0.3793
 6783TIP3    H141764   6.513   6.777  13.650 -0.1798 -0.3189  0.8526
 6783TIP3    H241765   6.508   6.653  13.563  0.6527 -0.1105  0.4984
 6784TIP3   OH241766   3.081   0.971  10.802  0.6939 -0.3560  0.2199
 6784TIP3    H141767   3.107   0.986  10.711  2.9593  3.5077  1.3030
 6784TIP3    H241768   3.156   0.927  10.842  0.8026  0.3143  0.7707
 6785TIP3   OH241769   1.756   5.639  11.858  0.0305  0.1417 -0.2896
 6785TIP3    H141770   1.803   5.635  11.941 -1.1303  1.4185  0.4648
 6785TIP3    H241771   1.825   5.635  11.791  0.8668 -3.1792  0.6028
 6786TIP3   OH241772   5.089   6.113   3.668  0.1334 -0.0841  0.3392
 6786TIP3    H141773   5.162   6.173   3.650  1.3553 -1.1639  1.4507
 6786TIP3    H241774   5.132   6.031   3.692 -1.4861 -1.0550  0.0269
 6787TIP3   OH241775   0.496   3.202  16.935 -0.4272  0.1938 -0.8299
 6787TIP3    H141776   0.543   3.272  16.891  1.0310 -0.5368 -0.4844
 6787TIP3    H241777   0.564   3.147  16.974 -1.5996  0.1118  1.2899
 6788TIP3   OH241778   0.195   6.129   5.457  0.4346  0.2505 -0.0526
 6788TIP3    H141779   0.244   6.202   5.496 -0.0847  0.2089  0.6869
 6788TIP3    H241780   0.138   6.098   5.527 -0.0101 -0.2781 -0.6420
 6789TIP3   OH241781   0.641   3.170  12.913  0.2888 -0.0063 -0.0401
 6789TIP3    H141782   0.600   3.147  12.830  0.4692 -1.2647  0.2091
 6789TIP3    H241783   0.676   3.258  12.898 -2.0341  0.9301 -0.4159
 6790TIP3   OH241784   2.332   5.341   4.370  0.4369  0.5106  0.2792
 6790TIP3    H141785   2.295   5.425   4.396 -2.1955 -0.2275 -0.8063
 6790TIP3    H241786   2.330   5.289   4.450 -0.4223  0.6554  0.3592
 6791TIP3   OH241787   4.309   3.843   1.700  0.1961 -0.0333 -0.0454
 6791TIP3    H141788   4.348   3.908   1.759 -0.8500  0.0576  0.5694
 6791TIP3    H241789   4.270   3.895   1.630  0.1493 -0.0514 -0.0329
 6792TIP3   OH241790   2.796   4.467   3.960  0.4033 -0.0308  0.1249
 6792TIP3    H141791   2.780   4.526   3.887  0.9041 -0.3727 -0.2716
 6792TIP3    H241792   2.713   4.421   3.973  0.8818 -1.5147 -1.6575
 6793TIP3   OH241793   5.972   3.955  11.724  0.0091 -0.3454 -0.3277
 6793TIP3    H141794   5.998   3.983  11.636  0.4439  1.3472  0.2822
 6793TIP3    H241795   5.948   3.863  11.714  0.2879 -0.2692 -2.1578
 6794TIP3   OH241796   1.916   6.728  13.046 -0.2292 -0.0245  0.1307
 6794TIP3    H141797   1.842   6.712  13.104 -0.4815  1.2424  0.1839
 6794TIP3    H241798   1.879   6.774  12.971  0.3759 -0.0928 -0.2179
 6795TIP3   OH241799   1.944   2.219  16.784 -1.0737  0.1244 -0.0960
 6795TIP3    H141800   1.949   2.124  16.770  0.6225 -0.1160  1.7020
 6795TIP3    H241801   1.947   2.256  16.696 -0.8888 -1.4583 -0.8025
 6796TIP3   OH241802   1.554   4.600   2.834  0.6119  0.7175 -0.5092
 6796TIP3    H141803   1.530   4.572   2.746  0.4445  2.5820 -1.0966
 6796TIP3    H241804   1.522   4.690   2.840 -1.4033 -0.0151  2.2448
 6797TIP3   OH241805   5.914   6.738   1.521 -0.1405 -0.2997  0.1965
 6797TIP3    H141806   5.997   6.691   1.508 -0.3408 -1.2027  1.9285
 6797TIP3    H241807   5.940   6.822   1.559  0.1873  0.9746 -2.5488
 6798TIP3   OH241808   4.233   3.361  15.315 -0.3551 -0.1563 -0.2607
 6798TIP3    H141809   4.183   3.312  15.250  1.5477 -0.5341 -1.5532
 6798TIP3    H241810   4.279   3.294  15.366 -0.1809  0.2073  0.0654
 6799TIP3   OH241811   5.974   0.761   4.145  0.0365  0.1494 -0.4583
 6799TIP3    H141812   5.942   0.850   4.159 -0.0471  0.1443 -0.6180
 6799TIP3    H241813   5.940   0.711   4.219  0.2553  0.2936 -0.2572
 6800TIP3   OH241814   3.111   1.465  17.050  0.1902 -0.3346 -0.1381
 6800TIP3    H141815   3.028   1.431  17.015  0.8412 -2.5543  0.3026
 6800TIP3    H241816   3.090   1.553  17.081 -2.3083 -1.2253  0.9507
 6801TIP3   OH241817   5.285   3.684   5.379 -0.4672 -0.1385  0.6545
 6801TIP3    H141818   5.236   3.608   5.346  2.1568 -0.9432 -1.8232
 6801TIP3    H241819   5.357   3.646   5.431  1.0888  0.5323 -0.9037
 6802TIP3   OH241820   0.546   4.563  13.776  0.4365  0.1232  0.0238
 6802TIP3    H141821   0.609   4.632  13.759 -0.6633  1.4901  1.1809
 6802TIP3    H241822   0.536   4.517  13.693  2.4000  0.3064 -0.3459
 6803TIP3   OH241823   5.782   6.655  13.845  0.7283  0.2808 -0.0932
 6803TIP3    H141824   5.767   6.728  13.784  0.2563  1.0359  0.8932
 6803TIP3    H241825   5.834   6.694  13.916  0.4539 -0.3403  0.4572
 6804TIP3   OH241826   5.236   3.944   3.395  0.4900  0.1509  0.0058
 6804TIP3    H141827   5.242   4.040   3.395 -1.0690  0.3030 -1.4419
 6804TIP3    H241828   5.242   3.919   3.487  0.9343  1.6300  0.4060
 6805TIP3   OH241829   4.238   5.841  14.665 -0.6884  0.1458 -0.4588
 6805TIP3    H141830   4.287   5.864  14.585  1.7751  2.0683  1.4191
 6805TIP3    H241831   4.226   5.747  14.660 -1.0465  0.2553 -3.2894
 6806TIP3   OH241832   2.558   3.797  16.081 -0.2560 -0.9193  0.2399
 6806TIP3    H141833   2.620   3.868  16.099 -1.3625  0.1412 -0.0183
 6806TIP3    H241834   2.475   3.841  16.062 -0.3005 -2.0664 -2.9684
 6807TIP3   OH241835   6.073   3.225   2.830  0.0292 -0.5947 -0.2721
 6807TIP3    H141836   6.097   3.210   2.738  0.4872 -1.8670  0.0366
 6807TIP3    H241837   6.138   3.177   2.880  0.2065  0.6652  0.7638
 6808TIP3   OH241838   2.711   3.572   5.810  0.0858  0.7509  0.2513
 6808TIP3    H141839   2.735   3.663   5.829  0.6968  0.0544  3.3878
 6808TIP3    H241840   2.746   3.522   5.884 -1.1089 -1.9226 -0.8549
 6809TIP3   OH241841   6.562   1.642  12.683 -0.7646 -0.0839 -0.3437
 6809TIP3    H141842   6.553   1.710  12.616  0.5891  1.5488  1.0590
 6809TIP3    H241843   6.641   1.665  12.731 -2.1482 -0.6333  2.4181
 6810TIP3   OH241844   3.179   2.483  11.324  0.1298  0.1794  0.2464
 6810TIP3    H141845   3.141   2.419  11.385 -0.7192 -0.5766 -1.0288
 6810TIP3    H241846   3.111   2.548  11.312 -0.4868 -0.7002 -1.3489
 6811TIP3   OH241847   2.252   5.188   0.289  0.9093 -0.3312  0.3614
 6811TIP3    H141848   2.245   5.233   0.373  1.8962  1.4014 -0.4355
 6811TIP3    H241849   2.286   5.101   0.311 -1.5558 -0.9819  1.9824
 6812TIP3   OH241850   6.276   3.586  17.001  0.2726 -0.3709 -0.2101
 6812TIP3    H141851   6.209   3.594  16.932  0.4615  1.0802 -0.2585
 6812TIP3    H241852   6.353   3.628  16.964  0.5281 -0.0278  0.6951
 6813TIP3   OH241853   1.449   4.726   3.157 -0.5517 -0.5158  0.2078
 6813TIP3    H141854   1.493   4.643   3.137  1.0769  0.0797  1.1109
 6813TIP3    H241855   1.515   4.777   3.204 -1.6984  1.0923  0.1477
 6814TIP3   OH241856   2.688   0.689   0.119 -0.7664 -0.0125 -0.5314
 6814TIP3    H141857   2.749   0.726   0.183 -2.1869  2.8246 -0.6851
 6814TIP3    H241858   2.651   0.613   0.164 -0.3973  0.8488  1.3521
 6815TIP3   OH241859   0.520   5.656  13.751 -0.3088  0.0494  0.7486
 6815TIP3    H141860   0.575   5.592  13.796  1.7642  0.3753 -1.1597
 6815TIP3    H241861   0.478   5.606  13.681 -0.4295  0.3293  0.6209
 6816TIP3   OH241862   5.802   6.500   1.628  0.9020  0.2740 -0.3461
 6816TIP3    H141863   5.833   6.469   1.543 -0.2083  1.9981 -1.4522
 6816TIP3    H241864   5.835   6.590   1.634 -0.1342  0.6257  0.4343
 6817TIP3   OH241865   5.127   0.676   3.636  0.1731  0.1913  0.1017
 6817TIP3    H141866   5.210   0.677   3.588  0.8383 -0.6911  1.1986
 6817TIP3    H241867   5.082   0.597   3.604  0.3666 -0.0839  0.5020
 6818TIP3   OH241868   3.699   6.271  16.828  0.0026 -0.1303  0.4044
 6818TIP3    H141869   3.752   6.348  16.808  1.0478 -0.8688  0.2705
 6818TIP3    H241870   3.724   6.245  16.916 -0.8260  0.0557  0.7049
 6819TIP3   OH241871   5.233   4.755   0.712  0.2646  0.2081 -0.2321
 6819TIP3    H141872   5.246   4.836   0.662  1.3787 -0.3454 -0.8626
 6819TIP3    H241873   5.193   4.784   0.794 -1.3724  1.1770 -1.2937
 6820TIP3   OH241874   0.968   6.095   5.795 -0.5418  0.2490  0.3060
 6820TIP3    H141875   0.947   6.008   5.830 -0.2471 -0.0048 -0.1440
 6820TIP3    H241876   1.063   6.102   5.802 -0.5288  0.3911  0.0015
 6821TIP3   OH241877   0.803   4.522   6.082  0.1053  0.6794 -0.2274
 6821TIP3    H141878   0.867   4.558   6.143  0.3268  0.1998 -0.1708
 6821TIP3    H241879   0.826   4.429   6.075  0.1339  0.7430 -1.1002
 6822TIP3   OH241880   1.817   2.267  12.948  0.4461  0.0973 -0.1205
 6822TIP3    H141881   1.898   2.234  12.910  1.1984  0.0303  1.4557
 6822TIP3    H241882   1.795   2.203  13.016 -1.1975 -0.1377 -0.8182
 6823TIP3   OH241883   5.149   5.897   2.910 -0.1544  0.2507  0.3969
 6823TIP3    H141884   5.093   5.950   2.966  0.8765  0.0135  1.6808
 6823TIP3    H241885   5.194   5.837   2.969  1.8101  0.7326 -0.5076
 6824TIP3   OH241886   5.010   6.413   4.329 -0.2802 -0.1111  0.3728
 6824TIP3    H141887   5.100   6.383   4.316 -0.0826  1.3065 -2.4559
 6824TIP3    H241888   4.956   6.335   4.316  0.4854 -0.6907  0.6361
 6825TIP3   OH241889   6.589   0.494  13.121  0.6198 -0.5684  0.3000
 6825TIP3    H141890   6.642   0.573  13.113  0.6566 -0.5948  0.2808
 6825TIP3    H241891   6.612   0.443  13.044 -1.8712  0.8631 -1.5143
 6826TIP3   OH241892   2.851   3.779  11.880 -0.2159 -0.1702  0.1451
 6826TIP3    H141893   2.757   3.761  11.886 -0.6692  1.5198 -0.9727
 6826TIP3    H241894   2.867   3.792  11.786  1.7849 -3.3461 -0.0910
 6827TIP3   OH241895   6.084   4.442  15.097  0.5653 -0.5944 -0.2954
 6827TIP3    H141896   6.177   4.462  15.091  0.0067  2.5145 -0.3572
 6827TIP3    H241897   6.069   4.426  15.191  1.0686 -0.5778 -0.2107
 6828TIP3   OH241898   3.461   2.571  11.748 -0.4160  0.2250 -0.2003
 6828TIP3    H141899   3.491   2.631  11.680  0.4607  0.6874  0.5582
 6828TIP3    H241900   3.537   2.561  11.806 -1.3872  0.5678  1.2074
 6829TIP3   OH241901   5.716   1.420  16.680 -0.2704 -0.4810  0.0266
 6829TIP3    H141902   5.743   1.511  16.667  0.5869 -0.9504 -1.9329
 6829TIP3    H241903   5.758   1.394  16.762  0.7473  0.4578 -0.1720
 6830TIP3   OH241904   6.019   6.456  11.257 -0.3433 -0.4548 -0.3079
 6830TIP3    H141905   5.992   6.366  11.274  0.1886 -0.5142  0.2819
 6830TIP3    H241906   5.953   6.490  11.197 -0.6762 -1.1657 -0.3581
 6831TIP3   OH241907   4.955   4.292  16.836  0.0161 -0.8851  0.4904
 6831TIP3    H141908   5.039   4.335  16.818 -0.3890 -1.0418 -2.1983
 6831TIP3    H241909   4.891   4.345  16.789 -1.0915 -2.0090  0.6912
 6832TIP3   OH241910   0.575   4.685   2.760 -0.2409  0.3934 -0.4154
 6832TIP3    H141911   0.621   4.696   2.677 -0.6598  2.0167 -0.4648
 6832TIP3    H241912   0.482   4.694   2.736 -0.5529 -1.6788 -0.1440
 6833TIP3   OH241913   5.163   3.176   5.412 -0.1868 -0.2348 -0.1118
 6833TIP3    H141914   5.231   3.171   5.479  1.5079 -2.0148 -1.8471
 6833TIP3    H241915   5.088   3.132   5.451 -0.1396  1.0661  1.5483
 6834TIP3   OH241916   2.225   6.420   2.074 -0.6414  0.1504 -0.1598
 6834TIP3    H141917   2.192   6.480   2.140  0.6646  0.2655  0.4143
 6834TIP3    H241918   2.295   6.468   2.030 -1.1107 -0.1312 -1.2455
 6835TIP3   OH241919   6.223   1.624   6.519  0.0875 -0.1177 -0.0393
 6835TIP3    H141920   6.288   1.591   6.458 -1.4911 -1.8717 -0.8806
 6835TIP3    H241921   6.214   1.555   6.584 -1.1209 -0.0420 -0.1023
 6836TIP3   OH241922   3.519   4.060  14.051  0.1928  0.0621 -0.3248
 6836TIP3    H141923   3.610   4.033  14.061  0.2280  0.9680  2.6378
 6836TIP3    H241924   3.469   3.978  14.047  0.9923 -0.4299 -0.4120
 6837TIP3   OH241925   5.572   2.168  15.402  0.0091 -0.5155  0.0189
 6837TIP3    H141926   5.521   2.100  15.357  1.6774 -0.9202 -1.3587
 6837TIP3    H241927   5.581   2.136  15.491  0.5024 -1.9878 -0.5327
 6838TIP3   OH241928   5.656   5.469   1.287 -0.0683 -0.4301 -0.0878
 6838TIP3    H141929   5.741   5.441   1.254  0.0714  0.5022 -0.5606
 6838TIP3    H241930   5.653   5.436   1.377  1.1660  0.2255  0.2263
 6839TIP3   OH241931   6.347   5.177  14.688 -0.0154  0.7152 -0.4882
 6839TIP3    H141932   6.390   5.182  14.773 -0.1821 -1.4391 -0.2214
 6839TIP3    H241933   6.419   5.169  14.625  0.0722  1.0393 -0.4315
 6840TIP3   OH241934   3.500   0.037  13.466 -0.2209  0.9559 -0.0844
 6840TIP3    H141935   3.491   0.013  13.374 -1.4272 -0.0362  0.2531
 6840TIP3    H241936   3.430  -0.012  13.510  2.8343 -1.9711  1.9831
 6841TIP3   OH241937   2.528   4.109   0.463 -0.6793  0.5647  0.0581
 6841TIP3    H141938   2.570   4.077   0.384 -2.7575 -2.6784  0.0928
 6841TIP3    H241939   2.465   4.174   0.433 -2.1013 -1.2857 -1.2010
 6842TIP3   OH241940   1.857   0.382   3.966 -0.1771 -0.6518 -0.2813
 6842TIP3    H141941   1.928   0.341   3.916  0.6103 -0.2963  0.5156
 6842TIP3    H241942   1.861   0.474   3.941  0.9137 -0.2675  1.1838
 6843TIP3   OH241943   3.136   0.806   0.097  0.3106 -0.4475  0.6979
 6843TIP3    H141944   3.227   0.797   0.070 -0.0447 -0.8005 -0.4581
 6843TIP3    H241945   3.090   0.737   0.049 -0.3039 -1.4679  2.6333
 6844TIP3   OH241946   4.002   4.639  16.712  0.0131 -0.2141 -0.1401
 6844TIP3    H141947   4.074   4.680  16.663  0.0360 -0.8699 -0.6829
 6844TIP3    H241948   3.923   4.664  16.664  0.1633 -2.2510 -1.5900
 6845TIP3   OH241949   2.831   2.872  16.585  0.6959 -0.8133 -0.1594
 6845TIP3    H141950   2.807   2.951  16.536 -0.4963 -1.3181 -0.4138
 6845TIP3    H241951   2.910   2.840  16.541 -0.0651 -0.9759 -1.4702
 6846TIP3   OH241952   0.469   5.188  11.149  0.1936 -0.4581  0.2503
 6846TIP3    H141953   0.556   5.164  11.179  0.2644 -1.1204 -0.4565
 6846TIP3    H241954   0.449   5.124  11.080 -0.3108  0.4892 -0.4994
 6847TIP3   OH241955   4.861   6.365   1.391 -0.6718 -0.7270  0.4210
 6847TIP3    H141956   4.855   6.446   1.341  0.5569  0.2590  1.7685
 6847TIP3    H241957   4.794   6.373   1.458 -2.3192 -2.0452 -0.9712
 6848TIP3   OH241958   2.860   2.370  13.961 -0.4471  0.2042  0.2945
 6848TIP3    H141959   2.841   2.281  13.992  1.2351 -0.3843 -0.2676
 6848TIP3    H241960   2.934   2.398  14.014  0.4286  0.4176 -1.0105
 6849TIP3   OH241961   2.974   0.707   5.117  0.2337  0.5918 -0.1554
 6849TIP3    H141962   2.891   0.755   5.117 -0.5172 -0.6555 -0.5082
 6849TIP3    H241963   3.041   0.775   5.122 -0.8050  1.6293  0.1933
 6850TIP3   OH241964   5.390   1.958   2.090 -0.2447 -0.3758  0.2212
 6850TIP3    H141965   5.328   2.020   2.052 -0.0616  0.5198  1.3357
 6850TIP3    H241966   5.336   1.888   2.126 -0.4265 -1.1955 -1.5479
 6851TIP3   OH241967   2.396   5.485  12.658 -0.0834 -0.1753 -0.0209
 6851TIP3    H141968   2.423   5.398  12.630  0.3713  0.4559 -1.6383
 6851TIP3    H241969   2.372   5.531  12.577 -3.0217  0.3357  1.0265
 6852TIP3   OH241970   3.501   1.606  11.314 -0.2644 -0.4768 -0.4455
 6852TIP3    H141971   3.428   1.665  11.333  1.8529  1.9911  0.6126
 6852TIP3    H241972   3.538   1.641  11.233  0.3902 -1.0273 -0.3861
 6853TIP3   OH241973   2.805   3.241   3.645 -0.2487  0.2566  0.3090
 6853TIP3    H141974   2.872   3.309   3.654 -1.6619  2.4376 -3.4167
 6853TIP3    H241975   2.853   3.164   3.614  0.8438  0.8971  0.3635
 6854TIP3   OH241976   4.800   0.396  11.583  0.1226  0.3509 -0.1919
 6854TIP3    H141977   4.870   0.460  11.597 -0.2842  0.6982  0.2811
 6854TIP3    H241978   4.743   0.406  11.659  0.1515 -0.6992 -0.0146
 6855TIP3   OH241979   3.461   4.194  12.885 -0.1119 -0.6539  0.0242
 6855TIP3    H141980   3.502   4.132  12.946  2.3475 -0.1742 -1.0174
 6855TIP3    H241981   3.440   4.142  12.808  1.6552 -0.3527 -0.7211
 6856TIP3   OH241982   5.847   5.446   2.861  0.1030  0.1202 -0.0290
 6856TIP3    H141983   5.927   5.458   2.912 -0.3480  1.7806  0.3391
 6856TIP3    H241984   5.866   5.488   2.777  0.0142 -0.4988 -0.3601
 6857TIP3   OH241985   4.434   0.133   2.397  0.0330  0.0761  0.0530
 6857TIP3    H141986   4.397   0.071   2.333  0.6427 -0.0061 -0.2214
 6857TIP3    H241987   4.415   0.219   2.360  2.6603  0.0420 -1.6046
 6858TIP3   OH241988   1.861   6.156   4.046 -0.0225 -0.1501  0.0523
 6858TIP3    H141989   1.780   6.117   4.016 -0.4595 -0.7307  1.8635
 6858TIP3    H241990   1.882   6.223   3.980 -2.3485  0.5286 -0.0773
 6859TIP3   OH241991   5.655   3.985   1.007  0.0319  0.5110 -0.2625
 6859TIP3    H141992   5.635   4.066   1.053 -1.1150 -1.1767  2.5174
 6859TIP3    H241993   5.570   3.952   0.978  0.1821 -0.6964  0.5737
 6860TIP3   OH241994   5.477   5.443   5.346 -0.2338 -0.5269 -0.1590
 6860TIP3    H141995   5.469   5.455   5.441 -1.6911 -1.3747 -0.1387
 6860TIP3    H241996   5.410   5.501   5.310  2.3625  2.2271 -0.9257
 6861TIP3   OH241997   2.197   2.130  17.150  0.1290 -0.1833  0.2814
 6861TIP3    H141998   2.123   2.085  17.110  0.5055  0.3530 -1.0834
 6861TIP3    H241999   2.162   2.213  17.180  0.2403  0.2664 -0.7771
 6862TIP3   OH242000   6.588   6.386  12.904 -0.0649 -0.1016  0.1388
 6862TIP3    H142001   6.518   6.439  12.865  0.8089  1.2198  0.2962
 6862TIP3    H242002   6.656   6.383  12.837 -1.0973 -3.3701 -0.9846
 6863TIP3   OH242003   5.786   2.961  12.040  0.2962 -0.1524  0.4669
 6863TIP3    H142004   5.693   2.938  12.046 -0.1140  1.6514  1.6508
 6863TIP3    H242005   5.788   3.044  11.992  1.3729 -0.4926 -0.1245
 6864TIP3   OH242006   4.978   0.366   0.787  0.3361  0.2961  0.0213
 6864TIP3    H142007   5.023   0.335   0.866  1.2371 -0.8373 -0.9025
 6864TIP3    H242008   5.049   0.393   0.729 -0.2888  0.4308 -0.6834
 6865TIP3   OH242009   2.386   4.453   0.098 -0.4930 -0.1148 -0.2244
 6865TIP3    H142010   2.386   4.537   0.052 -1.7617  1.2967  2.1722
 6865TIP3    H242011   2.442   4.467   0.174 -0.2307 -1.6527 -0.1072
 6866TIP3   OH242012   0.564   4.161   6.397 -1.2175  0.5705 -0.4264
 6866TIP3    H142013   0.556   4.121   6.310 -1.9242 -0.0376 -0.0913
 6866TIP3    H242014   0.593   4.250   6.379 -2.7653  0.9120 -1.3908
 6867TIP3   OH242015   3.321   4.735  17.024 -0.2503 -0.6222 -0.0107
 6867TIP3    H142016   3.309   4.826  16.996 -0.3768 -0.6352  0.0048
 6867TIP3    H242017   3.234   4.706  17.051 -0.3104 -0.9270 -0.5311
 6868TIP3   OH242018   2.352   2.069  12.636 -0.0135  0.0512 -0.8377
 6868TIP3    H142019   2.429   2.122  12.656  1.2837 -1.3400 -1.9348
 6868TIP3    H242020   2.387   1.991  12.594 -2.1018 -0.2554 -2.1351
 6869TIP3   OH242021   4.836   5.316  11.645 -0.2842 -0.3596 -0.4300
 6869TIP3    H142022   4.859   5.223  11.651  3.1186  0.4341  2.0869
 6869TIP3    H242023   4.842   5.336  11.552 -0.0301 -2.4260 -0.9167
 6870TIP3   OH242024   6.666   0.178   0.189  0.0268  0.5585  0.3528
 6870TIP3    H142025   6.635   0.109   0.130  1.9537  0.2526 -0.3567
 6870TIP3    H242026   6.595   0.242   0.190 -0.4477  0.1354 -1.6034
 6871TIP3   OH242027   3.046   0.302  16.186 -0.1808 -0.3748 -0.3769
 6871TIP3    H142028   3.032   0.241  16.259 -2.8354 -0.0439 -0.5083
 6871TIP3    H242029   2.985   0.273  16.118  0.3083  0.9323 -1.4183
 6872TIP3   OH242030   3.517   2.779  12.881  0.5668  0.8077  0.0713
 6872TIP3    H142031   3.491   2.871  12.873 -1.1062  0.4211  0.5708
 6872TIP3    H242032   3.574   2.775  12.957 -0.2556  1.2715  0.7180
 6873TIP3   OH242033   0.603   4.460   5.608 -0.5679  0.5064 -0.6114
 6873TIP3    H142034   0.619   4.368   5.629 -0.7691  0.8320  1.0741
 6873TIP3    H242035   0.689   4.502   5.615 -0.6467  0.6317 -0.4015
 6874TIP3   OH242036   5.764   4.629   3.614 -0.3328  0.2810  0.9317
 6874TIP3    H142037   5.844   4.644   3.565 -0.1122 -0.2581  1.1201
 6874TIP3    H242038   5.694   4.639   3.550 -0.3167  3.2377  1.2433
 6875TIP3   OH242039   2.502   2.447   4.398  0.2814 -0.4176 -0.1003
 6875TIP3    H142040   2.533   2.466   4.309  0.0920 -1.7128 -0.4713
 6875TIP3    H242041   2.497   2.351   4.401  2.0191 -0.5072  1.9070
 6876TIP3   OH242042   4.919   1.510  16.364 -0.2032  0.3212  0.3984
 6876TIP3    H142043   4.851   1.543  16.423 -0.6039 -0.0309  0.1475
 6876TIP3    H242044   4.872   1.490  16.283 -0.4531 -2.9246  1.1961
 6877TIP3   OH242045   4.371   0.388   2.344 -0.2686  0.4108  0.2749
 6877TIP3    H142046   4.373   0.474   2.302 -0.9705  0.4944  0.4128
 6877TIP3    H242047   4.279   0.363   2.344 -0.2462  0.2782  1.4944
 6878TIP3   OH242048   0.635   3.870  15.223  0.2567 -0.1040  0.4123
 6878TIP3    H142049   0.585   3.889  15.303  0.5497  0.4776  0.4657
 6878TIP3    H242050   0.723   3.848  15.255  1.1793  2.7354  0.1995
 6879TIP3   OH242051   0.891   4.559   5.681  0.2109  0.0002 -1.0052
 6879TIP3    H142052   0.891   4.654   5.673  0.8672  0.0471 -0.4767
 6879TIP3    H242053   0.943   4.541   5.759 -5.0481 -0.4304  2.9697
 6880TIP3   OH242054   6.359   4.494   0.343 -0.3770 -0.0920  0.6236
 6880TIP3    H142055   6.383   4.403   0.324  1.2852 -0.3851  3.6449
 6880TIP3    H242056   6.419   4.546   0.289  0.2250 -0.8014  0.5898
 6881TIP3   OH242057   1.279   6.373   4.782  0.4885  0.2199  0.1166
 6881TIP3    H142058   1.229   6.453   4.766 -0.5205 -0.5092 -0.4935
 6881TIP3    H242059   1.249   6.312   4.715  1.3411 -0.6322  0.4831
 6882TIP3   OH242060   2.178   0.423  13.843 -0.0212  0.1001 -0.2370
 6882TIP3    H142061   2.123   0.470  13.905 -0.3801  3.6542 -2.9121
 6882TIP3    H242062   2.118   0.392  13.776  0.7293 -0.0699 -0.8465
 6883TIP3   OH242063   0.624   1.631  11.930 -0.2700 -0.1919 -0.3300
 6883TIP3    H142064   0.610   1.689  11.855 -2.1727 -0.7575 -0.4744
 6883TIP3    H242065   0.536   1.602  11.954  0.3787 -0.6145  1.6646
 6884TIP3   OH242066   5.052   2.994   0.949  0.4784  0.0856  0.0823
 6884TIP3    H142067   5.066   3.017   1.041 -3.1814 -1.8482  1.3039
 6884TIP3    H242068   5.062   2.899   0.945 -1.2595 -0.1073 -1.0336
 6885TIP3   OH242069   1.269   0.037  16.649 -0.6224  0.3133  0.7283
 6885TIP3    H142070   1.228   0.118  16.617 -1.3952 -0.1419  0.5242
 6885TIP3    H242071   1.355   0.064  16.680 -0.9717  1.2677  0.9120
 6886TIP3   OH242072   2.918   4.676  13.268 -0.0552 -0.0856  0.5046
 6886TIP3    H142073   2.865   4.712  13.196  1.4432  1.8222  0.2657
 6886TIP3    H242074   2.924   4.582  13.249 -0.9823  0.1285 -1.0088
 6887TIP3   OH242075   2.284   1.678  15.019  0.2021 -0.2903 -0.2948
 6887TIP3    H142076   2.251   1.622  15.090  0.2589  2.1171  1.7575
 6887TIP3    H242077   2.364   1.634  14.990  0.7334 -0.8627  1.8388
 6888TIP3   OH242078   4.850   0.169  15.585  0.0942  0.3203  0.7072
 6888TIP3    H142079   4.849   0.083  15.627 -1.0965  0.3790  0.8392
 6888TIP3    H242080   4.846   0.231  15.658 -1.6880  0.4260  0.5691
 6889TIP3   OH242081   0.130   5.821   3.539 -0.2710  0.6167  0.1147
 6889TIP3    H142082   0.219   5.847   3.564 -0.5685  1.1158  0.6916
 6889TIP3    H242083   0.078   5.832   3.619 -0.6423 -0.7254  0.0725
 6890TIP3   OH242084   3.244   1.534  11.178  0.3682  0.1815  0.0117
 6890TIP3    H142085   3.158   1.565  11.149  0.6945 -0.1424 -1.3843
 6890TIP3    H242086   3.306   1.598  11.143  0.6932  0.5644  1.2428
 6891TIP3   OH242087   5.583   1.256   1.600  0.0704 -0.0007  0.1672
 6891TIP3    H142088   5.599   1.186   1.537 -1.5399 -1.6042  1.4191
 6891TIP3    H242089   5.503   1.228   1.646  1.1598  1.0802  2.8985
 6892TIP3   OH242090   1.324   5.485   5.557 -0.3645  0.0285 -0.2374
 6892TIP3    H142091   1.411   5.523   5.573 -0.0827 -1.4474  2.3803
 6892TIP3    H242092   1.263   5.554   5.585  0.0313  0.2478  0.1051
 6893TIP3   OH242093   0.933   1.137   2.989  0.4011 -0.4116  0.4675
 6893TIP3    H142094   0.993   1.068   2.958  1.3332  0.8922 -0.7468
 6893TIP3    H242095   0.984   1.217   2.984 -1.2021  0.6372  0.1878
 6894TIP3   OH242096   1.071   4.066   0.662 -0.1748 -0.0285  0.3491
 6894TIP3    H142097   1.127   4.124   0.712 -0.9632  1.5580 -0.5329
 6894TIP3    H242098   1.025   4.014   0.727 -0.1292  0.9818  1.2022
 6895TIP3   OH242099   5.545   4.790  15.304  0.4648  0.2292  0.0575
 6895TIP3    H142100   5.563   4.884  15.295 -0.0970  0.2459 -1.0113
 6895TIP3    H242101   5.630   4.748  15.292  0.5223  0.5410 -0.6738
 6896TIP3   OH242102   3.906   0.038   6.091  0.2655  0.4509 -0.2068
 6896TIP3    H142103   3.846  -0.027   6.129  2.2887 -1.5470 -0.1628
 6896TIP3    H242104   3.933   0.093   6.165 -0.9031  0.8812 -0.0912
 6897TIP3   OH242105   3.917   2.877   4.934 -0.0740 -0.2208  0.2756
 6897TIP3    H142106   3.843   2.818   4.923 -0.0157 -0.3422  0.5320
 6897TIP3    H242107   3.947   2.894   4.844 -1.2614  0.9242  0.0646
 6898TIP3   OH242108   6.667   2.693   4.451 -0.0519 -0.1332  0.2136
 6898TIP3    H142109   6.693   2.605   4.424 -1.3416 -0.5988  0.4089
 6898TIP3    H242110   6.572   2.695   4.435 -0.0717  1.1303  0.4539
 6899TIP3   OH242111   4.524   4.470  14.247  0.1196  0.4653  0.1153
 6899TIP3    H142112   4.527   4.433  14.335  0.9958 -2.7786 -1.1633
 6899TIP3    H242113   4.594   4.426  14.199 -1.1359  1.1875 -2.5755
 6900TIP3   OH242114   5.700   1.309   3.171 -0.2712 -0.1506 -0.3473
 6900TIP3    H142115   5.653   1.305   3.088 -2.8386  0.7492  0.9659
 6900TIP3    H242116   5.696   1.220   3.205 -0.1361 -0.2864 -0.6728
 6901TIP3   OH242117   1.054   6.243   6.461 -0.2544  0.1357 -0.0693
 6901TIP3    H142118   1.027   6.330   6.492  0.4740 -0.3978  2.2572
 6901TIP3    H242119   1.117   6.262   6.392  2.0386  1.6397  2.2170
 6902TIP3   OH242120   5.290   3.357  14.326 -0.0148 -0.0749 -0.0113
 6902TIP3    H142121   5.220   3.309  14.371  0.0504 -0.4812 -0.3416
 6902TIP3    H242122   5.263   3.449  14.331  1.3710  0.3168  3.4422
 6903TIP3   OH242123   2.014   2.101  15.437 -0.5228  0.5118  0.0940
 6903TIP3    H142124   2.035   2.096  15.344  1.7827 -2.1484  0.5953
 6903TIP3    H242125   1.954   2.028  15.452  2.3941 -1.8510  1.2466
 6904TIP3   OH242126   1.711   6.485  16.305 -0.1758 -0.1845  0.5930
 6904TIP3    H142127   1.676   6.552  16.246  0.1650 -0.1173  0.4635
 6904TIP3    H242128   1.703   6.522  16.392  0.5006  0.2449  0.4762
 6905TIP3   OH242129   3.490   3.965  11.743  0.1163  0.5497 -0.1785
 6905TIP3    H142130   3.425   3.899  11.717 -2.0429  1.1887  3.0105
 6905TIP3    H242131   3.454   4.048  11.712  0.8396  0.6517 -0.7695
 6906TIP3   OH242132   4.673   1.455  15.558  0.3488 -0.3752  0.4113
 6906TIP3    H142133   4.735   1.465  15.486  0.3335  0.3751  0.4957
 6906TIP3    H242134   4.717   1.396  15.619  0.4312 -0.8845 -0.1293
 6907TIP3   OH242135   1.218   3.731   5.580  0.2110  0.0106 -0.1347
 6907TIP3    H142136   1.190   3.707   5.668 -1.6309 -1.0723 -0.9653
 6907TIP3    H242137   1.149   3.789   5.547  1.0123  0.6280 -0.7889
 6908TIP3   OH242138   0.330   6.300  14.842  0.0592  0.4242  0.5869
 6908TIP3    H142139   0.244   6.299  14.885 -0.3344 -1.4669 -0.1592
 6908TIP3    H242140   0.368   6.215  14.861  2.3892  1.6711  1.9620
 6909TIP3   OH242141   1.078   3.692  11.874  1.0323  0.1172 -0.6887
 6909TIP3    H142142   1.058   3.742  11.953 -0.6142  1.4202 -1.8602
 6909TIP3    H242143   1.162   3.649  11.893  0.0292 -0.7572  2.2702
 6910TIP3   OH242144   5.505   3.010  13.157 -0.1347 -0.2005 -0.5419
 6910TIP3    H142145   5.478   3.059  13.079  0.6522  2.1327  0.5486
 6910TIP3    H242146   5.597   2.990  13.142  0.3003  1.1400  0.1469
 6911TIP3   OH242147   6.542   3.765   3.133  0.2083 -0.0739  0.4948
 6911TIP3    H142148   6.631   3.752   3.165 -0.0610  0.4397  1.4949
 6911TIP3    H242149   6.517   3.851   3.165 -0.9456 -0.5530  0.9273
 6912TIP3   OH242150   6.763   0.060  16.484  0.8017  0.0922 -0.1753
 6912TIP3    H142151   6.709   0.138  16.474  2.8716  2.0376  2.2769
 6912TIP3    H242152   6.701  -0.013  16.478 -1.7875  2.0612  0.6086
 6913TIP3   OH242153   5.038   0.492   5.227  0.1975  0.9639  0.4436
 6913TIP3    H142154   4.983   0.413   5.230 -2.4539  2.7065  1.7490
 6913TIP3    H242155   5.120   0.466   5.269 -0.1407 -1.3497 -0.1583
 6914TIP3   OH242156   2.012   3.597   0.514 -0.8007 -0.3106  0.6980
 6914TIP3    H142157   1.987   3.689   0.520 -0.6147 -0.2058  0.0136
 6914TIP3    H242158   2.049   3.589   0.426  0.4917 -0.7141  1.2496
 6915TIP3   OH242159   2.206   0.015  13.032  0.5209 -0.4325  0.2010
 6915TIP3    H142160   2.161  -0.067  13.053  0.6368 -0.4719  0.2950
 6915TIP3    H242161   2.144   0.062  12.976  0.8542 -1.0206 -0.6995
 6916TIP3   OH242162   5.640   5.412   2.162  0.4833 -0.2129 -0.4885
 6916TIP3    H142163   5.644   5.400   2.257  0.1734 -0.3827 -0.4939
 6916TIP3    H242164   5.651   5.506   2.149 -1.3715  0.0815 -0.1541
 6917TIP3   OH242165   0.635   6.702   1.547  0.0817 -0.3573 -0.6854
 6917TIP3    H142166   0.697   6.775   1.549  1.1836 -1.2740 -0.1747
 6917TIP3    H242167   0.572   6.725   1.479  0.3499  1.1090 -0.4576
 6918TIP3   OH242168   0.219   1.780   2.710 -0.4198 -0.3948 -0.5754
 6918TIP3    H142169   0.125   1.794   2.716 -0.4250 -0.8413  0.5798
 6918TIP3    H242170   0.255   1.865   2.687 -1.2020 -0.5021 -2.3877
 6919TIP3   OH242171   5.129   3.658   3.505  0.1549  0.1440  0.7510
 6919TIP3    H142172   5.197   3.637   3.441 -0.1566  0.3599  0.3448
 6919TIP3    H242173   5.047   3.647   3.457 -0.0556  1.1408  0.8713
 6920TIP3   OH242174   3.523   0.959  13.090  0.2744 -0.2513  0.1719
 6920TIP3    H142175   3.502   0.866  13.099 -0.5490 -0.0308  0.5142
 6920TIP3    H242176   3.549   0.987  13.178  4.1115 -0.9953 -0.5504
 6921TIP3   OH242177   3.968   0.650  14.219 -0.1774 -0.1222  0.1166
 6921TIP3    H142178   3.954   0.744  14.208 -1.0377 -0.0093  1.7963
 6921TIP3    H242179   3.913   0.626  14.295  0.7239 -1.7952  0.2932
 6922TIP3   OH242180   1.653   4.986   1.013 -0.8341  0.5068 -0.4585
 6922TIP3    H142181   1.643   4.986   0.918 -1.9145  3.2790 -0.4243
 6922TIP3    H242182   1.709   4.911   1.031  1.2654  1.1647 -3.5083
 6923TIP3   OH242183   0.667   0.497   4.993  0.1138  0.2610  0.4711
 6923TIP3    H142184   0.651   0.566   4.929  1.4735  0.0267 -0.1555
 6923TIP3    H242185   0.624   0.420   4.956 -0.0857  0.4029  0.4062
 6924TIP3   OH242186   0.218   0.795   0.407 -0.4744  0.7359 -0.2501
 6924TIP3    H142187   0.147   0.808   0.345  0.1366  0.1139 -1.1044
 6924TIP3    H242188   0.226   0.700   0.416  1.0422  0.7325 -1.1578
 6925TIP3   OH242189   1.992   1.894  16.255  0.3668  0.3200  0.1491
 6925TIP3    H142190   2.070   1.915  16.308  1.8016 -0.1559 -1.6591
 6925TIP3    H242191   1.988   1.798  16.256  0.1655  0.3240 -0.2426
 6926TIP3   OH242192   4.766   4.285   3.276  0.5166 -0.3221  0.0456
 6926TIP3    H142193   4.697   4.293   3.211  1.2816  2.0459 -0.5577
 6926TIP3    H242194   4.726   4.232   3.346 -1.5699  0.1739 -0.6858
 6927TIP3   OH242195   5.477   2.587   2.956 -0.2102 -0.5030  0.3906
 6927TIP3    H142196   5.432   2.529   2.895  0.2373 -0.7102  0.2537
 6927TIP3    H242197   5.441   2.564   3.042  0.0710 -1.0965  0.3591
 6928TIP3   OH242198   4.541   0.431   1.157  0.7223 -0.1040  0.2419
 6928TIP3    H142199   4.504   0.518   1.147 -0.5935 -0.8229 -1.8873
 6928TIP3    H242200   4.475   0.381   1.205 -1.3756 -1.3663 -3.4972
 6929TIP3   OH242201   4.997   1.202  17.037 -0.7472 -0.7185  0.0879
 6929TIP3    H142202   5.005   1.160  17.123 -1.2651 -1.3737 -0.1758
 6929TIP3    H242203   4.970   1.291  17.056  0.0662 -0.5766  0.6468
 6930TIP3   OH242204   3.272   0.219   0.321  0.0661 -0.3760 -0.2701
 6930TIP3    H142205   3.296   0.245   0.410  0.4246  0.8210 -0.7049
 6930TIP3    H242206   3.191   0.170   0.331 -0.4189  0.5789  0.6246
 6931TIP3   OH242207   1.463   1.107   2.894 -0.4945 -0.0009 -0.3651
 6931TIP3    H142208   1.481   1.142   2.807 -0.8314 -1.4590 -1.0460
 6931TIP3    H242209   1.517   1.029   2.901  1.1104  1.1725  1.5664
 6932TIP3   OH242210   2.094   3.097  11.937  0.3048  0.0096 -0.7197
 6932TIP3    H142211   2.038   3.173  11.920  0.0528  0.3427  1.3481
 6932TIP3    H242212   2.066   3.065  12.022  1.1466 -1.7652 -1.0672
 6933TIP3   OH242213   3.752   5.256   0.506  0.2307 -0.1872  0.2726
 6933TIP3    H142214   3.732   5.304   0.586 -0.3565  1.0917 -0.6040
 6933TIP3    H242215   3.844   5.276   0.488  0.5802 -1.0625  0.9845
 6934TIP3   OH242216   0.174   2.270  16.827  0.0231  0.4701 -0.5463
 6934TIP3    H142217   0.186   2.334  16.757  0.0326  1.4796  0.3550
 6934TIP3    H242218   0.123   2.199  16.786  2.7822 -0.5817 -2.4971
 6935TIP3   OH242219   3.750   4.104  16.054  0.3430 -0.1287  0.2524
 6935TIP3    H142220   3.831   4.154  16.048  0.6864 -0.4176  1.8975
 6935TIP3    H242221   3.681   4.168  16.037  0.8297  0.6415  1.1165
 6936TIP3   OH242222   2.344   3.774   1.795 -0.6459 -0.0671 -0.4257
 6936TIP3    H142223   2.332   3.740   1.884 -2.4445 -2.0988 -1.3420
 6936TIP3    H242224   2.412   3.719   1.757  0.4695  1.1136 -0.2159
 6937TIP3   OH242225   0.869   4.643  16.516 -0.0317  0.0602 -0.5686
 6937TIP3    H142226   0.866   4.639  16.421 -2.3409 -0.8996 -0.5185
 6937TIP3    H242227   0.842   4.732  16.538  1.0693  0.4672 -0.7788
 6938TIP3   OH242228   1.571   3.077   5.448 -0.3900 -0.0405  0.0051
 6938TIP3    H142229   1.637   3.060   5.381  1.5346  2.2023  1.1855
 6938TIP3    H242230   1.621   3.107   5.524 -2.5294 -1.7008  2.2327
 6939TIP3   OH242231   1.074   6.352  10.372 -0.1038 -0.3617 -0.2237
 6939TIP3    H142232   1.110   6.403  10.444  0.7563 -0.8503 -0.2982
 6939TIP3    H242233   1.138   6.362  10.301 -1.1352  0.4512 -1.0736
 6940TIP3   OH242234   6.147   6.699   0.795 -0.1665  0.4048 -0.2822
 6940TIP3    H142235   6.062   6.664   0.767  0.4758 -0.9662 -0.5930
 6940TIP3    H242236   6.175   6.753   0.721  0.0164 -0.5511 -0.9331
 6941TIP3   OH242237   2.953   4.815   5.818 -0.0504  0.0689 -0.4789
 6941TIP3    H142238   2.999   4.765   5.885 -0.4316 -0.3806 -0.5408
 6941TIP3    H242239   2.861   4.812   5.845 -0.3156 -0.7957 -1.4309
 6942TIP3   OH242240   2.766   5.340  11.781  0.0587 -0.0193 -0.3806
 6942TIP3    H142241   2.838   5.314  11.725 -0.3980 -0.6507 -0.6830
 6942TIP3    H242242   2.803   5.337  11.870  0.7939  1.0344 -0.6292
 6943TIP3   OH242243   2.619   4.057   0.197  0.4559  0.1331 -0.1354
 6943TIP3    H142244   2.613   4.133   0.139 -1.2212 -0.7518 -1.2186
 6943TIP3    H242245   2.671   3.993   0.149 -1.9142 -1.0535 -1.3445
 6944TIP3   OH242246   3.361   3.421   1.166 -0.3998  0.2424  0.3367
 6944TIP3    H142247   3.275   3.389   1.193 -0.6709 -0.5445 -1.3343
 6944TIP3    H242248   3.345   3.467   1.084  0.8872 -0.8533 -0.5904
 6945TIP3   OH242249   1.271   3.256   0.273 -0.8377 -0.1912  0.3036
 6945TIP3    H142250   1.328   3.201   0.218  0.0134  0.0689  0.9087
 6945TIP3    H242251   1.306   3.344   0.262 -0.1876 -0.2353  1.8315
 6946TIP3   OH242252   6.223   4.795  16.406 -0.0147  0.8056 -0.6362
 6946TIP3    H142253   6.292   4.844  16.450  1.1331  0.3150 -1.8318
 6946TIP3    H242254   6.171   4.862  16.361  0.2797  1.0873 -0.5602
 6947TIP3   OH242255   0.894   0.320   4.899  0.3185 -0.1105 -0.4015
 6947TIP3    H142256   0.984   0.302   4.871  0.1810 -2.5918  0.5172
 6947TIP3    H242257   0.903   0.343   4.992  0.0468  0.1047 -0.4294
 6948TIP3   OH242258   0.892   0.555  14.136  0.6398 -0.1830 -0.1181
 6948TIP3    H142259   0.939   0.639  14.134  0.5345 -0.0450  1.5532
 6948TIP3    H242260   0.832   0.564  14.210  0.5505 -1.6915  0.0111
 6949TIP3   OH242261   4.201   6.020  12.901  0.4751 -0.0568 -0.1004
 6949TIP3    H142262   4.284   5.971  12.905  1.0537  0.9160  3.1770
 6949TIP3    H242263   4.134   5.955  12.920  0.7012 -0.4618 -0.6635
 6950TIP3   OH242264   2.205   1.661  15.449  0.2033  0.1169  0.2220
 6950TIP3    H142265   2.270   1.641  15.516  0.0185 -1.4207 -0.0211
 6950TIP3    H242266   2.223   1.752  15.425  1.9211 -0.0938  0.5395
 6951TIP3   OH242267   6.554   4.906  16.439  0.0954  0.2018  0.1706
 6951TIP3    H142268   6.616   4.936  16.507 -0.4445  2.0952 -0.0988
 6951TIP3    H242269   6.518   4.825  16.474 -0.5442  1.3579  2.4430
 6952TIP3   OH242270   3.645   0.996   2.027  0.7216 -0.6453  0.8330
 6952TIP3    H142271   3.736   0.970   2.042  1.0571  0.0147  0.0559
 6952TIP3    H242272   3.638   1.005   1.932 -0.0642 -0.3442  0.9095
 6953TIP3   OH242273   2.833   1.388  17.012  0.8677  0.4022 -0.0055
 6953TIP3    H142274   2.766   1.324  17.036  1.2817 -0.3758 -0.8627
 6953TIP3    H242275   2.883   1.402  17.093 -0.1776  0.8427  0.5914
 6954TIP3   OH242276   5.318   3.825   4.221  0.4801 -0.2128  0.5242
 6954TIP3    H142277   5.355   3.875   4.294 -0.4309 -0.7618  1.3984
 6954TIP3    H242278   5.251   3.769   4.262 -2.9686  2.2977 -1.1699
 6955TIP3   OH242279   4.682   5.068   3.178  0.5147  0.0128 -0.2326
 6955TIP3    H142280   4.711   5.070   3.269 -1.9496  1.1283  0.6056
 6955TIP3    H242281   4.726   5.143   3.138 -0.9653  1.6293  0.9900
 6956TIP3   OH242282   2.801   2.394   1.677  0.2269  0.3666 -0.3783
 6956TIP3    H142283   2.720   2.405   1.628 -0.8522  1.5148  1.5605
 6956TIP3    H242284   2.791   2.450   1.754  1.8669 -1.2602  1.1189
 6957TIP3   OH242285   4.845   0.425  12.689  0.4077 -0.1931  0.8295
 6957TIP3    H142286   4.838   0.483  12.613 -0.4250 -2.1209 -0.6479
 6957TIP3    H242287   4.934   0.392  12.686  0.9582  1.1246  1.8101
 6958TIP3   OH242288   2.705   3.865   1.463 -0.1155  0.2992 -0.2861
 6958TIP3    H142289   2.686   3.782   1.417  1.6212 -0.4261  0.2459
 6958TIP3    H242290   2.785   3.847   1.512  0.9776  2.6628 -1.0807
 6959TIP3   OH242291   6.013   1.523  10.860  0.0772  0.4922  0.6166
 6959TIP3    H142292   6.089   1.570  10.893  1.2247  0.9385 -2.2945
 6959TIP3    H242293   6.047   1.438  10.832 -0.7097  0.2782  0.2575
 6960TIP3   OH242294   2.028   6.395   0.957 -0.5491 -0.2062 -0.2909
 6960TIP3    H142295   1.933   6.394   0.941 -0.5717 -0.9900 -0.1697
 6960TIP3    H242296   2.056   6.481   0.929 -1.8147  1.3611  2.7669
 6961TIP3   OH242297   6.097   1.584  12.938  0.1568 -0.2039  0.1011
 6961TIP3    H142298   6.085   1.678  12.948  0.4742 -0.1725  0.1818
 6961TIP3    H242299   6.037   1.560  12.867 -1.1966 -0.2303  1.2177
 6962TIP3   OH242300   1.313   4.491  10.915  0.2522  0.2986 -0.2977
 6962TIP3    H142301   1.372   4.460  10.846  0.4680  1.6427 -0.7341
 6962TIP3    H242302   1.228   4.500  10.872 -0.7250 -2.9517  0.6346
 6963TIP3   OH242303   5.794   3.559   1.913 -0.2706  0.1203  0.0211
 6963TIP3    H142304   5.792   3.539   1.819 -0.7281  0.5381 -0.0641
 6963TIP3    H242305   5.887   3.560   1.935 -0.1961 -1.7596 -0.0341
 6964TIP3   OH242306   1.322   1.975   4.960 -0.6927  0.3973  0.0781
 6964TIP3    H142307   1.343   2.068   4.964 -2.8515  0.9452 -0.3795
 6964TIP3    H242308   1.234   1.968   4.997  0.7030 -1.9806  3.4981
 6965TIP3   OH242309   6.752   0.322  12.219  0.4087 -0.1612  0.1246
 6965TIP3    H142310   6.724   0.336  12.129 -0.3374  1.5860  0.5786
 6965TIP3    H242311   6.842   0.352  12.221 -0.0899  1.4251  0.2912
 6966TIP3   OH242312   2.261   0.255   4.644  0.2343  0.1972 -0.2102
 6966TIP3    H142313   2.265   0.291   4.556 -0.3473 -0.9818 -0.7312
 6966TIP3    H242314   2.198   0.184   4.639  3.1199 -2.6192  0.1214
 6967TIP3   OH242315   4.113   1.227   2.068  0.5089  0.1083  0.4013
 6967TIP3    H142316   4.069   1.301   2.109 -2.3622 -0.8908 -0.6030
 6967TIP3    H242317   4.141   1.172   2.142 -1.4744  0.0133  1.1428
 6968TIP3   OH242318   3.551   4.010  16.968 -0.2953 -0.3408  0.5276
 6968TIP3    H142319   3.462   4.017  17.001 -0.1444  0.0990  0.8548
 6968TIP3    H242320   3.605   4.052  17.036  0.2910 -1.6606  0.9168
 6969TIP3   OH242321   6.464   6.096  14.679  0.0414 -0.5266 -0.4410
 6969TIP3    H142322   6.464   6.192  14.671  1.5914 -0.4518  0.1299
 6969TIP3    H242323   6.455   6.080  14.773  1.0007 -0.8906 -0.4004
 6970TIP3   OH242324   5.568   4.627  14.356 -0.2298  0.2023  0.0858
 6970TIP3    H142325   5.573   4.609  14.450 -1.0265  0.9519  0.2870
 6970TIP3    H242326   5.614   4.710  14.345  1.6560 -0.8620 -0.5232
 6971TIP3   OH242327   2.118   3.695  16.820  0.1296 -0.6364 -0.4443
 6971TIP3    H142328   2.091   3.649  16.899 -1.7730  2.3363  0.8371
 6971TIP3    H242329   2.171   3.768  16.851 -0.7406  0.6666 -1.8309
 6972TIP3   OH242330   6.295   1.686   3.687  0.6014 -1.0747 -0.0879
 6972TIP3    H142331   6.302   1.594   3.662  0.4209 -1.2053  0.3309
 6972TIP3    H242332   6.332   1.734   3.613 -0.9664 -1.3866 -1.1204
 6973TIP3   OH242333   0.148   1.090  12.340 -0.5590  0.2576  0.5003
 6973TIP3    H142334   0.221   1.032  12.365 -1.3924 -1.0703 -0.0380
 6973TIP3    H242335   0.070   1.042  12.368 -1.4975 -0.6754 -3.2754
 6974TIP3   OH242336   6.228   2.330  13.610 -0.4401  0.7256  0.4600
 6974TIP3    H142337   6.315   2.319  13.571 -0.6828 -1.0289  0.3469
 6974TIP3    H242338   6.242   2.313  13.703 -0.7607 -0.3125  0.3360
 6975TIP3   OH242339   0.967   4.778   4.297 -0.3842 -0.1948 -0.1623
 6975TIP3    H142340   1.015   4.852   4.259 -1.1494  0.8713  0.8770
 6975TIP3    H242341   1.029   4.705   4.292  0.2243  0.3814 -1.6359
 6976TIP3   OH242342   2.344   4.549  12.066 -0.0450  0.1755  0.1498
 6976TIP3    H142343   2.308   4.618  12.011 -0.4773 -0.5198 -0.4617
 6976TIP3    H242344   2.340   4.470  12.012  1.3541 -0.1480  0.4815
 6977TIP3   OH242345   2.092   5.032   5.023  0.1667  0.6568  0.0198
 6977TIP3    H142346   2.100   4.960   5.087 -0.3242  0.4684 -0.1312
 6977TIP3    H242347   2.137   4.999   4.945  0.6608  0.8404  0.2179
 6978TIP3   OH242348   2.077   3.193   0.105  0.2289 -0.2326 -0.4030
 6978TIP3    H142349   2.039   3.183   0.017  0.7656 -0.0587 -0.6593
 6978TIP3    H242350   2.035   3.125   0.157 -0.1152 -0.3215 -0.7905
 6979TIP3   OH242351   4.474   1.702  11.628  0.4722  0.1449 -0.6513
 6979TIP3    H142352   4.399   1.717  11.687  0.8832  1.4358 -0.4388
 6979TIP3    H242353   4.451   1.747  11.547  1.5366  1.6751 -0.1522
 6980TIP3   OH242354   2.769   4.405   4.742 -0.3575  0.1523  0.3331
 6980TIP3    H142355   2.712   4.480   4.727  0.2742  0.4997 -0.3989
 6980TIP3    H242356   2.805   4.419   4.829 -1.0305  0.1648  0.6150
 6981TIP3   OH242357   1.106   5.167  15.184  0.4167  0.1550 -0.3016
 6981TIP3    H142358   1.033   5.209  15.139 -0.6497 -0.7934  0.4821
 6981TIP3    H242359   1.146   5.236  15.237 -1.4058  0.2115  1.0923
 6982TIP3   OH242360   5.025   2.143   0.906 -0.2205 -0.1008  0.2935
 6982TIP3    H142361   4.987   2.206   0.845 -0.5231 -0.2143  0.3622
 6982TIP3    H242362   5.100   2.188   0.943 -0.5026  0.2622  0.4289
 6983TIP3   OH242363   4.793   3.803  17.195 -0.0014 -0.8199  0.4599
 6983TIP3    H142364   4.782   3.761  17.280  0.3096 -0.0360  0.9036
 6983TIP3    H242365   4.732   3.877  17.197  1.0309  0.0581  0.5923
 6984TIP3   OH242366   6.755   1.874  12.673  0.6407  0.1533  0.3442
 6984TIP3    H142367   6.703   1.940  12.720  0.5624  0.9678 -0.8332
 6984TIP3    H242368   6.698   1.847  12.601 -0.3757 -3.1272  2.1744
 6985TIP3   OH242369   2.177   0.646   2.782 -0.4360 -0.0555 -0.0322
 6985TIP3    H142370   2.151   0.729   2.742  1.9482  1.1911  0.8402
 6985TIP3    H242371   2.187   0.667   2.875  0.8215 -1.1604  0.0959
 6986TIP3   OH242372   5.533   2.773  12.160  0.2906  0.0106 -0.3856
 6986TIP3    H142373   5.486   2.853  12.136 -0.4545 -0.1779  0.4408
 6986TIP3    H242374   5.475   2.702  12.133  0.6300 -0.2445 -0.4492
 6987TIP3   OH242375   0.155   6.142  11.318 -0.7468 -0.2233 -0.3054
 6987TIP3    H142376   0.144   6.047  11.324  0.5156 -0.3502  0.4548
 6987TIP3    H242377   0.209   6.164  11.394 -1.2762  1.1529 -0.3061
 6988TIP3   OH242378   3.884   3.761  10.354 -0.7108 -0.1319  0.2298
 6988TIP3    H142379   3.857   3.671  10.336 -1.7436  0.0107  1.0032
 6988TIP3    H242380   3.946   3.781  10.284 -1.1415 -1.1388 -0.4703
 6989TIP3   OH242381   3.559   5.770   3.287  0.2353  0.1987 -0.0874
 6989TIP3    H142382   3.516   5.707   3.229  1.3525  0.6687 -1.4984
 6989TIP3    H242383   3.583   5.720   3.364  1.2950 -1.1871 -1.2706
 6990TIP3   OH242384   3.574   4.313   2.038  0.0546  0.4080  0.3035
 6990TIP3    H142385   3.490   4.314   1.993 -0.0846  2.1740  0.5355
 6990TIP3    H242386   3.623   4.385   1.999  1.2762 -0.2517  0.5496
 6991TIP3   OH242387   1.437   6.280  14.853 -0.5347 -0.1288  0.8043
 6991TIP3    H142388   1.424   6.246  14.764 -0.0392  1.5573  0.0628
 6991TIP3    H242389   1.509   6.342  14.845  0.5034 -1.0212  2.6927
 6992TIP3   OH242390   0.820   1.438  12.357  0.4595 -0.2359  0.1482
 6992TIP3    H142391   0.876   1.512  12.378 -1.4125  1.6059 -1.0240
 6992TIP3    H242392   0.822   1.432  12.261 -2.8250  1.2624 -0.1610
 6993TIP3   OH242393   2.032   1.597  14.946 -0.2503  0.0009  0.2797
 6993TIP3    H142394   1.993   1.603  14.859  0.9487 -1.7910 -0.4330
 6993TIP3    H242395   2.108   1.656  14.943 -0.1285 -0.1657  0.0622
 6994TIP3   OH242396   1.064   0.609  11.941 -0.7722  0.1700 -0.3183
 6994TIP3    H142397   1.151   0.619  11.979 -0.0482  0.5536 -1.9685
 6994TIP3    H242398   1.027   0.697  11.940 -1.0942  0.0454  0.1599
 6995TIP3   OH242399   1.888   1.253  14.905 -1.1578  0.8228  0.3463
 6995TIP3    H142400   1.930   1.286  14.985 -1.2024  0.3086  0.5865
 6995TIP3    H242401   1.802   1.222  14.935  0.2097 -2.9955  0.9106
 6996TIP3   OH242402   4.934   6.695   2.290 -0.0395 -0.4176  0.0151
 6996TIP3    H142403   4.961   6.786   2.275  0.8368 -0.7418 -0.4243
 6996TIP3    H242404   4.856   6.683   2.235 -0.1305  0.0473  0.0381
 6997TIP3   OH242405   5.550   5.911  11.419  0.3477 -0.2937 -0.3917
 6997TIP3    H142406   5.619   5.976  11.428 -0.8950  1.5814 -3.1342
 6997TIP3    H242407   5.583   5.850  11.352 -0.0582 -0.2415 -0.6430
 6998TIP3   OH242408   4.078   1.731  11.941  0.4347 -0.0918  0.3505
 6998TIP3    H142409   4.059   1.729  12.035 -0.1210 -1.7251  0.2297
 6998TIP3    H242410   3.997   1.763  11.901  0.1509 -0.8450  0.3189
 6999TIP3   OH242411   2.274   0.908  17.267 -0.2601  0.0024 -0.0808
 6999TIP3    H142412   2.335   0.838  17.289  1.5570  1.5705  0.1013
 6999TIP3    H242413   2.257   0.895  17.173  0.4451 -0.4164 -0.1622
 7000TIP3   OH242414   1.238   0.462   5.034 -0.4820 -0.1711 -0.3545
 7000TIP3    H142415   1.210   0.375   5.062 -0.6852 -0.3853 -1.2108
 7000TIP3    H242416   1.183   0.483   4.959 -1.3611  1.2627  0.6315
 7001TIP3   OH242417   6.722   4.170  12.665  0.1240  0.1580 -0.2367
 7001TIP3    H142418   6.738   4.076  12.666  1.4181  0.2810  2.7370
 7001TIP3    H242419   6.629   4.180  12.683  0.3482 -0.5966  1.4909
 7002TIP3   OH242420   5.755   1.231   0.013  0.0383  0.2703  0.2333
 7002TIP3    H142421   5.843   1.245  -0.024  0.1147  0.6548  0.5538
 7002TIP3    H242422   5.716   1.318   0.014 -1.6695 -0.3009 -3.1262
 7003TIP3   OH242423   4.496   1.502   3.549 -0.2960  0.1995  0.1961
 7003TIP3    H142424   4.425   1.499   3.614 -0.0649  0.9423  0.4881
 7003TIP3    H242425   4.501   1.593   3.523 -1.0383 -0.2318 -1.6312
 7004TIP3   OH242426   5.994   6.039  17.197  0.3704  0.0457 -0.1047
 7004TIP3    H142427   5.976   6.077  17.283  0.5955  1.0276 -0.4722
 7004TIP3    H242428   6.002   5.945  17.213  1.0574  0.2757  1.0473
 7005TIP3   OH242429   3.875   0.266   2.859  0.0591  0.4659 -0.2817
 7005TIP3    H142430   3.958   0.219   2.863  0.0225  0.2252 -1.8855
 7005TIP3    H242431   3.863   0.286   2.767 -1.3139  1.1548  0.0228
 7006TIP3   OH242432   5.573   0.593  12.733 -0.2924 -0.7637 -0.4600
 7006TIP3    H142433   5.650   0.537  12.726  0.4610 -0.6054  4.0208
 7006TIP3    H242434   5.502   0.532  12.753 -0.5995 -0.5670 -0.9348
 7007TIP3   OH242435   5.238   3.687  14.735 -0.2725  0.4666 -0.0024
 7007TIP3    H142436   5.295   3.635  14.678 -1.1743  0.0834 -0.5821
 7007TIP3    H242437   5.210   3.761  14.681 -0.6985  0.3931  0.1094
 7008TIP3   OH242438   3.454   3.977  15.805 -0.2962 -0.1775 -0.5063
 7008TIP3    H142439   3.545   3.986  15.778 -0.5179  1.6016 -0.7533
 7008TIP3    H242440   3.423   4.067  15.816 -1.2101 -0.7640  2.4247
 7009TIP3   OH242441   3.772   0.482   0.267 -0.1353 -0.0615 -0.0663
 7009TIP3    H142442   3.753   0.575   0.277  0.1197  0.3322 -2.6566
 7009TIP3    H242443   3.868   0.477   0.267 -0.1469 -0.2993 -0.1466
 7010TIP3   OH242444   0.623   5.334  10.517  0.5875 -0.1386 -0.4282
 7010TIP3    H142445   0.601   5.330  10.611 -1.9847  1.5697 -0.8636
 7010TIP3    H242446   0.716   5.313  10.514  1.2143  1.4830  2.7141
 7011TIP3   OH242447   3.240   2.898   5.449 -0.0769 -0.5619 -0.0987
 7011TIP3    H142448   3.209   2.918   5.360  1.7097 -1.1344 -0.8835
 7011TIP3    H242449   3.216   2.975   5.500  0.9009  0.8091 -1.6122
 7012TIP3   OH242450   3.512   5.381   1.194  0.3463  0.5621  0.4902
 7012TIP3    H142451   3.518   5.476   1.182 -1.2446  0.4941 -1.3023
 7012TIP3    H242452   3.555   5.345   1.116 -0.3281 -0.1546  0.4386
 7013TIP3   OH242453   4.541   3.502  12.425  0.1366  0.2713 -0.0975
 7013TIP3    H142454   4.546   3.597  12.420 -1.0143  0.3980  0.7427
 7013TIP3    H242455   4.485   3.485  12.500  1.0256 -1.0924  0.2989
 7014TIP3   OH242456   0.009   3.267  11.620 -0.5481  0.0996  0.1953
 7014TIP3    H142457   0.079   3.227  11.569 -0.0002 -0.1111  1.0862
 7014TIP3    H242458  -0.018   3.343  11.568  1.0371  0.7733  0.2737
 7015TIP3   OH242459   0.795   1.889  12.399 -0.0259 -0.4925 -0.0854
 7015TIP3    H142460   0.835   1.804  12.382 -0.2457 -0.4493 -0.8446
 7015TIP3    H242461   0.851   1.951  12.352 -0.0850 -0.2591  0.1516
 7016TIP3   OH242462   0.833   2.839  14.389 -0.4582 -0.4931  0.2690
 7016TIP3    H142463   0.916   2.859  14.431 -0.3559  1.6971 -0.8590
 7016TIP3    H242464   0.857   2.819  14.298 -0.9573 -2.2934  0.4981
 7017TIP3   OH242465   0.430   4.392  16.488  0.2431 -0.3610 -0.1856
 7017TIP3    H142466   0.492   4.437  16.546  0.5994 -0.3253 -0.5967
 7017TIP3    H242467   0.392   4.462  16.435  0.8069 -0.5375 -0.8344
 7018TIP3   OH242468   2.847   2.140   2.066 -0.1602  0.4736  0.8768
 7018TIP3    H142469   2.804   2.096   1.993 -0.0710  1.2966  0.3097
 7018TIP3    H242470   2.797   2.221   2.079  1.0150  1.3211  0.3707
 7019TIP3   OH242471   0.001   1.776   0.608  0.3889 -0.2383  0.0941
 7019TIP3    H142472  -0.033   1.833   0.676 -0.5601 -0.3113 -0.2941
 7019TIP3    H242473   0.086   1.812   0.585  0.2832  0.3556  0.6331
 7020TIP3   OH242474   0.765   4.241  11.928 -0.8889 -0.2994  0.3901
 7020TIP3    H142475   0.777   4.155  11.888  0.6171  1.1409 -2.5897
 7020TIP3    H242476   0.688   4.278  11.885  0.2374  0.9465 -0.6490
 7021TIP3   OH242477   6.170   3.553  14.889  0.4709 -0.4497 -0.0095
 7021TIP3    H142478   6.176   3.469  14.845 -0.2665 -0.6216  0.2201
 7021TIP3    H242479   6.262   3.579  14.902  0.7099 -1.3463  0.1777
 7022TIP3   OH242480   0.827   6.349  10.452  0.4151  0.4274 -0.9142
 7022TIP3    H142481   0.904   6.317  10.405  1.0258  0.3973  0.0867
 7022TIP3    H242482   0.802   6.276  10.509 -1.2986 -0.1513 -2.3193
 7023TIP3   OH242483   4.287   5.199   5.575 -0.4128 -0.2454 -0.2957
 7023TIP3    H142484   4.311   5.128   5.515  1.8900 -0.3191  0.6260
 7023TIP3    H242485   4.307   5.164   5.662  1.4324  1.7009  0.1479
 7024TIP3   OH242486   2.660   5.306   1.742  0.0534  0.5048  0.2636
 7024TIP3    H142487   2.698   5.330   1.827 -0.0377 -2.2820  1.2185
 7024TIP3    H242488   2.565   5.313   1.755  0.0607  0.9822  0.0739
 7025TIP3   OH242489   1.987   1.687  16.744  0.3639  0.2881  0.2442
 7025TIP3    H142490   1.991   1.645  16.658 -0.3702  0.8891 -0.0889
 7025TIP3    H242491   1.998   1.615  16.806 -0.2217 -0.3136 -0.3311
 7026TIP3   OH242492   2.095   1.216   5.171 -0.5448 -0.3993  0.5691
 7026TIP3    H142493   2.115   1.135   5.124 -1.7996 -0.7958  0.6823
 7026TIP3    H242494   2.180   1.246   5.204  0.4247 -0.1194 -1.8946
 7027TIP3   OH242495   6.067   6.278   2.890  0.3871  0.0342 -0.6293
 7027TIP3    H142496   6.123   6.301   2.965  0.6121 -0.4408 -0.6466
 7027TIP3    H242497   6.128   6.258   2.820  0.1771  0.2572 -0.8773
 7028TIP3   OH242498   5.600   0.450   1.838 -0.1872 -0.1083  0.5765
 7028TIP3    H142499   5.536   0.518   1.818 -1.0446 -1.1063 -0.2193
 7028TIP3    H242500   5.685   0.490   1.821 -0.7493 -0.1843 -3.2893
 7029TIP3   OH242501   1.879   1.905   2.385 -0.5420  0.5648 -0.5819
 7029TIP3    H142502   1.852   1.984   2.338 -0.7758  0.6288 -0.3427
 7029TIP3    H242503   1.949   1.868   2.331 -1.0822  0.4135 -1.1917
 7030TIP3   OH242504   0.382   1.572  12.041 -0.7618  0.5858 -0.2298
 7030TIP3    H142505   0.301   1.540  12.081 -1.4633  1.5198 -0.8893
 7030TIP3    H242506   0.428   1.618  12.112 -1.5614  1.4283 -0.2489
 7031TIP3   OH242507   5.105   3.723  13.200 -0.4248  0.3129  0.4347
 7031TIP3    H142508   5.043   3.714  13.273  0.2132 -0.1029  0.9328
 7031TIP3    H242509   5.053   3.761  13.130 -0.7589  1.9204  1.4967
 7032TIP3   OH242510   6.407   0.689   4.782  0.4060  0.2284  0.0854
 7032TIP3    H142511   6.485   0.716   4.831  0.9093 -0.9395 -0.0475
 7032TIP3    H242512   6.441   0.629   4.715 -0.3318  1.3467 -1.3566
 7033TIP3   OH242513   4.783   6.358  14.754 -0.3434  0.2339  0.7463
 7033TIP3    H142514   4.742   6.363  14.840  0.6966 -1.2128  1.3555
 7033TIP3    H242515   4.825   6.443  14.743 -0.5112  0.4436  1.6452
 7034TIP3   OH242516   4.526   6.658   4.148 -0.7239  0.4145  0.5404
 7034TIP3    H142517   4.612   6.636   4.184 -0.5886  1.1355  0.6623
 7034TIP3    H242518   4.518   6.602   4.071 -0.8206 -0.8135  1.4152
 7035TIP3   OH242519   6.236   1.037   0.029  0.2699 -0.2180 -0.0282
 7035TIP3    H142520   6.302   1.012   0.092  0.1219 -3.1153 -0.8511
 7035TIP3    H242521   6.282   1.092  -0.034  0.8925  1.0304  1.4657
 7036TIP3   OH242522   4.019   2.003   0.718  0.3812 -0.0282 -0.0200
 7036TIP3    H142523   4.024   1.912   0.746 -1.0159 -0.7695 -1.9638
 7036TIP3    H242524   4.082   2.009   0.645 -0.4579  0.1884 -0.7441
 7037TIP3   OH242525   6.290   6.494   1.275 -0.4786  0.0833  0.5207
 7037TIP3    H142526   6.306   6.499   1.181  3.5826  0.7818  1.0548
 7037TIP3    H242527   6.262   6.404   1.290 -0.6779 -0.1938 -1.2974
 7038TIP3   OH242528   1.440   2.241  12.177 -0.4401 -0.0478  0.2293
 7038TIP3    H142529   1.426   2.210  12.087  1.1011 -0.3928  0.0815
 7038TIP3    H242530   1.535   2.247  12.186 -0.5732  2.7806  0.8972
 7039TIP3   OH242531   3.085   6.041  11.311 -0.2508  0.2685  0.2500
 7039TIP3    H142532   3.067   6.125  11.354 -0.2162  0.6567 -0.4605
 7039TIP3    H242533   3.059   6.056  11.220 -0.8684 -0.7112  0.2550
 7040TIP3   OH242534   5.534   6.755  12.685  0.5967  0.1829  0.1127
 7040TIP3    H142535   5.484   6.837  12.682 -0.8183 -0.6409  0.2536
 7040TIP3    H242536   5.591   6.759  12.608  2.0608  2.1805  1.1856
 7041TIP3   OH242537   2.707   6.278  16.172  0.3653  0.1865 -0.5047
 7041TIP3    H142538   2.690   6.350  16.111  0.6116  0.0064 -0.7875
 7041TIP3    H242539   2.748   6.210  16.119  1.0173  0.2084 -0.0418
 7042TIP3   OH242540   0.490   3.362   3.048 -0.2731  0.6266 -0.1350
 7042TIP3    H142541   0.412   3.362   2.992 -0.4175  0.3736  0.0637
 7042TIP3    H242542   0.468   3.422   3.119  0.2429  1.6259 -0.8005
 7043TIP3   OH242543   4.812   6.600   4.227  0.2276  0.0873  0.1850
 7043TIP3    H142544   4.852   6.517   4.254 -0.1433  0.0900  0.7536
 7043TIP3    H242545   4.877   6.640   4.170  0.9214 -0.0421  0.8657
 7044TIP3   OH242546   6.420   0.730  14.117  0.2563  0.3465 -0.2309
 7044TIP3    H142547   6.380   0.809  14.079 -1.2570 -0.0766  0.3711
 7044TIP3    H242548   6.514   0.746  14.114  0.0781  1.2342 -2.1283
 7045TIP3   OH242549   3.130   0.345  15.278  0.6637 -0.2679 -0.1843
 7045TIP3    H142550   3.108   0.392  15.197  1.1879 -0.4677 -0.4512
 7045TIP3    H242551   3.111   0.407  15.348  0.3213 -0.0479 -0.4686
 7046TIP3   OH242552   5.635   5.115   4.004 -0.2973  0.2235  0.1291
 7046TIP3    H142553   5.711   5.061   3.982 -1.4819 -1.7511  0.7145
 7046TIP3    H242554   5.662   5.163   4.083  0.8604  0.7468 -0.5513
 7047TIP3   OH242555   0.635   2.137  14.092  0.1765  0.6370  0.1010
 7047TIP3    H142556   0.543   2.137  14.120  0.1760 -1.7499  0.3067
 7047TIP3    H242557   0.679   2.194  14.156 -1.1393  1.8965 -0.0563
 7048TIP3   OH242558   5.552   5.556  16.451  0.3003 -0.2797  0.2685
 7048TIP3    H142559   5.560   5.551  16.356  0.5346  0.2682  0.2552
 7048TIP3    H242560   5.458   5.571  16.466  0.3285  0.0631  0.1030
 7049TIP3   OH242561   4.206   6.102   0.953  0.1705 -0.1780 -0.0753
 7049TIP3    H142562   4.253   6.024   0.982 -0.4425 -0.0195  1.4032
 7049TIP3    H242563   4.167   6.138   1.032 -1.1922  0.5379 -1.0215
 7050TIP3   OH242564   5.730   3.110   4.525 -0.0760  0.1649 -0.4487
 7050TIP3    H142565   5.680   3.137   4.448 -0.6424  1.8996  0.4695
 7050TIP3    H242566   5.821   3.119   4.499 -0.2653  0.5710 -0.9828
 7051TIP3   OH242567   3.957   4.658   1.317 -0.4633  0.7826 -0.2708
 7051TIP3    H142568   3.978   4.752   1.317 -1.4877  1.0282  0.3139
 7051TIP3    H242569   3.862   4.655   1.311 -0.4336 -0.2300 -0.3661
 7052TIP3   OH242570   2.279   3.442   0.388  0.3019  0.0438 -0.0543
 7052TIP3    H142571   2.217   3.469   0.320  1.0302  0.5684 -0.5247
 7052TIP3    H242572   2.291   3.348   0.375 -0.2405 -0.0241 -0.0819
 7053TIP3   OH242573   4.771   6.362   0.093  0.9089 -0.4928 -0.2781
 7053TIP3    H142574   4.678   6.387   0.101  0.7206 -0.7547 -1.4991
 7053TIP3    H242575   4.775   6.276   0.134  0.8099 -0.1015  0.5922
 7054TIP3   OH242576   0.457   2.626   5.831  0.3672 -0.6979  0.3332
 7054TIP3    H142577   0.370   2.629   5.790 -0.2225 -0.3505  1.5769
 7054TIP3    H242578   0.453   2.691   5.901  2.0953  0.2962 -0.4323
 7055TIP3   OH242579   6.047   5.941   1.440 -0.1917  0.0169  0.7264
 7055TIP3    H142580   6.127   5.939   1.491 -0.6440  1.3904  1.5364
 7055TIP3    H242581   5.978   5.916   1.502 -0.4562 -0.7608  0.1420
 7056TIP3   OH242582   0.614   2.370   5.675  0.1309  0.5592  0.3249
 7056TIP3    H142583   0.698   2.324   5.681 -0.5124 -0.8746 -0.9997
 7056TIP3    H242584   0.637   2.463   5.676  1.5336  0.2336  2.3003
 7057TIP3   OH242585   0.604   0.409   5.750  0.1540  0.1025  0.2795
 7057TIP3    H142586   0.623   0.327   5.704 -0.1590  0.8110 -1.1677
 7057TIP3    H242587   0.646   0.476   5.698 -0.0716  0.9319  1.1384
 7058TIP3   OH242588   4.983   5.757  14.859 -0.2635  0.3881  0.9456
 7058TIP3    H142589   5.002   5.688  14.923 -1.8944  0.4323  1.5239
 7058TIP3    H242590   5.040   5.737  14.785 -0.3675 -1.3347  1.2888
 7059TIP3   OH242591   5.416   4.935   0.576 -0.2390  0.2418  0.0912
 7059TIP3    H142592   5.410   4.911   0.484 -0.1923 -1.5031  0.5036
 7059TIP3    H242593   5.508   4.959   0.589 -0.5343  1.8609 -0.5923
 7060TIP3   OH242594   2.085   5.793  17.036  0.2132 -0.4935  0.2884
 7060TIP3    H142595   2.168   5.830  17.067  0.2331 -2.0541  2.3174
 7060TIP3    H242596   2.076   5.711  17.085 -1.6183 -1.3038 -1.2903
 7061TIP3   OH242597   0.307   3.956   2.798 -0.0741 -0.2391  0.7406
 7061TIP3    H142598   0.283   3.933   2.888  0.3636  1.1585  1.2404
 7061TIP3    H242599   0.347   4.043   2.806 -0.0260 -0.1053 -0.8082
 7062TIP3   OH242600   6.074   1.244   1.763 -0.2353 -0.0407  0.6686
 7062TIP3    H142601   5.993   1.284   1.730  0.3857 -0.3218 -1.3043
 7062TIP3    H242602   6.136   1.317   1.769  0.8616 -0.5141 -2.8186
 7063TIP3   OH242603   2.372   4.216  14.416  0.3189 -0.4894  0.1322
 7063TIP3    H142604   2.455   4.263  14.421  0.1876 -0.2482  0.0219
 7063TIP3    H242605   2.332   4.228  14.502 -0.7789  1.5498 -0.5868
 7064TIP3   OH242606   5.705   0.149  15.824  0.2542 -0.0063  0.6743
 7064TIP3    H142607   5.769   0.199  15.773  0.6901  0.6069  1.7966
 7064TIP3    H242608   5.707   0.061  15.785  1.1235  0.2469  0.1178
 7065TIP3   OH242609   3.886   2.151   3.549 -0.2206  0.0710  0.6142
 7065TIP3    H142610   3.936   2.113   3.621 -0.2866 -0.5242  0.3521
 7065TIP3    H242611   3.895   2.088   3.477  0.2140  0.8721 -0.0450
 7066TIP3   OH242612   0.967   3.351   0.017  0.4686 -0.2842  0.7290
 7066TIP3    H142613   0.882   3.306   0.012 -0.2088  0.6823  2.5631
 7066TIP3    H242614   1.028   3.293  -0.029 -1.3066 -0.6584 -1.2986
 7067TIP3   OH242615   2.880   5.418   2.250  0.0548  0.2547 -0.6194
 7067TIP3    H142616   2.945   5.487   2.234  0.5461  0.5008  2.0003
 7067TIP3    H242617   2.925   5.337   2.226  0.8377  0.5487 -0.1863
 7068TIP3   OH242618   0.396   4.684  14.238 -0.3103 -0.5137 -0.4024
 7068TIP3    H142619   0.347   4.764  14.220 -0.7284 -0.7225 -0.1889
 7068TIP3    H242620   0.394   4.635  14.155  0.9641  0.2286 -0.9015
 7069TIP3   OH242621   3.652   2.952   4.411 -0.1076  0.3334  0.5021
 7069TIP3    H142622   3.651   2.893   4.487 -1.8760 -1.4737 -0.8017
 7069TIP3    H242623   3.601   3.028   4.439  0.3254  0.2633  1.5153
 7070TIP3   OH242624   1.115   0.640  11.004  0.0906  0.0267  0.3181
 7070TIP3    H142625   1.172   0.584  10.951  0.4081  1.2016 -0.6436
 7070TIP3    H242626   1.115   0.724  10.957 -1.5085  0.3974  0.9431
 7071TIP3   OH242627   1.133   4.238   0.042  0.2209  0.2260 -0.3109
 7071TIP3    H142628   1.161   4.187   0.118 -0.6170  1.4428  0.8537
 7071TIP3    H242629   1.061   4.187   0.005 -0.5348  0.4774  0.7732
 7072TIP3   OH242630   3.154   0.807  11.161  0.0600 -0.2634 -0.3241
 7072TIP3    H142631   3.144   0.801  11.256 -1.2999 -1.0878 -0.4901
 7072TIP3    H242632   3.248   0.797  11.146  0.2076 -0.8724  0.8843
 7073TIP3   OH242633   3.755   6.680   0.927 -0.1428  0.3505  0.7051
 7073TIP3    H142634   3.672   6.690   0.880  0.4473  3.4724  0.0753
 7073TIP3    H242635   3.731   6.635   1.008 -2.7497  2.2886  1.1547
 7074TIP3   OH242636   6.359   6.232   1.834 -0.1054 -0.2309 -0.1010
 7074TIP3    H142637   6.363   6.172   1.760  0.1349 -0.7527  0.3318
 7074TIP3    H242638   6.267   6.258   1.838 -0.0189  0.2366 -0.9186
 7075TIP3   OH242639   1.705   6.452   5.509  0.0583 -0.8453  0.0981
 7075TIP3    H142640   1.738   6.366   5.481 -1.0451 -0.7565 -1.6436
 7075TIP3    H242641   1.690   6.499   5.427  0.1554  0.8420  1.0152
 7076TIP3   OH242642   1.831   3.383   4.419  0.1326 -0.0289 -0.2462
 7076TIP3    H142643   1.773   3.345   4.484 -0.6975  0.9879 -0.3725
 7076TIP3    H242644   1.822   3.325   4.342 -1.2422  0.4898 -0.4957
 7077TIP3   OH242645   0.697   5.746   3.277  0.3908  0.3173  0.3962
 7077TIP3    H142646   0.662   5.660   3.300  2.9666 -0.4288  1.8882
 7077TIP3    H242647   0.717   5.787   3.361 -1.1003  2.5892 -0.2680
 7078TIP3   OH242648   6.696   3.343   0.881  0.0741 -0.1868 -0.3161
 7078TIP3    H142649   6.773   3.329   0.936  0.4028  0.5380 -0.5764
 7078TIP3    H242650   6.665   3.255   0.860 -0.4519 -0.5134  1.5624
 7079TIP3   OH242651   2.523   0.664  14.807 -0.6928  0.5835 -0.3187
 7079TIP3    H142652   2.434   0.698  14.800 -0.4350  2.3866  3.0524
 7079TIP3    H242653   2.516   0.590  14.868  0.2616  1.7754  1.3038
 7080TIP3   OH242654   2.460   2.166   0.744  0.0799  0.1177  0.2724
 7080TIP3    H142655   2.454   2.244   0.687 -1.6970  1.1641  1.7774
 7080TIP3    H242656   2.495   2.199   0.826 -2.2248 -0.2560  1.4962
 7081TIP3   OH242657   6.292   0.701  11.228  0.4884  0.1857  0.2235
 7081TIP3    H142658   6.247   0.634  11.279 -0.4049 -0.3514 -1.2138
 7081TIP3    H242659   6.222   0.747  11.181  1.3739 -0.8572 -2.2999
 7082TIP3   OH242660   5.998   2.058  12.677 -0.2404  0.3627  0.1060
 7082TIP3    H142661   5.932   1.991  12.663  0.6596 -0.2888 -1.2396
 7082TIP3    H242662   5.952   2.141  12.661 -0.8431 -0.0571 -0.3731
 7083TIP3   OH242663   6.603   5.561   1.509 -1.0930 -0.1339 -0.3016
 7083TIP3    H142664   6.527   5.619   1.521 -0.4640  0.4959  0.7845
 7083TIP3    H242665   6.637   5.548   1.597 -0.0298 -0.5479 -0.7594
 7084TIP3   OH242666   4.056   5.080  11.721 -0.0552 -0.0375  0.1617
 7084TIP3    H142667   3.992   5.016  11.688  0.3972 -0.5550  0.2675
 7084TIP3    H242668   4.028   5.098  11.810 -1.2885  1.3702 -0.4607
 7085TIP3   OH242669   3.811   4.214   0.423 -0.3659  0.1492  0.2433
 7085TIP3    H142670   3.832   4.208   0.516  0.3340 -1.3926  0.0254
 7085TIP3    H242671   3.734   4.158   0.413 -0.9163  0.9311  0.0132
 7086TIP3   OH242672   1.617   5.453   4.449  0.3955  0.1593  0.7739
 7086TIP3    H142673   1.637   5.539   4.486  0.8154  0.1982  0.4628
 7086TIP3    H242674   1.679   5.443   4.377  0.2110 -0.3177  0.6791
 7087TIP3   OH242675   4.108   2.813  11.661  0.1335 -0.2308  0.1720
 7087TIP3    H142676   4.095   2.871  11.586  1.2465 -0.1342  0.0440
 7087TIP3    H242677   4.039   2.838  11.723 -2.0698 -1.6176 -1.5591
 7088TIP3   OH242678   5.219   3.278   2.791 -0.5660  0.0149  0.2824
 7088TIP3    H142679   5.188   3.329   2.717 -0.0452 -0.1867 -0.0816
 7088TIP3    H242680   5.278   3.213   2.752 -0.0206  0.1237  0.9051
 7089TIP3   OH242681   0.945   6.019   1.560 -0.2626 -0.6361 -0.5127
 7089TIP3    H142682   0.889   6.091   1.531 -0.5842 -0.7903 -0.2754
 7089TIP3    H242683   1.028   6.034   1.514  0.0642  0.5329  0.4041
 7090TIP3   OH242684   4.739   1.094  15.120  0.1037 -0.3271 -0.3255
 7090TIP3    H142685   4.673   1.098  15.190  0.6054  0.0410  0.1365
 7090TIP3    H242686   4.704   1.031  15.057 -0.4041 -0.5885  0.2109
 7091TIP3   OH242687   4.976   2.962   5.346 -0.2884  0.7145 -0.2698
 7091TIP3    H142688   5.007   3.015   5.272  1.1318 -1.1052 -1.0822
 7091TIP3    H242689   4.899   3.008   5.378 -0.5696  1.9356 -2.4724
 7092TIP3   OH242690   5.153   6.405  13.794  0.5299  0.1525 -0.7461
 7092TIP3    H142691   5.079   6.461  13.819 -0.1145 -1.8843  2.3778
 7092TIP3    H242692   5.112   6.326  13.758  1.1417 -0.8103  0.6037
 7093TIP3   OH242693   4.219   1.183  11.280  0.0041 -0.2466 -0.2299
 7093TIP3    H142694   4.227   1.276  11.298 -0.7825  0.1268 -1.6401
 7093TIP3    H242695   4.287   1.142  11.333  2.2247  1.3981 -1.6732
 7094TIP3   OH242696   6.291   5.024   4.848  0.5764 -0.8241  0.2339
 7094TIP3    H142697   6.200   5.002   4.864  0.0611 -1.7011 -3.1159
 7094TIP3    H242698   6.306   4.999   4.757  4.4328 -1.5549  0.8842
 7095TIP3   OH242699   3.475   0.702  12.497 -0.0777  0.0548 -0.7404
 7095TIP3    H142700   3.521   0.623  12.525 -1.9662 -0.7736  0.2339
 7095TIP3    H242701   3.499   0.768  12.561  0.2460 -0.1857 -0.6110
 7096TIP3   OH242702   4.861   5.606  14.629  0.2690 -0.6231  0.1209
 7096TIP3    H142703   4.880   5.540  14.696 -2.3471 -1.5450  0.0848
 7096TIP3    H242704   4.844   5.686  14.679 -1.7561 -1.3239  0.6497
 7097TIP3   OH242705   6.452   1.688  17.203 -0.5208 -0.4034 -0.1995
 7097TIP3    H142706   6.526   1.630  17.188 -0.2747 -0.0485 -0.3638
 7097TIP3    H242707   6.464   1.759  17.140 -0.8500 -0.2049 -0.0397
 7098TIP3   OH242708   3.550   6.756   2.136  0.8129  0.2095  0.0626
 7098TIP3    H142709   3.506   6.743   2.052 -0.1661 -0.7462  0.7002
 7098TIP3    H242710   3.480   6.783   2.195  1.3055 -0.1658  0.8211
 7099TIP3   OH242711   5.982   4.733   3.954 -0.2048  0.4434 -0.3613
 7099TIP3    H142712   6.055   4.761   3.899 -0.4908  1.8904 -0.0443
 7099TIP3    H242713   6.023   4.708   4.037 -0.0772  1.7153 -0.0157
 7100TIP3   OH242714   5.154   5.778   5.261 -0.6268 -0.3938  0.6533
 7100TIP3    H142715   5.062   5.763   5.283 -0.7907  0.7432  0.8038
 7100TIP3    H242716   5.162   5.873   5.255 -0.0065 -0.5150 -1.7146
 7101TIP3   OH242717   1.341   0.250  15.785 -1.0569 -0.1788  0.2882
 7101TIP3    H142718   1.292   0.327  15.756 -1.0662  0.1519  1.1280
 7101TIP3    H242719   1.322   0.244  15.879  1.7667  0.9688  1.0601
 7102TIP3   OH242720   1.481   4.557   1.236  0.3285  0.7158  0.4185
 7102TIP3    H142721   1.444   4.472   1.258 -0.2277  0.5621 -1.0008
 7102TIP3    H242722   1.522   4.544   1.150  0.2215  1.8842  0.1737
 7103TIP3   OH242723   1.035   3.246  14.929  0.2861 -0.0233 -0.4686
 7103TIP3    H142724   1.033   3.219  14.837 -0.8301 -0.3586 -0.3543
 7103TIP3    H242725   0.950   3.221  14.963  0.8768 -0.3694  0.7973
 7104TIP3   OH242726   5.664   0.865  14.379  0.5615 -0.5224 -0.2324
 7104TIP3    H142727   5.734   0.803  14.398 -0.8712 -2.0391  0.3539
 7104TIP3    H242728   5.589   0.833  14.429 -0.6632  0.8425 -1.0949
 7105TIP3   OH242729   4.061   4.557  15.387  0.1477  0.2011 -0.3304
 7105TIP3    H142730   4.080   4.631  15.329  1.0325  0.8170  0.7060
 7105TIP3    H242731   4.126   4.491  15.363  0.7969  0.6242  0.2495
 7106TIP3   OH242732   0.717   1.418   2.866  0.1058  0.0501  0.2984
 7106TIP3    H142733   0.684   1.351   2.807  0.9898 -0.6520  0.5877
 7106TIP3    H242734   0.660   1.413   2.943  1.3605 -1.7477  1.1633
 7107TIP3   OH242735   2.608   0.115  12.178  1.0119 -0.2899 -0.0561
 7107TIP3    H142736   2.696   0.152  12.187  0.8084  0.0928  0.3772
 7107TIP3    H242737   2.604   0.046  12.245  0.8683 -0.0848  0.1472
 7108TIP3   OH242738   2.803   3.681  13.247  0.0290 -0.1729  0.3245
 7108TIP3    H142739   2.739   3.629  13.296  1.6586 -2.1080  0.5615
 7108TIP3    H242740   2.884   3.671  13.297  0.8541  0.9728 -0.7470
 7109TIP3   OH242741   0.074   0.736   0.198 -0.3179 -0.6174 -0.1396
 7109TIP3    H142742   0.051   0.804   0.134 -2.5377 -0.8168  0.3676
 7109TIP3    H242743  -0.000   0.676   0.196  0.4937 -1.7113  1.1906
 7110TIP3   OH242744   3.033   5.778   2.852 -0.4263  0.9917 -0.0424
 7110TIP3    H142745   2.980   5.767   2.931  1.6320 -0.1358  1.2875
 7110TIP3    H242746   3.088   5.854   2.870 -0.0412  0.8124 -0.4489
 7111TIP3   OH242747   2.674   0.940  16.556 -0.1273  0.3630  0.4516
 7111TIP3    H142748   2.679   0.868  16.620 -1.5534  0.5594  0.8347
 7111TIP3    H242749   2.675   1.019  16.610  3.0994  0.7868 -0.0474
 7112TIP3   OH242750   1.186   0.453  14.037 -0.1166  0.0347  0.2871
 7112TIP3    H142751   1.102   0.492  14.013  0.4692  0.0729 -1.8770
 7112TIP3    H242752   1.168   0.408  14.120 -2.9307 -2.0268 -1.2494
 7113TIP3   OH242753   5.309   0.081   5.401  0.9339 -0.0191  0.3652
 7113TIP3    H142754   5.229   0.103   5.352  1.7692  2.0860 -0.1810
 7113TIP3    H242755   5.321  -0.012   5.386 -1.2939 -0.3572  0.2848
 7114TIP3   OH242756   1.926   6.687  16.365 -0.1256  0.5930 -0.3819
 7114TIP3    H142757   1.982   6.644  16.429 -0.3829  1.4800  0.4620
 7114TIP3    H242758   1.866   6.618  16.336 -0.6094  0.3832  1.0245
 7115TIP3   OH242759   5.172   6.332   2.300  0.5690 -0.3179  0.1177
 7115TIP3    H142760   5.148   6.333   2.393 -0.0023 -1.3104  0.0007
 7115TIP3    H242761   5.123   6.405   2.262  0.2044 -0.3822  0.4591
 7116TIP3   OH242762   5.729   1.700   0.031  0.6013 -0.4676 -0.4521
 7116TIP3    H142763   5.728   1.791   0.000  1.5342 -0.3111 -0.0441
 7116TIP3    H242764   5.736   1.648  -0.049  0.0654 -0.1834 -0.6875
 7117TIP3   OH242765   3.817   1.771  13.775  0.1371 -0.0195  0.0897
 7117TIP3    H142766   3.778   1.851  13.740  1.1161  0.4068 -0.0664
 7117TIP3    H242767   3.743   1.714  13.792 -0.4682  0.2878 -1.3658
 7118TIP3   OH242768   1.451   5.193   2.877  0.0090 -0.2122 -0.0447
 7118TIP3    H142769   1.500   5.150   2.808  1.2435 -1.4613  1.5373
 7118TIP3    H242770   1.467   5.287   2.863  0.1807 -0.4295 -1.4408
 7119TIP3   OH242771   4.776   2.844   3.353  0.0933 -0.4591 -0.1830
 7119TIP3    H142772   4.697   2.861   3.302  0.1397 -0.9834 -0.4385
 7119TIP3    H242773   4.755   2.875   3.441 -0.0465  0.3036 -0.4741
 7120TIP3   OH242774   1.410   0.688  13.512 -0.0215  0.2063  0.1979
 7120TIP3    H142775   1.370   0.769  13.545 -0.8294 -0.5514  1.1499
 7120TIP3    H242776   1.353   0.618  13.545 -0.8116 -0.6568 -2.7091
 7121TIP3   OH242777   5.395   6.468  16.088  0.0603  0.1183  0.0175
 7121TIP3    H142778   5.454   6.433  16.023  0.9653 -0.7648  1.2719
 7121TIP3    H242779   5.415   6.420  16.168 -2.7354 -0.6293  0.3841
 7122TIP3   OH242780   5.779   1.505  16.200 -0.6334  0.4415  0.7783
 7122TIP3    H142781   5.736   1.420  16.203 -0.9908  0.6189  0.7056
 7122TIP3    H242782   5.734   1.557  16.267 -0.8499  0.7757  0.3756
 7123TIP3   OH242783   6.020   5.307  13.630  0.4289 -0.1491 -0.1142
 7123TIP3    H142784   5.974   5.239  13.581  0.7131 -0.4666  0.0553
 7123TIP3    H242785   6.110   5.277  13.635  1.3132  1.6847 -2.6962
 7124TIP3   OH242786   1.070   5.668  14.564  0.5591 -0.3144  0.0175
 7124TIP3    H142787   1.027   5.633  14.486  2.8256 -1.7454 -0.6904
 7124TIP3    H242788   1.091   5.759  14.542  1.6523 -0.8592 -1.2893
 7125TIP3   OH242789   2.294   4.756  12.723  0.2581  0.2851 -0.5645
 7125TIP3    H142790   2.362   4.759  12.656 -0.1504  0.4429 -0.9812
 7125TIP3    H242791   2.341   4.735  12.804  1.1443  2.5900 -0.3996
 7126TIP3   OH242792   5.995   2.431  16.515 -0.5296  0.8078  0.3256
 7126TIP3    H142793   5.926   2.366  16.530  0.2305 -0.1221 -0.1213
 7126TIP3    H242794   6.034   2.445  16.601 -0.4131  0.3344  0.3539
 7127TIP3   OH242795   6.665   0.546  11.398 -0.0349  0.6322 -0.3537
 7127TIP3    H142796   6.644   0.602  11.322  0.8674  0.2361 -0.9124
 7127TIP3    H242797   6.748   0.504  11.374 -0.8785 -1.2699 -0.1354
 7128TIP3   OH242798   3.066   3.916  12.626  0.2862 -0.0881  0.4849
 7128TIP3    H142799   3.014   3.847  12.668  1.1446 -0.8960  0.2506
 7128TIP3    H242800   3.001   3.977  12.591 -0.4977 -0.9095  0.4809
 7129TIP3   OH242801   1.201   3.261  13.174  0.9293  0.7113  0.0271
 7129TIP3    H142802   1.214   3.218  13.090  0.9852 -1.4388  1.0596
 7129TIP3    H242803   1.289   3.273  13.209  0.8466 -1.1754  1.0266
 7130TIP3   OH242804   0.052   1.316  15.573  0.1535 -0.1550 -0.5851
 7130TIP3    H142805   0.006   1.311  15.489 -0.5539  0.9139 -0.2887
 7130TIP3    H242806  -0.015   1.296  15.638  0.2279  0.8524 -0.1786
 7131TIP3   OH242807   2.868   4.953   5.389 -0.5682 -0.1141 -0.4570
 7131TIP3    H142808   2.776   4.942   5.362 -0.4493  0.2926 -1.0437
 7131TIP3    H242809   2.865   4.946   5.484 -0.7124 -3.7180 -0.5946
 7132TIP3   OH242810   6.692   3.681   2.754 -0.4968 -0.3435 -0.2338
 7132TIP3    H142811   6.651   3.732   2.683 -0.8394 -0.0625  0.1579
 7132TIP3    H242812   6.657   3.593   2.743 -1.1371 -0.1287  0.0329
 7133TIP3   OH242813   1.835   4.419   5.929  0.1008  0.2597  0.0179
 7133TIP3    H142814   1.806   4.414   6.021 -0.7615 -1.1471 -0.2860
 7133TIP3    H242815   1.821   4.330   5.895  3.6091 -0.2027 -0.5741
 7134TIP3   OH242816   3.831   4.901   2.403  0.0908  0.0905  0.2677
 7134TIP3    H142817   3.799   4.974   2.456  0.4769  0.1027  0.4871
 7134TIP3    H242818   3.927   4.906   2.411  0.1495  0.0625 -0.3845
 7135TIP3   OH242819   2.853   6.730  14.724 -0.0908  0.3271  0.4553
 7135TIP3    H142820   2.899   6.696  14.801  1.0570  0.7197 -0.0208
 7135TIP3    H242821   2.915   6.716  14.652 -1.1843 -0.1282 -0.4190
 7136TIP3   OH242822   3.558   1.538  17.295  0.5152  0.0780  1.1385
 7136TIP3    H142823   3.493   1.561  17.228 -0.1038 -1.6249  1.1086
 7136TIP3    H242824   3.568   1.618  17.346 -0.4277  0.8546  0.1776
 7137TIP3   OH242825   5.396   2.593   0.588  0.1361 -0.3676  0.0143
 7137TIP3    H142826   5.356   2.654   0.527  0.1166  1.0724  1.4092
 7137TIP3    H242827   5.395   2.509   0.542 -0.9636  0.4120 -1.4664
 7138TIP3   OH242828   4.800   3.576  15.008 -0.1097 -0.4572  0.0790
 7138TIP3    H142829   4.889   3.593  14.979 -0.3658  2.8174  0.8001
 7138TIP3    H242830   4.810   3.530  15.091  1.0065  1.0508  0.8189
 7139TIP3   OH242831   4.484   1.714   1.653 -0.4953 -0.5673  0.6869
 7139TIP3    H142832   4.407   1.710   1.597  0.7225  1.4480 -1.3324
 7139TIP3    H242833   4.543   1.647   1.617 -0.3797 -0.4463  0.6487
 7140TIP3   OH242834   5.750   4.169   2.153  0.0810  0.1432  0.3739
 7140TIP3    H142835   5.740   4.140   2.062 -0.3177  0.2683  0.3765
 7140TIP3    H242836   5.809   4.244   2.147 -0.8713  0.8851  0.0767
 7141TIP3   OH242837   4.080   0.559   3.426  0.6592 -0.0157  0.2242
 7141TIP3    H142838   4.096   0.602   3.509  1.4232 -0.0525  0.1039
 7141TIP3    H242839   4.026   0.620   3.377 -3.3968 -1.6315  2.2200
 7142TIP3   OH242840   0.343   4.222  16.735 -0.3275 -0.2869  0.0416
 7142TIP3    H142841   0.287   4.286  16.780  0.3090 -0.6454  1.3925
 7142TIP3    H242842   0.355   4.259  16.647 -1.8611  0.2874  0.0267
 7143TIP3   OH242843   2.629   2.223  15.295 -0.6629 -0.1600 -0.2678
 7143TIP3    H142844   2.718   2.196  15.321 -1.0537 -0.2944  1.0296
 7143TIP3    H242845   2.603   2.161  15.228  0.9822  1.1024 -2.2038
 7144TIP3   OH242846   1.807   4.571  14.218  0.4749 -0.2296 -0.5578
 7144TIP3    H142847   1.823   4.493  14.271  0.4371  0.0328 -0.1561
 7144TIP3    H242848   1.840   4.643  14.271 -2.4884  0.4201  0.6355
 7145TIP3   OH242849   4.563   0.461   0.846 -0.3349  0.1028 -0.0896
 7145TIP3    H142850   4.631   0.395   0.827  0.2177  0.6787 -0.1577
 7145TIP3    H242851   4.497   0.414   0.897  0.7803 -0.1504  1.1901
 7146TIP3   OH242852   2.447   1.826  12.534  0.0718  0.7819  0.5884
 7146TIP3    H142853   2.477   1.795  12.619  0.5656 -1.3199 -0.2738
 7146TIP3    H242854   2.451   1.748  12.478  1.9319  2.5290 -1.9527
 7147TIP3   OH242855   4.970   1.771  14.744  0.4235 -0.2637  0.1079
 7147TIP3    H142856   4.906   1.842  14.756  1.2246  0.9219 -2.1068
 7147TIP3    H242857   4.918   1.698  14.710 -0.0814 -0.0234  0.3548
 7148TIP3   OH242858   0.821   3.911   2.471 -0.4811  0.1026 -0.1850
 7148TIP3    H142859   0.839   3.867   2.387  0.1061  0.0977 -0.0616
 7148TIP3    H242860   0.764   3.850   2.517 -1.2004  0.3168 -0.7671
 7149TIP3   OH242861   2.150   4.929   5.669  0.3597 -0.7080 -0.1300
 7149TIP3    H142862   2.084   4.931   5.739  0.8673 -1.1794  0.3752
 7149TIP3    H242863   2.104   4.961   5.591  0.3062  1.7837  0.8401
 7150TIP3   OH242864   1.867   0.777   1.101  0.2348  0.0909  0.2161
 7150TIP3    H142865   1.775   0.753   1.108 -0.5165  2.2257 -1.4434
 7150TIP3    H242866   1.899   0.729   1.025 -0.6512  2.3355 -1.6775
 7151TIP3   OH242867   5.499   0.911   0.622  0.4108 -0.4267  0.3465
 7151TIP3    H142868   5.515   0.877   0.710 -0.5114 -1.4008  0.1553
 7151TIP3    H242869   5.510   0.835   0.564 -0.8610 -0.2339 -0.1799
 7152TIP3   OH242870   1.164   3.151   4.304 -0.0369 -0.2764  0.3006
 7152TIP3    H142871   1.199   3.159   4.393 -0.2381  0.7323  0.3071
 7152TIP3    H242872   1.213   3.216   4.254 -1.1016  0.3550  0.0559
 7153TIP3   OH242873   1.104   6.741  13.342 -0.2269  0.5162  0.3914
 7153TIP3    H142874   1.095   6.765  13.250  3.2607 -1.5672 -0.6960
 7153TIP3    H242875   1.050   6.662  13.351  0.0733  0.2437 -0.1292
 7154TIP3   OH242876   2.814   6.125   1.338  0.4099 -0.3167 -0.0104
 7154TIP3    H142877   2.781   6.202   1.384  1.8786  1.2961 -1.5071
 7154TIP3    H242878   2.749   6.109   1.269 -0.9952 -1.7956  1.5683
 7155TIP3   OH242879   3.309   2.285  15.017  0.1704  0.0599 -0.3324
 7155TIP3    H142880   3.232   2.233  15.040 -0.2028  1.1135  0.9598
 7155TIP3    H242881   3.360   2.229  14.959 -1.8557 -0.4467 -1.7157
 7156TIP3   OH242882   5.849   5.591   5.815  0.0887 -0.1386  0.2952
 7156TIP3    H142883   5.767   5.612   5.858 -0.7009 -0.6226 -0.9159
 7156TIP3    H242884   5.869   5.502   5.845  0.0575 -0.1028  0.4232
 7157TIP3   OH242885   6.329   0.121  13.429 -0.3924  0.5497  0.6872
 7157TIP3    H142886   6.379   0.200  13.409 -0.2513  0.1205 -0.7390
 7157TIP3    H242887   6.383   0.074  13.492 -0.2858  1.3785  1.2357
 7158TIP3   OH242888   0.545   2.028  13.550 -0.1126 -0.1281  0.5414
 7158TIP3    H142889   0.512   1.986  13.630  1.7170  1.5425  2.2920
 7158TIP3    H242890   0.546   2.121  13.571  0.6494  0.3299 -1.3538
 7159TIP3   OH242891   4.962   0.253   1.557  0.9987  1.4413 -0.1440
 7159TIP3    H142892   5.014   0.213   1.488 -0.1538  0.7872 -0.6601
 7159TIP3    H242893   4.893   0.300   1.511 -0.0176  0.6728  0.5485
 7160TIP3   OH242894   4.152   2.685  15.180  0.6171 -0.4553 -0.5148
 7160TIP3    H142895   4.243   2.664  15.197  0.4662 -3.0039 -2.2704
 7160TIP3    H242896   4.112   2.601  15.156 -2.2018  0.5655  0.1873
 7161TIP3   OH242897   6.121   0.743  15.904 -0.1456  0.6018  0.2149
 7161TIP3    H142898   6.195   0.764  15.961  1.1575  1.7716 -1.8044
 7161TIP3    H242899   6.063   0.818  15.911 -0.8711 -0.0376  1.3128
 7162TIP3   OH242900   0.751   1.372   0.877 -0.1993  0.1585  0.0594
 7162TIP3    H142901   0.820   1.437   0.890  1.0678 -1.1133 -0.0424
 7162TIP3    H242902   0.796   1.298   0.836 -1.6021 -0.7771  0.1517
 7163TIP3   OH242903   4.206   3.889  14.259 -0.1240 -0.3451 -0.7622
 7163TIP3    H142904   4.111   3.879  14.269 -0.2416  1.2242 -0.0543
 7163TIP3    H242905   4.240   3.801  14.270 -1.3591 -0.6716  0.8909
 7164TIP3   OH242906   6.329   6.031   0.868 -0.0429  0.7262 -0.5253
 7164TIP3    H142907   6.394   6.060   0.932 -1.6302  2.0972  0.5548
 7164TIP3    H242908   6.316   5.938   0.889  1.1235  0.5688 -0.4008
 7165TIP3   OH242909   4.692   0.765   3.821 -0.1401  0.2908 -0.3330
 7165TIP3    H142910   4.700   0.787   3.914  2.3432  2.3479 -0.9008
 7165TIP3    H242911   4.694   0.670   3.818 -1.2599  0.1502  1.7431
 7166TIP3   OH242912   0.585   0.300   4.558  0.0790 -0.2991 -0.4039
 7166TIP3    H142913   0.559   0.231   4.619  0.9687 -1.1718 -0.9721
 7166TIP3    H242914   0.674   0.324   4.584 -0.8671  2.0322  0.9692
 7167TIP3   OH242915   2.990   3.963  15.521  0.3853 -0.3067 -0.2878
 7167TIP3    H142916   3.022   3.889  15.470  2.9297  0.7035 -0.3066
 7167TIP3    H242917   2.988   3.931  15.611 -1.7029 -1.3266 -0.6366
 7168TIP3   OH242918   5.979   0.250  16.144  0.2175  0.5084 -0.0534
 7168TIP3    H142919   6.036   0.314  16.101 -1.3640  0.3810 -2.5082
 7168TIP3    H242920   6.029   0.169  16.142  0.2360  0.5317 -1.6371
 7169TIP3   OH242921   3.334   4.127  10.746 -0.3755  0.3632 -0.0525
 7169TIP3    H142922   3.267   4.059  10.747 -1.3817  1.3187  0.4035
 7169TIP3    H242923   3.416   4.081  10.766 -0.7536 -0.9380 -1.3498
 7170TIP3   OH242924   3.462   5.319  11.303  0.2400 -0.2784  0.1889
 7170TIP3    H142925   3.403   5.257  11.347  0.8056 -0.6047  0.5006
 7170TIP3    H242926   3.541   5.269  11.286  0.8780  0.4716  0.8394
 7171TIP3   OH242927   0.119   6.509   4.601 -0.0408  0.1873 -0.4741
 7171TIP3    H142928   0.080   6.441   4.656 -1.4242  0.6569 -0.8402
 7171TIP3    H242929   0.127   6.467   4.515 -0.0575  0.2002 -0.4821
 7172TIP3   OH242930   5.262   0.804   0.196 -0.4597  0.2072  0.5149
 7172TIP3    H142931   5.232   0.714   0.187 -2.6582  0.7826  1.3659
 7172TIP3    H242932   5.267   0.836   0.105 -2.6255  0.0655  0.2878
 7173TIP3   OH242933   6.350   3.243   5.625  0.2808 -0.6416 -0.5329
 7173TIP3    H142934   6.341   3.219   5.718  0.6402  1.1615  0.0075
 7173TIP3    H242935   6.261   3.260   5.596  0.3140  0.7179  0.0712
 7174TIP3   OH242936   0.583   1.861  16.882 -0.8291  0.1515 -0.1398
 7174TIP3    H142937   0.568   1.955  16.882  0.7271  0.5680 -3.4695
 7174TIP3    H242938   0.678   1.852  16.888 -0.7770 -1.0316 -1.8508
 7175TIP3   OH242939   5.208   4.498   3.147 -0.0759 -0.1953 -0.4537
 7175TIP3    H142940   5.186   4.587   3.119  1.2528 -0.1208 -1.3536
 7175TIP3    H242941   5.128   4.465   3.189 -1.0342  0.9142 -1.3531
 7176TIP3   OH242942   2.094   0.086  10.889 -0.1959  0.7831  0.8516
 7176TIP3    H142943   2.025   0.019  10.886  0.9087 -0.4013  1.1328
 7176TIP3    H242944   2.073   0.145  10.816 -1.4234  0.3751  0.8523
 7177TIP3   OH242945   5.154   2.828  13.193  0.4289 -0.1020 -0.3497
 7177TIP3    H142946   5.179   2.913  13.158  2.8445 -1.1346 -1.3420
 7177TIP3    H242947   5.091   2.793  13.130 -1.2716  1.2273  0.5159
 7178TIP3   OH242948   3.888   4.210  14.129 -0.7837  0.2584 -0.0359
 7178TIP3    H142949   3.970   4.222  14.177 -0.4156  0.3097 -0.6648
 7178TIP3    H242950   3.878   4.291  14.079  0.4355 -0.9551 -2.3918
 7179TIP3   OH242951   3.745   1.708   2.698  0.1639 -0.2246 -0.5179
 7179TIP3    H142952   3.819   1.715   2.759  0.0121 -0.3708 -0.3149
 7179TIP3    H242953   3.712   1.798   2.691 -0.2648 -0.3194  0.1845
 7180TIP3   OH242954   0.626   2.061   5.093  0.0164  0.1049  0.5218
 7180TIP3    H142955   0.597   2.004   5.165  1.8805 -2.0721 -0.3587
 7180TIP3    H242956   0.605   2.012   5.014 -0.4090  1.7086 -0.4028
 7181TIP3   OH242957   6.374   0.794   1.243  0.2889 -0.4979 -0.4263
 7181TIP3    H142958   6.441   0.756   1.187  0.4600 -0.7895 -0.0323
 7181TIP3    H242959   6.414   0.873   1.279  1.2805 -1.7787  1.5211
 7182TIP3   OH242960   1.703   5.186  12.433  0.6370  0.5885  0.1920
 7182TIP3    H142961   1.661   5.111  12.476  0.4865  1.1411  1.0194
 7182TIP3    H242962   1.681   5.175  12.340 -1.8689  1.1807  0.6430
 7183TIP3   OH242963   3.473   5.224  16.258  0.0555 -0.2601 -0.0697
 7183TIP3    H142964   3.559   5.223  16.217 -0.1313  0.5851 -0.5010
 7183TIP3    H242965   3.475   5.299  16.318 -0.4624 -0.0660 -0.2829
 7184TIP3   OH242966   2.303   6.685  10.720 -0.3664  0.1777  1.1319
 7184TIP3    H142967   2.264   6.752  10.776  2.3119  1.4674  1.6089
 7184TIP3    H242968   2.362   6.637  10.779  2.0643  1.1841 -0.3346
 7185TIP3   OH242969   1.112   1.828   6.287 -0.1110  0.1051  0.1875
 7185TIP3    H142970   1.044   1.879   6.331 -0.6929  0.3909 -0.9774
 7185TIP3    H242971   1.077   1.814   6.199  1.2190  0.0020 -0.3488
 7186TIP3   OH242972   3.620   1.631   3.274 -0.9617  0.5791 -0.0490
 7186TIP3    H142973   3.624   1.668   3.185 -0.4902 -1.9783 -1.1854
 7186TIP3    H242974   3.706   1.589   3.286 -1.7274 -0.8277  0.7927
 7187TIP3   OH242975   2.678   1.989  10.955 -0.2857 -0.3673  0.4085
 7187TIP3    H142976   2.658   2.052  11.024 -0.9776 -0.7665  0.5735
 7187TIP3    H242977   2.766   2.015  10.925 -0.2894  0.2715  0.9136
 7188TIP3   OH242978   5.983   5.864  13.624 -0.9854  0.1207 -0.6007
 7188TIP3    H142979   6.029   5.826  13.698 -0.8692  2.2140  0.4743
 7188TIP3    H242980   5.904   5.811  13.615 -3.3981  2.3421  4.0030
 7189TIP3   OH242981   3.741   3.477  12.553 -0.2980  0.7201 -0.0010
 7189TIP3    H142982   3.649   3.504  12.552 -0.6894 -0.5464  0.3261
 7189TIP3    H242983   3.741   3.394  12.599  0.8498  0.0844 -1.1020
 7190TIP3   OH242984   3.918   1.103  14.428 -0.5152  0.9669 -0.3360
 7190TIP3    H142985   3.826   1.078  14.419 -0.2913  0.0834 -0.3059
 7190TIP3    H242986   3.962   1.023  14.458  0.2120  1.4599 -0.0453
 7191TIP3   OH242987   0.809   2.360  15.830  1.0007  0.4112  0.0583
 7191TIP3    H142988   0.898   2.393  15.816  0.5582  2.6515  2.0501
 7191TIP3    H242989   0.814   2.311  15.912  0.3719  0.7113  0.2807
 7192TIP3   OH242990   5.793   4.378   0.369  0.2944  0.1725  0.2113
 7192TIP3    H142991   5.751   4.331   0.441  1.7801  0.7136  1.5019
 7192TIP3    H242992   5.861   4.319   0.338  1.2352  0.8726  0.8875
 7193TIP3   OH242993   2.717   3.953  14.400 -0.1604 -0.3755  0.1034
 7193TIP3    H142994   2.659   3.954  14.324 -0.5595  1.7893  0.3736
 7193TIP3    H242995   2.667   3.910  14.469 -1.3012  0.9901  0.1783
 7194TIP3   OH242996   6.192   3.727  11.714  0.7121  0.2301 -0.4118
 7194TIP3    H142997   6.215   3.716  11.807 -1.2927  1.7431  0.3519
 7194TIP3    H242998   6.160   3.641  11.687 -0.9538  0.3167  1.0751
 7195TIP3   OH242999   2.419   0.117  10.503  0.3521  0.3769 -0.0467
 7195TIP3    H143000   2.352   0.185  10.506 -0.7069 -0.5423 -1.4499
 7195TIP3    H243001   2.377   0.041  10.543  0.9446  0.1101  0.0674
 7196TIP3   OH243002   1.239   5.674  15.422  0.1685 -0.4516 -0.0948
 7196TIP3    H143003   1.172   5.695  15.487  0.3032 -0.1014 -0.0711
 7196TIP3    H243004   1.214   5.722  15.344  0.1311 -0.6964 -0.2354
 7197TIP3   OH243005   5.975   2.371  15.975  0.0791  0.3862  0.1736
 7197TIP3    H143006   5.925   2.452  15.982 -1.5412 -0.5522 -0.1429
 7197TIP3    H243007   5.961   2.326  16.058 -0.7820 -0.5304 -0.4559
 7198TIP3   OH243008   1.232   0.211  12.918 -0.4748  0.1377 -0.3135
 7198TIP3    H143009   1.237   0.117  12.932 -1.8830 -0.0234 -0.8068
 7198TIP3    H243010   1.315   0.244  12.953 -0.8474 -1.0176  1.7732
 7199TIP3   OH243011   3.638   4.966  15.849 -0.1167  0.0701  0.1596
 7199TIP3    H143012   3.555   4.988  15.807  0.1181 -1.8334 -1.4455
 7199TIP3    H243013   3.614   4.903  15.917 -0.0808  0.2888  0.3773
 7200TIP3   OH243014   2.013   4.765  14.309 -0.1547 -0.6874 -0.5815
 7200TIP3    H143015   2.076   4.742  14.377 -1.6982  0.1930  1.2353
 7200TIP3    H243016   2.011   4.861  14.310 -1.8520 -0.6930 -0.2228
 7201TIP3   OH243017   3.992   3.569  13.049 -0.5394  0.1639 -0.0330
 7201TIP3    H143018   3.983   3.571  13.144 -2.2936 -0.5428 -0.1484
 7201TIP3    H243019   3.922   3.626  13.017 -0.5895 -0.3753 -0.9151
 7202TIP3   OH243020   6.059   3.786   5.455  0.5402  0.1980  0.3541
 7202TIP3    H143021   6.068   3.783   5.550  0.5724 -0.6212  0.3312
 7202TIP3    H243022   6.081   3.697   5.426 -0.5867  0.1164 -0.3084
 7203TIP3   OH243023   3.984   3.327  16.267 -0.2872  0.3783  0.2077
 7203TIP3    H143024   4.066   3.281  16.249 -0.1478  0.5375  0.4307
 7203TIP3    H243025   3.977   3.327  16.363 -1.2427 -0.8609  0.1662
 7204TIP3   OH243026   6.529   2.546   1.097  0.7405 -0.6471 -0.2140
 7204TIP3    H143027   6.614   2.522   1.134  0.4358  0.5275  1.4023
 7204TIP3    H243028   6.466   2.524   1.166  0.2888  2.9492  0.7742
 7205TIP3   OH243029   6.685   2.044  14.455  0.2241  0.0124 -0.0771
 7205TIP3    H143030   6.692   1.971  14.393 -0.8508 -0.8045  0.7257
 7205TIP3    H243031   6.775   2.066  14.475  0.6352  0.6065 -2.2483
 7206TIP3   OH243032   0.912   0.329  16.874  0.3988 -0.0701  0.5866
 7206TIP3    H143033   0.974   0.390  16.834  0.9340 -0.6168  0.5625
 7206TIP3    H243034   0.827   0.357  16.842  0.5998  0.8730  0.8501
 7207TIP3   OH243035   5.216   0.160  15.550 -0.1819 -0.1149  0.1440
 7207TIP3    H143036   5.199   0.232  15.611  0.0181  0.3853 -0.3820
 7207TIP3    H243037   5.268   0.200  15.480  0.3849 -0.8915  0.1092
 7208TIP3   OH243038   6.715   6.225   3.376  0.8707  0.1584  0.6203
 7208TIP3    H143039   6.803   6.187   3.371  0.1042 -1.4888 -2.6604
 7208TIP3    H243040   6.675   6.183   3.452  1.4773 -2.6111 -0.4669
 7209TIP3   OH243041   0.815   3.673   1.445  0.1892  0.1522  0.0612
 7209TIP3    H143042   0.863   3.738   1.395 -1.1446  1.8863  0.8794
 7209TIP3    H243043   0.736   3.657   1.394  0.0330 -0.0313  0.3568
 7210TIP3   OH243044   1.912   4.853  16.237 -0.6318  0.2916  0.1101
 7210TIP3    H143045   1.895   4.874  16.146 -0.0110  0.7094  0.0891
 7210TIP3    H243046   2.008   4.850  16.244 -0.6640  0.7382  0.8518
 7211TIP3   OH243047   1.460   4.688  15.616 -0.4572  0.4640 -0.6234
 7211TIP3    H143048   1.461   4.600  15.655  1.8914  1.3834  1.6681
 7211TIP3    H243049   1.371   4.697  15.580 -0.3568 -3.3346 -2.3386
 7212TIP3   OH243050   4.347   4.268  11.222 -0.3258 -0.1143  0.4036
 7212TIP3    H143051   4.434   4.264  11.181  0.5689 -0.5605  2.2058
 7212TIP3    H243052   4.333   4.361  11.239 -0.0588 -0.0661  0.3665
 7213TIP3   OH243053   3.973   5.384   0.402  0.2535  0.3255 -0.4772
 7213TIP3    H143054   4.068   5.389   0.408  0.2199 -0.6249  1.3526
 7213TIP3    H243055   3.943   5.473   0.420  0.7808  0.6596 -1.2123
 7214TIP3   OH243056   2.344   5.748  13.758  0.6018 -0.0483  0.0810
 7214TIP3    H143057   2.268   5.724  13.704 -0.0573 -1.1204  1.3982
 7214TIP3    H243058   2.417   5.751  13.697  0.1655 -2.6175 -0.7164
 7215TIP3   OH243059   2.228   2.702   5.475 -0.0958 -0.1012 -0.4622
 7215TIP3    H143060   2.284   2.663   5.541  0.5551  0.6768 -0.5366
 7215TIP3    H243061   2.266   2.674   5.391  0.1431  0.3654 -0.5123
 7216TIP3   OH243062   6.449   4.005   5.120 -0.0362  0.8148 -0.4473
 7216TIP3    H143063   6.396   3.990   5.198 -1.1261 -1.2165 -1.4863
 7216TIP3    H243064   6.523   3.946   5.130 -0.9480 -0.5922 -1.5678
 7217TIP3   OH243065   3.472   3.797   2.538  0.5489  0.1140 -0.7535
 7217TIP3    H143066   3.436   3.782   2.451 -0.7637  1.0945 -0.4191
 7217TIP3    H243067   3.555   3.842   2.522 -0.3202  1.5404 -1.5023
 7218TIP3   OH243068   1.325   1.772  13.550  0.1376 -0.3010  0.0198
 7218TIP3    H143069   1.307   1.857  13.591  1.1396 -0.5630  1.0611
 7218TIP3    H243070   1.406   1.785  13.501 -0.2266 -0.4080 -0.6179
 7219TIP3   OH243071   1.638   3.886  11.756 -0.5105 -0.1513 -1.2373
 7219TIP3    H143072   1.615   3.959  11.814 -0.8622 -0.0870 -1.4528
 7219TIP3    H243073   1.720   3.914  11.714 -0.6697  0.1449 -1.3570
 7220TIP3   OH243074   6.707   2.958  13.083  0.1638  0.1623 -0.1404
 7220TIP3    H143075   6.734   2.999  13.000  2.2778  1.3504  1.0506
 7220TIP3    H243076   6.640   3.018  13.118 -1.0457 -0.5570 -1.1080
 7221TIP3   OH243077   2.278   1.201  10.894 -0.3927  0.6920 -0.3020
 7221TIP3    H143078   2.355   1.153  10.925 -0.4651  1.8560  1.8661
 7221TIP3    H243079   2.209   1.135  10.890  0.6578 -0.3688 -2.2783
 7222TIP3   OH243080   6.288   3.311  13.156 -0.1739  0.3173  0.0403
 7222TIP3    H143081   6.311   3.404  13.161  1.0316  0.0709 -0.5382
 7222TIP3    H243082   6.224   3.298  13.226  0.9322  1.2162  1.2452
 7223TIP3   OH243083   5.044   3.462  14.443  0.0105  0.5699  0.2288
 7223TIP3    H143084   4.974   3.399  14.426 -0.8464  1.3086  0.9288
 7223TIP3    H243085   5.010   3.518  14.512  0.0719  2.8797 -1.5050
 7224TIP3   OH243086   3.762   4.487   5.426  0.2917  0.1543  0.5932
 7224TIP3    H143087   3.765   4.448   5.514  1.4978  0.9391  0.9362
 7224TIP3    H243088   3.734   4.577   5.441  0.3901  0.2596  0.1634
 7225TIP3   OH243089   0.675   4.021   3.671 -0.2122 -0.2067  0.6322
 7225TIP3    H143090   0.603   4.024   3.734 -0.7993  0.7126 -0.0553
 7225TIP3    H243091   0.716   4.108   3.678  0.2070 -0.3785  0.3170
 7226TIP3   OH243092   2.534   0.549  16.758 -0.1513 -0.2892  0.1738
 7226TIP3    H143093   2.466   0.482  16.757 -1.5501  0.9670  2.1695
 7226TIP3    H243094   2.610   0.507  16.800  0.2211 -1.5818 -1.7087
 7227TIP3   OH243095   3.466   3.097   5.519  0.5778  0.1127 -0.2377
 7227TIP3    H143096   3.464   3.129   5.609 -1.9417 -0.2693 -0.0749
 7227TIP3    H243097   3.488   3.005   5.527  1.5891  0.3565 -0.1386
 7228TIP3   OH243098   2.185   0.408   4.022 -0.1350  0.7649 -0.3324
 7228TIP3    H143099   2.162   0.433   4.112 -0.2737 -4.1942  1.3010
 7228TIP3    H243100   2.279   0.428   4.015  0.5182 -1.0467  1.9729
 7229TIP3   OH243101   0.388   6.710   0.620  0.1008 -0.0028  0.6152
 7229TIP3    H143102   0.327   6.784   0.613 -0.6741 -0.6456  0.2673
 7229TIP3    H243103   0.380   6.665   0.536 -0.2435 -1.0717  1.1970
 7230TIP3   OH243104   2.043   1.819   0.723  0.3353 -0.1766 -0.4375
 7230TIP3    H143105   2.076   1.900   0.684  1.4538  0.3746  1.5609
 7230TIP3    H243106   1.979   1.848   0.788  0.0258 -0.9673 -0.3793
 7231TIP3   OH243107   4.509   1.473  16.796  0.0856 -0.2234 -0.2264
 7231TIP3    H143108   4.499   1.496  16.889  0.8965  0.9686 -0.4098
 7231TIP3    H243109   4.459   1.540  16.750  1.8572  0.8208 -0.7458
 7232TIP3   OH243110   0.969   4.118   6.933 -0.4240  0.2525  0.0996
 7232TIP3    H143111   0.987   4.036   6.887  0.3077 -0.0481  0.9022
 7232TIP3    H243112   1.037   4.178   6.902  0.0274  0.0700  0.7164
 7233TIP3   OH243113   3.302   1.606   6.282 -0.1962  0.2969  0.2761
 7233TIP3    H143114   3.239   1.557   6.230 -1.3800 -0.2692  2.1591
 7233TIP3    H243115   3.249   1.660   6.341  1.0640  0.3101  1.4583
 7234TIP3   OH243116   4.354   2.669  13.272 -0.1072 -0.6393 -0.7639
 7234TIP3    H143117   4.362   2.576  13.251  2.9712 -0.3254 -1.5004
 7234TIP3    H243118   4.380   2.676  13.363 -0.4304 -0.4847 -0.6801
 7235TIP3   OH243119   0.038   5.882  16.978 -0.0600  0.0165  0.2141
 7235TIP3    H143120   0.088   5.953  16.938  1.4821 -0.6304  0.9130
 7235TIP3    H243121   0.067   5.803  16.934  0.2058 -0.4753  1.2273
 7236TIP3   OH243122   3.393   2.701  13.325  0.2856 -0.2994  0.1888
 7236TIP3    H143123   3.412   2.628  13.266  0.1346 -0.8920  0.8656
 7236TIP3    H243124   3.464   2.700  13.389  0.2099  0.0700  0.2808
 7237TIP3   OH243125   3.414   4.050  16.626 -0.4259  0.1455  0.0072
 7237TIP3    H143126   3.453   3.977  16.577 -0.3986  2.4465 -3.8221
 7237TIP3    H243127   3.333   4.069  16.578 -1.2607  1.6228  1.8987
 7238TIP3   OH243128   5.817   4.432   2.987  0.3070  0.3136 -0.0280
 7238TIP3    H143129   5.893   4.424   2.929  0.5086 -0.9219  0.3717
 7238TIP3    H243130   5.743   4.442   2.928  0.7388  1.2717 -0.4305
 7239TIP3   OH243131   0.509   4.962   0.882  0.0290 -0.0204  0.2070
 7239TIP3    H143132   0.587   5.017   0.882 -0.0129  0.0486  0.9106
 7239TIP3    H243133   0.469   4.977   0.968 -0.3195 -0.6682  0.1649
 7240TIP3   OH243134   4.687   5.538   4.282 -0.2374 -0.1288 -0.1180
 7240TIP3    H143135   4.656   5.533   4.191 -0.4062 -0.9193 -0.0198
 7240TIP3    H243136   4.647   5.463   4.325 -0.3214  0.3656  0.6685
 7241TIP3   OH243137   2.393   2.355  12.202 -0.5572 -0.4439 -0.3584
 7241TIP3    H143138   2.450   2.301  12.257 -1.3947 -2.3406 -1.2809
 7241TIP3    H243139   2.308   2.351  12.244 -0.0853  2.7125  1.2418
 7242TIP3   OH243140   6.299   0.041  16.574 -0.2629 -0.0806  0.5015
 7242TIP3    H143141   6.318   0.085  16.491 -1.9369  1.4863  0.8694
 7242TIP3    H243142   6.267  -0.045  16.549  0.3498 -0.0597 -0.4135
 7243TIP3   OH243143   3.058   6.327  11.342  0.3848  0.2358  0.5006
 7243TIP3    H143144   3.072   6.299  11.251 -1.1121 -0.2786  0.4099
 7243TIP3    H243145   3.066   6.423  11.338 -0.3067  0.2723 -0.2983
 7244TIP3   OH243146   3.966   3.293   3.504 -0.4617  0.2478 -0.1165
 7244TIP3    H143147   4.048   3.342   3.506 -0.6090  0.7347 -2.6943
 7244TIP3    H243148   3.978   3.227   3.436 -2.1182  0.1916 -0.3980
 7245TIP3   OH243149   2.411   2.739  17.225  0.7089 -0.3190  0.4711
 7245TIP3    H143150   2.370   2.759  17.141  3.6397  0.3944 -0.9466
 7245TIP3    H243151   2.377   2.804  17.286 -0.8415 -0.3198 -0.3653
 7246TIP3   OH243152   6.579   4.575  14.439 -0.2343  0.1172 -0.2734
 7246TIP3    H143153   6.574   4.535  14.352  0.3511 -0.5324 -0.0255
 7246TIP3    H243154   6.667   4.612  14.443  0.2568 -1.0447  0.5131
 7247TIP3   OH243155   4.706   5.340   3.087  0.4401  0.1533 -0.7199
 7247TIP3    H143156   4.725   5.410   3.148 -0.6935  1.7695 -2.1091
 7247TIP3    H243157   4.616   5.314   3.108  1.5560 -2.5553  1.2571
 7248TIP3   OH243158   2.073   5.716   2.442 -0.8042 -0.4846  0.2925
 7248TIP3    H143159   2.137   5.775   2.403  0.8925 -3.0911 -1.1080
 7248TIP3    H243160   2.090   5.722   2.536 -0.0458  0.5318  0.1111
 7249TIP3   OH243161   3.303   4.262   3.696  0.1718 -0.1857 -0.6411
 7249TIP3    H143162   3.265   4.336   3.742  2.4341  1.1578 -0.7818
 7249TIP3    H243163   3.250   4.187   3.723 -3.7798  1.6760 -2.3541
 7250TIP3   OH243164   4.665   0.885  11.374 -0.0226  0.3887  0.5427
 7250TIP3    H143165   4.651   0.979  11.377  0.6901  0.4830  1.3544
 7250TIP3    H243166   4.584   0.849  11.339 -0.2508  1.3117  0.1045
 7251TIP3   OH243167   4.204   5.843   5.566 -0.6219  0.3313 -0.7258
 7251TIP3    H143168   4.110   5.863   5.570 -0.9074 -0.9428 -0.7249
 7251TIP3    H243169   4.221   5.825   5.474  0.0515  2.3950 -1.0535
 7252TIP3   OH243170   4.799   2.788   0.770 -0.0260  0.4754 -0.0161
 7252TIP3    H143171   4.865   2.771   0.837  0.9960  2.0670 -0.5556
 7252TIP3    H243172   4.840   2.852   0.711 -1.6207  0.6222 -1.0428
 7253TIP3   OH243173   2.033   2.182   3.709  0.4381 -0.2864 -0.0891
 7253TIP3    H143174   2.081   2.262   3.731 -0.0581  0.0199 -0.1027
 7253TIP3    H243175   2.025   2.135   3.792  0.8460 -0.3873 -0.1054
 7254TIP3   OH243176   1.553   5.795  11.666 -0.3991  0.2164 -0.0276
 7254TIP3    H143177   1.622   5.847  11.625 -1.1432 -0.0312 -1.6732
 7254TIP3    H243178   1.592   5.762  11.747  0.1356  3.1946  1.0445
 7255TIP3   OH243179   4.444   6.468   3.901 -0.0904  0.4255  0.0863
 7255TIP3    H143180   4.395   6.404   3.850 -0.5767  0.3356  0.6644
 7255TIP3    H243181   4.529   6.427   3.917 -0.9934 -0.8022  1.9357
 7256TIP3   OH243182   1.691   6.393  14.837  0.0972  1.0699  0.3187
 7256TIP3    H143183   1.747   6.414  14.763  1.0415  0.2634  0.7732
 7256TIP3    H243184   1.719   6.305  14.863 -1.7854  0.4065  0.1993
 7257TIP3   OH243185   2.322   6.308  14.825  0.0907 -0.1995  0.5969
 7257TIP3    H143186   2.250   6.340  14.880 -0.8249  0.4583 -0.9153
 7257TIP3    H243187   2.400   6.350  14.861 -0.2831 -0.7757  2.1576
 7258TIP3   OH243188   3.274   1.651  14.212 -0.4880 -0.3023  0.1155
 7258TIP3    H143189   3.247   1.610  14.294 -1.1828 -0.4337 -0.1683
 7258TIP3    H243190   3.192   1.665  14.164 -0.0641 -0.5253 -0.6929
 7259TIP3   OH243191   5.434   6.513   4.662  0.3656  0.1594  0.3714
 7259TIP3    H143192   5.352   6.537   4.706 -0.5891 -0.5199 -0.9436
 7259TIP3    H243193   5.457   6.428   4.699 -0.6993 -0.6429 -0.6995
 7260TIP3   OH243194   6.169   3.424  16.541 -0.6715  0.4301 -0.4275
 7260TIP3    H143195   6.160   3.329  16.534  0.4185  0.3387 -0.7964
 7260TIP3    H243196   6.101   3.459  16.483 -1.8184 -0.0878  0.5788
 7261TIP3   OH243197   2.555   0.284   2.711 -0.1484  0.0444  0.3509
 7261TIP3    H143198   2.551   0.204   2.659  1.3751 -0.1997  0.5739
 7261TIP3    H243199   2.631   0.331   2.678 -0.2213  0.7578  1.1503
 7262TIP3   OH243200   1.377   5.233   5.723 -0.0043 -0.2491 -0.0475
 7262TIP3    H143201   1.309   5.282   5.678  0.5875  0.2167 -0.4488
 7262TIP3    H243202   1.386   5.277   5.808  1.5544  1.3105 -0.9649
 7263TIP3   OH243203   6.659   1.389   2.887 -0.1444  0.3161 -0.0376
 7263TIP3    H143204   6.570   1.381   2.921  0.2707 -1.9999  0.7377
 7263TIP3    H243205   6.663   1.325   2.816  0.8457  0.4996 -0.1550
 7264TIP3   OH243206   0.753   4.207  12.977 -0.2158 -0.5373 -0.3031
 7264TIP3    H143207   0.705   4.265  13.036  1.4594  1.6328 -0.9391
 7264TIP3    H243208   0.758   4.124  13.023 -2.5584 -0.1577  0.7451
 7265TIP3   OH243209   0.545   5.414   2.872 -0.4241  0.0246 -0.0905
 7265TIP3    H143210   0.509   5.492   2.914  1.3290  1.3928 -0.9738
 7265TIP3    H243211   0.619   5.446   2.821  1.7284 -2.5030  1.1753
 7266TIP3   OH243212   2.233   0.859  12.764  0.2978  0.0133  0.2755
 7266TIP3    H143213   2.172   0.866  12.690  0.5782  1.2447  0.1260
 7266TIP3    H243214   2.300   0.925  12.746  0.6342  0.0031  1.3826
 7267TIP3   OH243215   3.203   6.479  15.454  0.5740 -0.2223  0.2485
 7267TIP3    H143216   3.204   6.447  15.545 -0.8496 -0.2333  0.2788
 7267TIP3    H243217   3.224   6.572  15.462  2.5659 -0.6461  0.3675
 7268TIP3   OH243218   6.236   6.450   4.310 -0.9009  0.0491 -0.4469
 7268TIP3    H143219   6.257   6.456   4.217 -0.3156  2.3221 -0.2342
 7268TIP3    H243220   6.167   6.516   4.323  0.0530  0.8101  0.9715
 7269TIP3   OH243221   2.376   3.507   3.403  0.1145 -0.0538 -0.1021
 7269TIP3    H143222   2.464   3.469   3.411 -0.1089 -0.4394  0.5919
 7269TIP3    H243223   2.336   3.493   3.488 -0.3452  0.8418 -0.1595
 7270TIP3   OH243224   2.941   4.877   4.798  1.0301  0.2841 -0.1284
 7270TIP3    H143225   2.958   4.964   4.834 -0.7105 -0.0619  1.6992
 7270TIP3    H243226   2.984   4.817   4.859 -1.0414 -0.2638  0.8888
 7271TIP3   OH243227   1.651   2.785   2.141 -0.0056  0.0253  0.3584
 7271TIP3    H143228   1.728   2.745   2.183  1.0947  1.8378  0.1762
 7271TIP3    H243229   1.607   2.832   2.211 -1.3880 -1.5397  0.6053
 7272TIP3   OH243230   6.289   3.786  14.095 -0.7378  0.0320 -0.0149
 7272TIP3    H143231   6.341   3.742  14.162 -0.7063 -2.5862 -1.6231
 7272TIP3    H243232   6.354   3.822  14.035 -0.7602 -0.4630 -0.3403
 7273TIP3   OH243233   3.949   5.001  13.494 -0.1854 -0.0046 -0.2020
 7273TIP3    H143234   3.993   4.916  13.503  0.0278  0.1913  0.7482
 7273TIP3    H243235   4.008   5.053  13.440  0.8047  0.2597  1.0708
 7274TIP3   OH243236   2.575   4.777   4.389  0.3671 -0.0024  0.6026
 7274TIP3    H143237   2.641   4.757   4.323  1.0313  0.0519  1.2330
 7274TIP3    H243238   2.524   4.848   4.351  1.6303  1.0093  0.7033
 7275TIP3   OH243239   6.568   4.680   5.650 -0.0504 -0.5664 -0.0682
 7275TIP3    H143240   6.622   4.758   5.637 -0.7622  0.0026  0.3034
 7275TIP3    H243241   6.521   4.697   5.732  1.0346 -2.1319  0.9499
 7276TIP3   OH243242   0.598   6.171  14.872 -0.4893  0.1253  0.0046
 7276TIP3    H143243   0.593   6.182  14.967  0.2739 -0.3361  0.1042
 7276TIP3    H243244   0.634   6.084  14.859 -0.7621  0.1091 -0.7207
 7277TIP3   OH243245   3.753   5.442  14.914 -0.4519  0.6340 -0.0951
 7277TIP3    H143246   3.668   5.418  14.878 -0.8521  0.3188  1.0225
 7277TIP3    H243247   3.795   5.359  14.934 -0.2565  0.8002  0.1925
 7278TIP3   OH243248   6.505   0.353   0.739 -0.4913  0.0292 -0.3130
 7278TIP3    H143249   6.585   0.405   0.733 -0.7339  0.3725 -0.5591
 7278TIP3    H243250   6.525   0.274   0.688 -0.1402 -0.1072  0.0294
 7279TIP3   OH243251   1.434   0.215  14.138  0.2733 -0.6356 -0.8465
 7279TIP3    H143252   1.497   0.272  14.094 -0.3564 -0.2526 -1.2698
 7279TIP3    H243253   1.358   0.272  14.153 -0.0714 -1.1629 -0.5841
 7280TIP3   OH243254   1.984   6.644  11.817  0.1614  0.7699  0.1920
 7280TIP3    H143255   2.010   6.655  11.725  0.1531  0.0924  0.1048
 7280TIP3    H243256   1.917   6.575  11.815  0.0920  0.8182  0.6974
 7281TIP3   OH243257   5.094   6.038   5.176  0.2035  0.1394  0.1942
 7281TIP3    H143258   5.183   6.048   5.143 -0.5537 -0.3618 -2.2931
 7281TIP3    H243259   5.064   6.128   5.193  1.1720  0.3028  1.1293
 7282TIP3   OH243260   3.413   0.223   1.578 -0.3345 -0.5254  0.0000
 7282TIP3    H143261   3.419   0.168   1.500 -1.3639 -1.6733  0.7174
 7282TIP3    H243262   3.328   0.267   1.570 -0.8634 -1.3585  0.9241
 7283TIP3   OH243263   2.225   2.879   2.826 -0.2856 -0.0566 -0.3709
 7283TIP3    H143264   2.315   2.852   2.840  0.6999  3.7718  2.0927
 7283TIP3    H243265   2.231   2.952   2.764 -1.5787  0.6697  0.3090
 7284TIP3   OH243266   4.335   5.888  15.827 -0.1016  0.3609 -0.4550
 7284TIP3    H143267   4.251   5.933  15.837  0.2985  0.8040  1.1483
 7284TIP3    H243268   4.354   5.852  15.913  0.6998 -0.9358 -1.1432
 7285TIP3   OH243269   1.585   0.081  13.121 -0.3221  0.7817 -0.1635
 7285TIP3    H143270   1.569   0.002  13.071 -1.0547  1.4294 -0.9746
 7285TIP3    H243271   1.674   0.108  13.096  0.2672 -0.2156  0.7501
 7286TIP3   OH243272   6.163   3.175   2.593  0.4622 -0.2592  0.0613
 7286TIP3    H143273   6.183   3.188   2.500  1.4734 -1.0840  0.1527
 7286TIP3    H243274   6.194   3.087   2.613  1.0913  0.2361  1.3972
 7287TIP3   OH243275   3.708   0.836   6.040  0.1602 -0.5650 -0.1817
 7287TIP3    H143276   3.666   0.835   6.126  0.9815  0.3143  0.2477
 7287TIP3    H243277   3.787   0.888   6.052  0.2098 -0.2850 -1.5122
 7288TIP3   OH243278   0.058   5.075  15.626  0.2915  0.1338  0.3486
 7288TIP3    H143279   0.007   4.996  15.644  0.6625 -0.3937 -0.7885
 7288TIP3    H243280   0.000   5.129  15.573  0.9247 -0.5476 -1.1048
 7289TIP3   OH243281   6.745   3.065  12.849 -0.4947  0.2854 -0.2580
 7289TIP3    H143282   6.740   3.137  12.786  0.0808  0.0418 -0.5842
 7289TIP3    H243283   6.779   2.991  12.798 -1.5048 -0.3512 -0.0397
 7290TIP3   OH243284   4.476   1.777   3.596 -0.0823  0.0839  0.2014
 7290TIP3    H143285   4.385   1.795   3.620 -0.1347  1.0161 -0.6370
 7290TIP3    H243286   4.507   1.858   3.554  1.7430  0.5025  2.1698
 7291TIP3   OH243287   3.719   1.177   1.484  0.1077 -0.2529 -0.0407
 7291TIP3    H143288   3.757   1.226   1.557 -0.1342  2.8543 -1.8108
 7291TIP3    H243289   3.794   1.135   1.441  0.6209  0.1835  0.4189
 7292TIP3   OH243290   6.357   0.795  15.374  0.4714  0.1535  0.0270
 7292TIP3    H143291   6.277   0.845  15.390  0.1994 -0.2078 -0.1793
 7292TIP3    H243292   6.426   0.860  15.370  0.1728  0.4780  0.1185
 7293TIP3   OH243293   2.198   2.488  12.004 -0.0814  0.0005  1.0984
 7293TIP3    H143294   2.283   2.502  12.046  0.5862  0.4600 -0.3392
 7293TIP3    H243295   2.205   2.400  11.965  1.1535  1.3234 -2.0274
 7294TIP3   OH243296   2.487   4.973  11.986  0.3546  0.2902 -0.1839
 7294TIP3    H143297   2.578   4.985  12.013  0.2386 -0.7792  0.7694
 7294TIP3    H243298   2.487   4.990  11.892  1.1942  2.0088  0.0823
 7295TIP3   OH243299   2.561   4.360  13.642  0.9524 -0.0320  0.0731
 7295TIP3    H143300   2.548   4.308  13.562  0.5945 -1.6858  1.1552
 7295TIP3    H243301   2.564   4.295  13.712 -1.1474  1.4972  1.7206
 7296TIP3   OH243302   5.807   5.713   1.400 -0.8951  0.3202 -0.3201
 7296TIP3    H143303   5.761   5.629   1.397 -1.5425  0.3196  3.8053
 7296TIP3    H243304   5.893   5.694   1.363 -0.3883 -2.7879  1.9988
 7297TIP3   OH243305   2.311   5.970  17.170 -0.0050  0.1285 -0.0312
 7297TIP3    H143306   2.251   6.044  17.159  0.1989  0.4185  0.7149
 7297TIP3    H243307   2.397   6.010  17.179  0.1261 -0.2000  0.2301
 7298TIP3   OH243308   2.869   1.268   4.122  0.2882  0.1410  0.3471
 7298TIP3    H143309   2.915   1.350   4.105 -0.6667  0.7586  0.6376
 7298TIP3    H243310   2.823   1.249   4.040  0.6803 -0.2296  0.2082
 7299TIP3   OH243311   0.862   3.825  12.652 -0.1731  0.2712  0.3090
 7299TIP3    H143312   0.809   3.762  12.603  0.7175  1.2775 -2.0720
 7299TIP3    H243313   0.848   3.801  12.744 -1.8016 -1.8002 -0.3949
 7300TIP3   OH243314   4.461   1.501  12.112  0.2437  0.4613  0.5720
 7300TIP3    H143315   4.518   1.431  12.083  1.2489  1.1403  0.8696
 7300TIP3    H243316   4.485   1.577  12.058 -0.7869  0.6122  0.2904
 7301TIP3   OH243317   0.865   3.301   4.573 -0.1937  0.0099 -0.9851
 7301TIP3    H143318   0.879   3.385   4.617  0.3089 -0.5165 -0.0953
 7301TIP3    H243319   0.889   3.236   4.639 -0.4090 -0.8304 -1.7204
 7302TIP3   OH243320   5.160   0.458   2.376  0.5431 -0.4785  0.4173
 7302TIP3    H143321   5.188   0.368   2.358 -0.7830 -0.7307 -0.5656
 7302TIP3    H243322   5.212   0.511   2.315 -0.8978 -0.9248 -1.2900
 7303TIP3   OH243323   6.022   4.370  14.407  0.5180 -0.5449 -0.3291
 7303TIP3    H143324   5.937   4.333  14.382  0.3343 -0.0110 -0.5128
 7303TIP3    H243325   6.062   4.396  14.324  0.4865  0.0001 -0.1747
 7304TIP3   OH243326   4.816   4.669  12.791  0.5514  0.3600  0.1284
 7304TIP3    H143327   4.903   4.663  12.752 -0.0372  0.1540 -1.2167
 7304TIP3    H243328   4.768   4.594  12.755 -0.6616  1.3696 -0.4425
 7305TIP3   OH243329   1.748   0.481   6.007 -0.4439 -0.2008 -0.7254
 7305TIP3    H143330   1.654   0.471   6.022 -0.5612 -1.3414 -2.0654
 7305TIP3    H243331   1.782   0.510   6.092 -2.1665  1.6152 -0.5655
 7306TIP3   OH243332   3.790   3.041  15.289 -0.4116 -0.2111 -0.2832
 7306TIP3    H143333   3.797   3.022  15.382 -3.1740 -1.2398 -0.1726
 7306TIP3    H243334   3.831   2.967  15.245 -0.5562 -0.5547  0.1510
 7307TIP3   OH243335   4.819   0.720   5.553  0.3450 -0.2904 -0.2937
 7307TIP3    H143336   4.804   0.711   5.647 -2.3897 -0.2219 -0.6410
 7307TIP3    H243337   4.855   0.808   5.542 -1.7889  0.7356  0.5122
 7308TIP3   OH243338   5.719   1.048   2.269  0.2092  0.2876 -0.1258
 7308TIP3    H143339   5.748   1.125   2.318  0.7456 -0.8221  1.3775
 7308TIP3    H243340   5.758   0.974   2.316 -0.5112 -0.9232 -1.3715
 7309TIP3   OH243341   4.384   4.809  11.572 -0.2140  0.1924 -0.1340
 7309TIP3    H143342   4.448   4.825  11.503  1.5700 -1.6803  0.9854
 7309TIP3    H243343   4.381   4.713  11.580 -1.3619  0.3213  1.4796
 7310TIP3   OH243344   5.508   2.417  12.364 -0.1693  0.4676 -0.0130
 7310TIP3    H143345   5.512   2.508  12.394 -3.2105  1.1204 -1.1808
 7310TIP3    H243346   5.503   2.365  12.444 -2.5833  1.7255  0.7506
 7311TIP3   OH243347   6.776   3.956  15.160 -0.0181  0.5942  0.1038
 7311TIP3    H143348   6.836   3.983  15.090 -2.3802 -1.7828 -3.1387
 7311TIP3    H243349   6.772   4.032  15.218  6.0612  0.9113  0.7597
 7312TIP3   OH243350   2.704   4.718   4.144  0.7219 -0.0733  0.1034
 7312TIP3    H143351   2.728   4.644   4.088 -1.3966 -1.4236  0.8363
 7312TIP3    H243352   2.775   4.781   4.134  2.0465 -1.7303 -1.4341
 7313TIP3   OH243353   6.123   0.141   5.545  0.7544  0.7094 -0.4931
 7313TIP3    H143354   6.088   0.054   5.529 -0.5249  0.8819  1.0990
 7313TIP3    H243355   6.130   0.147   5.640  0.3980  2.4794 -0.5368
 7314TIP3   OH243356   0.603   4.653   5.021  0.4344  0.0454  0.4257
 7314TIP3    H143357   0.585   4.740   4.986 -0.0960 -0.8668 -1.6730
 7314TIP3    H243358   0.643   4.670   5.106 -0.5403  2.3173  0.5067
 7315TIP3   OH243359   4.808   2.611   4.887  0.4248  0.4447  0.7399
 7315TIP3    H143360   4.870   2.660   4.834 -0.2445 -0.2053 -0.6928
 7315TIP3    H243361   4.726   2.614   4.838  0.5152 -2.6319  0.2153
 7316TIP3   OH243362   6.157   2.687  12.898  0.4663 -0.0077  0.5387
 7316TIP3    H143363   6.166   2.765  12.843  0.5811  0.5282  1.3016
 7316TIP3    H243364   6.181   2.614  12.840  1.6559  0.6419  0.1705
 7317TIP3   OH243365   6.504   1.031  15.317 -0.1374  0.0855 -0.5836
 7317TIP3    H143366   6.552   1.113  15.327 -0.9044  0.5339 -0.5176
 7317TIP3    H243367   6.443   1.047  15.245 -1.2477  0.0386  0.3178
 7318TIP3   OH243368   4.390   3.786   5.890 -0.0763 -0.8435 -0.6271
 7318TIP3    H143369   4.438   3.842   5.951 -0.9723 -1.3252  0.5461
 7318TIP3    H243370   4.323   3.743   5.943 -0.3646 -1.9051 -1.7891
 7319TIP3   OH243371   0.067   4.987  12.366  0.0743 -0.9138  0.3961
 7319TIP3    H143372   0.138   4.928  12.392 -0.3173 -1.7078 -0.2860
 7319TIP3    H243373   0.096   5.026  12.284 -0.8329 -2.3242 -0.6573
 7320TIP3   OH243374   0.354   5.953  12.538  0.2092  0.2783  0.2150
 7320TIP3    H143375   0.362   5.970  12.632  2.9812 -1.2338  0.3824
 7320TIP3    H243376   0.441   5.974  12.502  0.7580 -3.4410 -1.1230
 7321TIP3   OH243377   1.830   4.605  11.585  0.6405  0.3993  0.2300
 7321TIP3    H143378   1.902   4.550  11.615 -1.5475 -2.4228  0.8241
 7321TIP3    H243379   1.851   4.625  11.494  1.8803 -0.9335  0.1886
 7322TIP3   OH243380   0.793   2.598   0.761 -0.2586  0.1589  0.0775
 7322TIP3    H143381   0.838   2.648   0.693 -0.3863  2.7502  1.7574
 7322TIP3    H243382   0.703   2.591   0.729 -0.0446  0.2438 -0.5719
 7323TIP3   OH243383   2.949   5.976   3.600  0.5559 -0.5080 -0.1421
 7323TIP3    H143384   2.991   5.897   3.635  2.0192 -0.6893 -2.1046
 7323TIP3    H243385   3.019   6.021   3.553 -0.3389  1.8021  0.5923
 7324TIP3   OH243386   4.477   1.372   0.671 -0.0760  0.3226  0.5187
 7324TIP3    H143387   4.546   1.362   0.605 -0.5896  0.1250  0.0001
 7324TIP3    H243388   4.407   1.418   0.624 -0.7397 -0.4746  0.7167
 7325TIP3   OH243389   6.320   5.694  17.155  0.0112  0.2423 -0.6614
 7325TIP3    H143390   6.316   5.778  17.110 -1.6705  1.4562  1.5374
 7325TIP3    H243391   6.248   5.644  17.118  1.4682 -0.5892 -2.4993
 7326TIP3   OH243392   3.950   3.833  15.118 -0.5238 -0.5662 -0.4694
 7326TIP3    H143393   3.876   3.820  15.177 -1.2797  0.2744 -1.2017
 7326TIP3    H243394   3.986   3.918  15.144  0.3161 -1.0611  0.0128
 7327TIP3   OH243395   3.048   6.469  16.054 -0.0984 -0.2026 -0.0869
 7327TIP3    H143396   2.988   6.443  16.123 -1.5130  0.3459 -1.0605
 7327TIP3    H243397   3.003   6.448  15.972  1.3363 -0.4252 -0.8629
 7328TIP3   OH243398   3.480   1.772   3.874 -0.6037  0.2986 -0.1300
 7328TIP3    H143399   3.534   1.849   3.857  0.0746 -0.4210 -1.4468
 7328TIP3    H243400   3.536   1.698   3.850  0.0452 -0.9149  4.2613
 7329TIP3   OH243401   5.844   4.493   4.743 -0.2453 -0.1741  0.0257
 7329TIP3    H143402   5.905   4.535   4.802  2.3519 -0.9499 -1.9145
 7329TIP3    H243403   5.802   4.565   4.696 -0.2997  0.3614  0.8865
 7330TIP3   OH243404   0.669   1.151   1.961  0.0198  0.0317 -0.0951
 7330TIP3    H143405   0.632   1.063   1.962  0.3275 -0.1058  1.0175
 7330TIP3    H243406   0.637   1.190   1.879 -0.5843 -0.9087 -0.3233
 7331TIP3   OH243407   0.965   3.130   6.351 -0.0005 -0.3708 -0.3082
 7331TIP3    H143408   0.892   3.127   6.412  0.7656 -0.7196  0.6183
 7331TIP3    H243409   1.035   3.176   6.399  1.1680 -2.0821 -0.2807
 7332TIP3   OH243410   5.158   1.287  16.723 -0.0045 -0.0777  0.3029
 7332TIP3    H143411   5.192   1.197  16.720  1.6089  0.4477  1.4563
 7332TIP3    H243412   5.167   1.319  16.633 -1.9012 -1.4737 -0.4582
 7333TIP3   OH243413   5.309   1.546  14.112  0.6477 -0.0082 -0.5603
 7333TIP3    H143414   5.298   1.578  14.201  2.1932  0.9063 -0.6628
 7333TIP3    H243415   5.380   1.598  14.076  0.3906 -0.6981 -2.1775
 7334TIP3   OH243416   0.884   0.750   5.223  0.2260 -0.0737  0.0031
 7334TIP3    H143417   0.791   0.728   5.232  0.2658 -0.3902 -0.3320
 7334TIP3    H243418   0.894   0.832   5.271 -0.0482 -0.4772  0.7687
 7335TIP3   OH243419   6.163   1.113   4.073 -0.0808 -0.0573 -0.7448
 7335TIP3    H143420   6.232   1.077   4.017  0.8578 -0.0809  0.3830
 7335TIP3    H243421   6.205   1.123   4.159 -1.8567 -1.3980  0.3505
 7336TIP3   OH243422   4.664   4.973  12.912 -0.0320 -0.0677  0.3055
 7336TIP3    H143423   4.668   4.883  12.878  0.3916  0.6785 -1.7808
 7336TIP3    H243424   4.745   4.983  12.961  0.1400 -0.6875  0.1664
 7337TIP3   OH243425   5.321   6.185  14.380  0.1034 -0.2618 -0.3191
 7337TIP3    H143426   5.371   6.135  14.314  1.4555 -0.0088  0.4738
 7337TIP3    H243427   5.268   6.119  14.424  0.5379 -0.7268 -0.4737
 7338TIP3   OH243428   2.472   1.237   4.009 -0.4376 -0.2342 -0.8480
 7338TIP3    H143429   2.468   1.147   3.979  0.3643 -0.5979  0.0910
 7338TIP3    H243430   2.555   1.270   3.975 -1.0825  0.4090 -1.8469
 7339TIP3   OH243431   5.840   2.674  11.724 -0.2913 -0.0682  0.0487
 7339TIP3    H143432   5.858   2.623  11.645  0.3335  0.5078 -0.1960
 7339TIP3    H243433   5.861   2.764  11.699 -3.0305  0.6155 -0.0681
 7340TIP3   OH243434   5.292   5.085  13.232 -0.1885  0.1188  0.2357
 7340TIP3    H143435   5.253   5.005  13.198  0.9553  1.0715 -3.9253
 7340TIP3    H243436   5.386   5.073  13.221  0.2254  1.0549  2.2102
 7341TIP3   OH243437   0.427   6.096   5.003  0.2923 -0.5788 -0.2506
 7341TIP3    H143438   0.367   6.159   4.963  0.1166 -0.0604  0.8047
 7341TIP3    H243439   0.383   6.067   5.082  0.7838 -1.3280 -0.2420
 7342TIP3   OH243440   4.915   5.777   3.144 -0.0167  0.1238  0.4573
 7342TIP3    H143441   4.888   5.843   3.208 -1.4280 -1.5040  1.6321
 7342TIP3    H243442   4.932   5.699   3.196  2.6283 -0.2548 -0.7706
 7343TIP3   OH243443   3.004   3.468   5.870  0.4756  0.1217  0.5821
 7343TIP3    H143444   2.964   3.551   5.895  1.4140  0.5583  0.6689
 7343TIP3    H243445   3.091   3.491   5.838  0.0176 -0.6239 -1.3240
 7344TIP3   OH243446   0.523   0.401   3.655  0.0510  0.2915  0.5016
 7344TIP3    H143447   0.542   0.307   3.651  0.7709  0.4548 -0.0574
 7344TIP3    H243448   0.468   0.410   3.733 -0.6626 -0.7004  0.1449
 7345TIP3   OH243449   6.535   6.285  12.102  0.2413  0.1867 -0.0535
 7345TIP3    H143450   6.516   6.259  12.012 -1.1038 -0.2787  0.3423
 7345TIP3    H243451   6.507   6.211  12.156 -1.4118  1.4467  0.9176
 7346TIP3   OH243452   5.054   0.948   1.417  0.3431  0.8421 -0.1632
 7346TIP3    H143453   4.974   0.995   1.439  0.0825 -0.6581  2.4435
 7346TIP3    H243454   5.028   0.885   1.350 -0.8923 -0.2009  1.2492
 7347TIP3   OH243455   2.999   6.576   1.394 -0.2623  0.2948 -0.0729
 7347TIP3    H143456   2.939   6.554   1.465 -0.8583  1.3304 -0.2379
 7347TIP3    H243457   2.956   6.543   1.315  0.5148 -1.0770  0.0478
 7348TIP3   OH243458   6.629   4.098  14.501 -0.2270  1.0789  0.1510
 7348TIP3    H143459   6.581   4.149  14.435  0.8213  0.7581 -0.8939
 7348TIP3    H243460   6.715   4.083  14.462 -0.3440 -1.1311  0.5790
 7349TIP3   OH243461   3.387   2.357  17.099  1.0262  0.0814 -0.8431
 7349TIP3    H143462   3.299   2.319  17.094  1.4204 -1.0942  0.4524
 7349TIP3    H243463   3.392   2.417  17.025 -1.1597  0.8009 -0.4713
 7350TIP3   OH243464   1.900   2.616  11.070 -0.5228 -0.2797  0.8128
 7350TIP3    H143465   1.912   2.707  11.042  1.1966 -0.4546  0.9027
 7350TIP3    H243466   1.981   2.593  11.114 -0.9857 -1.8228  0.9285
 7351TIP3   OH243467   3.396   5.124   2.342  0.4778 -0.1509 -0.0405
 7351TIP3    H143468   3.351   5.051   2.384  0.2439 -0.7014 -1.1987
 7351TIP3    H243469   3.476   5.086   2.307  0.2032  0.0621 -0.9246
 7352TIP3   OH243470   1.754   1.991   2.978  0.4646  0.3598 -0.0523
 7352TIP3    H143471   1.700   1.990   2.899 -0.2647 -0.4021  0.4319
 7352TIP3    H243472   1.786   1.901   2.985  0.9559  0.5554  0.2309
 7353TIP3   OH243473   0.626   4.545   2.479 -0.0429  0.0999  0.1509
 7353TIP3    H143474   0.547   4.574   2.433 -0.4328  1.4983  1.5750
 7353TIP3    H243475   0.603   4.460   2.516 -0.6021  0.1173 -0.1555
 7354TIP3   OH243476   0.153   0.673  12.876  0.4249  0.1992 -0.2945
 7354TIP3    H143477   0.113   0.668  12.963 -0.3015  1.1951 -0.5495
 7354TIP3    H243478   0.242   0.702  12.893 -0.0132  1.4002  0.0710
 7355TIP3   OH243479   3.531   2.770   2.525  0.1880 -1.1767  0.1772
 7355TIP3    H143480   3.617   2.772   2.483  0.8196  0.9880  1.3891
 7355TIP3    H243481   3.478   2.832   2.474  0.3393 -0.1149  1.2656
 7356TIP3   OH243482   2.362   3.300   5.829  0.5128  0.0722 -0.4619
 7356TIP3    H143483   2.402   3.298   5.916 -0.3771  0.8021 -0.0279
 7356TIP3    H243484   2.436   3.295   5.769  1.2479  1.0729  0.3247
 7357TIP3   OH243485   4.155   2.613   0.522 -0.0568 -0.2862  0.5570
 7357TIP3    H143486   4.119   2.524   0.516  2.4721 -1.4273  1.0102
 7357TIP3    H243487   4.112   2.650   0.600 -2.4535 -0.3932 -0.6216
 7358TIP3   OH243488   0.858   0.999  15.402 -0.3450  0.4538  0.1373
 7358TIP3    H143489   0.871   0.911  15.368 -1.8535  0.2857 -0.0802
 7358TIP3    H243490   0.840   0.986  15.495  2.0004  0.7754  0.7040
 7359TIP3   OH243491   6.078   1.951   4.092 -0.0974 -0.1763 -0.0239
 7359TIP3    H143492   6.010   1.925   4.155 -0.9179 -2.8465 -1.8665
 7359TIP3    H243493   6.082   1.879   4.029  1.9611  1.5429 -2.0345
 7360TIP3   OH243494   1.079   0.514  11.237  0.2036  0.3884 -0.3596
 7360TIP3    H143495   1.083   0.548  11.147  1.1092  0.9072 -0.1305
 7360TIP3    H243496   1.001   0.556  11.274  1.0153  1.8770 -0.2428
 7361TIP3   OH243497   6.698   4.436  15.555  0.0753  0.1227  0.1649
 7361TIP3    H143498   6.681   4.393  15.471 -2.4451 -0.9988  1.1257
 7361TIP3    H243499   6.683   4.529  15.538 -1.7522 -0.2264 -0.4198
 7362TIP3   OH243500   5.394   3.398   6.630  0.3149  0.2201 -0.0601
 7362TIP3    H143501   5.434   3.467   6.576  2.4950 -0.6925  0.3117
 7362TIP3    H243502   5.457   3.383   6.700 -0.0324 -2.2593 -0.2131
 7363TIP3   OH243503   6.715   2.689  14.308 -0.2376  0.0453 -0.1346
 7363TIP3    H143504   6.799   2.665  14.269 -0.3388 -1.0860  0.3209
 7363TIP3    H243505   6.669   2.734  14.237  0.7611  0.7512 -0.3695
 7364TIP3   OH243506   1.819   0.608   6.271 -0.4759  0.5918 -0.4271
 7364TIP3    H143507   1.845   0.697   6.293 -2.2596  1.1530 -0.4221
 7364TIP3    H243508   1.743   0.590   6.326 -0.3775 -0.8018 -0.6920
 7365TIP3   OH243509   0.592   5.142  17.136  0.1916  0.1319  0.2431
 7365TIP3    H143510   0.637   5.070  17.180  0.6579  0.1484 -0.2058
 7365TIP3    H243511   0.628   5.221  17.178 -0.1697  0.1159  0.5927
 7366TIP3   OH243512   2.597   2.194  16.285 -0.6237 -0.7639  0.1660
 7366TIP3    H143513   2.561   2.220  16.370 -2.0200  0.0275 -0.6316
 7366TIP3    H243514   2.661   2.263  16.265 -0.3361 -0.9179  0.5235
 7367TIP3   OH243515   4.406   1.291   2.512 -0.3137 -0.3212  0.2216
 7367TIP3    H143516   4.349   1.360   2.546  0.6675  0.4597  0.3576
 7367TIP3    H243517   4.416   1.230   2.585  0.1760  0.2969  0.6792
 7368TIP3   OH243518   1.872   5.945  14.317  0.7158 -0.1111  0.4066
 7368TIP3    H143519   1.923   5.887  14.261  2.0569 -0.0962  1.5717
 7368TIP3    H243520   1.826   5.886  14.377 -0.7774 -0.1315 -0.6879
 7369TIP3   OH243521   3.755   3.576   3.677 -0.2306  0.1183 -0.5235
 7369TIP3    H143522   3.696   3.622   3.617 -0.3735  0.3471 -0.2091
 7369TIP3    H243523   3.718   3.489   3.685 -1.3508  0.6876  0.7984
 7370TIP3   OH243524   4.982   4.104  10.840  0.2572 -0.0099  0.2373
 7370TIP3    H143525   5.051   4.140  10.896  0.0745 -1.2256  1.2986
 7370TIP3    H243526   4.916   4.174  10.834 -0.0977 -0.1166  2.2372
 7371TIP3   OH243527   5.796   6.348   6.171 -0.4605 -0.1769  0.0269
 7371TIP3    H143528   5.786   6.273   6.112 -2.1442 -0.7449  0.9597
 7371TIP3    H243529   5.881   6.334   6.213  0.7948  0.2837 -2.2443
 7372TIP3   OH243530   1.123   5.795  12.466 -0.2569  0.3253  0.2206
 7372TIP3    H143531   1.113   5.715  12.413 -1.3567 -0.5280  1.6415
 7372TIP3    H243532   1.145   5.863  12.402 -2.6080 -0.4077 -1.5527
 7373TIP3   OH243533   5.389   2.309  15.721  0.3030 -0.0025 -0.0559
 7373TIP3    H143534   5.411   2.374  15.654 -1.1728  0.6765  0.0766
 7373TIP3    H243535   5.448   2.329  15.794  0.2788  0.8082 -0.2459
 7374TIP3   OH243536   6.042   1.011   2.358 -0.4898 -0.1043 -0.5957
 7374TIP3    H143537   6.002   0.925   2.372  1.3677 -0.9378 -0.0651
 7374TIP3    H243538   6.025   1.059   2.439 -1.0033 -0.1751 -0.6546
 7375TIP3   OH243539   5.621   0.906  12.374  0.0857 -0.3437 -0.2043
 7375TIP3    H143540   5.710   0.885  12.401  0.5462  0.3699 -1.0955
 7375TIP3    H243541   5.607   0.853  12.295 -0.0059  0.0778 -0.4749
 7376TIP3   OH243542   2.953   3.807  17.276  0.3787 -0.1106 -0.1819
 7376TIP3    H143543   3.029   3.764  17.237  0.2456 -0.4476 -0.0788
 7376TIP3    H243544   2.878   3.756  17.244  0.2423 -0.1608  0.2088
 7377TIP3   OH243545   4.360   6.246   2.976 -0.0918 -0.8169 -0.0695
 7377TIP3    H143546   4.366   6.175   2.913 -1.0571  0.0458 -1.1865
 7377TIP3    H243547   4.268   6.248   3.002 -0.2643  0.5013 -0.6708
 7378TIP3   OH243548   5.278   4.746  11.840 -0.1038 -0.1385  0.3422
 7378TIP3    H143549   5.197   4.733  11.790  0.2272 -2.4742  0.2745
 7378TIP3    H243550   5.339   4.785  11.778 -0.7826  0.4144  0.0091
 7379TIP3   OH243551   2.129   6.265  12.604 -1.1252  0.1432  0.0937
 7379TIP3    H143552   2.090   6.335  12.655  0.8896 -0.2301  2.3313
 7379TIP3    H243553   2.162   6.308  12.525 -2.3725  1.1520  0.0962
 7380TIP3   OH243554   1.112   1.738   3.412 -0.2145  0.1413  0.5088
 7380TIP3    H143555   1.111   1.665   3.350  0.7584 -1.0195  1.8096
 7380TIP3    H243556   1.110   1.697   3.498 -1.9282  1.7270  1.2978
 7381TIP3   OH243557   3.172   1.093   0.753  0.1642 -0.4700 -0.3018
 7381TIP3    H143558   3.156   1.006   0.717 -0.7361 -1.5843  2.5039
 7381TIP3    H243559   3.087   1.123   0.783  1.0204 -0.3875  2.2808
 7382TIP3   OH243560   1.630   5.950  16.322  0.2466  0.5883 -0.2764
 7382TIP3    H143561   1.726   5.953  16.325  0.2826  0.1442  3.1771
 7382TIP3    H243562   1.606   6.028  16.271  2.4265  1.2652 -0.4037
 7383TIP3   OH243563   6.112   0.973   2.757 -0.4527  0.2523  0.0133
 7383TIP3    H143564   6.097   0.882   2.783 -1.9468  0.6310  0.5778
 7383TIP3    H243565   6.055   1.024   2.814 -1.3675  1.3642 -1.8086
 7384TIP3   OH243566   0.746   6.023  12.725 -0.2042 -0.2988  0.2547
 7384TIP3    H143567   0.839   6.001  12.719  0.0547  0.4490  1.3197
 7384TIP3    H243568   0.706   5.945  12.764  0.1822 -0.1686  0.9321
 7385TIP3   OH243569   1.831   1.811  12.341  0.3445  0.2517  0.0163
 7385TIP3    H143570   1.872   1.862  12.410  1.5227 -0.4764 -0.1150
 7385TIP3    H243571   1.751   1.776  12.380  1.8985 -1.6815  1.6708
 7386TIP3   OH243572   2.476   4.603   1.390 -0.1386  0.5726  0.0525
 7386TIP3    H143573   2.519   4.569   1.469 -2.3731 -1.1202  0.6536
 7386TIP3    H243574   2.450   4.525   1.342 -2.0658  1.4869 -0.4841
 7387TIP3   OH243575   2.916   1.903   4.467 -0.2686 -0.4050 -0.4454
 7387TIP3    H143576   2.853   1.887   4.538  0.6180 -1.7685  0.1020
 7387TIP3    H243577   2.863   1.917   4.390 -1.2651  0.5631  0.3897
 7388TIP3   OH243578   1.463   3.724   6.039  0.3872  0.0530  0.4701
 7388TIP3    H143579   1.527   3.773   6.091  0.7594 -0.1646  0.2241
 7388TIP3    H243580   1.486   3.633   6.054 -1.6216 -0.1867  2.6318
 7389TIP3   OH243581   1.620   2.865  14.680  0.0742 -0.3113 -0.0676
 7389TIP3    H143582   1.576   2.947  14.700  1.0189  0.1868 -0.0208
 7389TIP3    H243583   1.550   2.799  14.686 -1.2032  0.7230 -2.2707
 7390TIP3   OH243584   5.589   5.069   5.714 -0.1022  0.0976 -0.0512
 7390TIP3    H143585   5.674   5.025   5.716 -0.3767 -0.4469  0.2068
 7390TIP3    H243586   5.608   5.159   5.691  0.7479  0.4425  1.8308
 7391TIP3   OH243587   3.188   5.837   1.450 -0.3401 -0.7759 -0.4257
 7391TIP3    H143588   3.250   5.876   1.512  1.7179  0.1415 -2.8879
 7391TIP3    H243589   3.142   5.912   1.412 -2.6308 -1.4106  0.8995
 7392TIP3   OH243590   3.676   0.205   0.322 -0.4139 -0.2733 -0.1560
 7392TIP3    H143591   3.742   0.138   0.305 -0.1886 -0.4893  1.3561
 7392TIP3    H243592   3.724   0.288   0.317 -0.2733 -0.3570 -0.1917
 7393TIP3   OH243593   6.185   5.406  14.073 -0.5069  0.2365  0.1467
 7393TIP3    H143594   6.274   5.372  14.088  0.0993  1.9310  0.7248
 7393TIP3    H243595   6.151   5.420  14.162  0.5304  4.0326  0.1517
 7394TIP3   OH243596   2.287   5.194   2.309 -0.2166  0.1931 -0.1733
 7394TIP3    H143597   2.290   5.289   2.317 -0.5026  0.1109  1.1305
 7394TIP3    H243598   2.230   5.166   2.381  1.2219 -1.0884  0.5158
 7395TIP3   OH243599   4.953   4.666  15.434  0.1655 -0.2134  0.1207
 7395TIP3    H143600   4.882   4.651  15.371 -1.3119  1.2675  1.3513
 7395TIP3    H243601   4.933   4.751  15.474  2.2834 -0.0581  1.0122
 7396TIP3   OH243602   1.317   5.220   1.016 -0.0139  0.1380  0.6157
 7396TIP3    H143603   1.236   5.170   1.011  0.8616 -1.1876 -1.4931
 7396TIP3    H243604   1.376   5.165   1.068 -0.1734  0.7133  1.4275
 7397TIP3   OH243605   0.127   0.885  15.755  0.4579  0.0854  0.3238
 7397TIP3    H143606   0.056   0.837  15.713  0.6302 -0.8099  1.0075
 7397TIP3    H243607   0.152   0.952  15.692 -1.1535  0.5802  0.1746
 7398TIP3   OH243608   2.816   6.768   0.894 -0.1964 -0.1471 -0.1724
 7398TIP3    H143609   2.738   6.759   0.949  0.4711 -0.2797  0.7854
 7398TIP3    H243610   2.791   6.728   0.810 -0.8833 -0.9653  0.3980
 7399TIP3   OH243611   2.298   3.693  12.511  0.3928  0.6978 -0.0699
 7399TIP3    H143612   2.330   3.688  12.601 -1.2055  2.6065  0.6654
 7399TIP3    H243613   2.235   3.621  12.504  2.2854 -1.0242 -0.5202
 7400TIP3   OH243614   3.241   0.822  16.507  0.2271  0.0799 -0.1611
 7400TIP3    H143615   3.303   0.797  16.438 -1.2025 -1.4875 -0.9691
 7400TIP3    H243616   3.156   0.816  16.465 -0.5574  1.0091  1.2450
 7401TIP3   OH243617   5.160   5.894  16.889 -0.7124  0.0302  0.1596
 7401TIP3    H143618   5.166   5.989  16.899  3.0045  0.1983 -1.7163
 7401TIP3    H243619   5.216   5.860  16.959 -2.0549 -0.8417  0.8451
 7402TIP3   OH243620   3.513   2.150  11.149  0.8617  0.4323 -0.3082
 7402TIP3    H143621   3.606   2.172  11.140  1.0687  0.4052  1.4710
 7402TIP3    H243622   3.510   2.087  11.221 -0.3776 -0.8236 -1.4145
 7403TIP3   OH243623   3.072   3.903   1.242  0.1662 -0.1573 -0.1840
 7403TIP3    H143624   3.008   3.833   1.234 -0.4258  0.3207  0.3262
 7403TIP3    H243625   3.044   3.968   1.178  0.8563 -0.4787 -0.8312
 7404TIP3   OH243626   1.974   2.440   5.269  0.0843 -0.6308 -0.1629
 7404TIP3    H143627   2.027   2.414   5.344 -0.8176 -2.1311 -0.0110
 7404TIP3    H243628   1.921   2.513   5.300 -1.9547 -2.6593  1.4502
 7405TIP3   OH243629   2.410   2.087  13.180 -0.0273  0.4671  0.9435
 7405TIP3    H143630   2.493   2.069  13.224  0.7266 -0.4075 -0.7092
 7405TIP3    H243631   2.345   2.035  13.229  0.9791 -1.4427  0.3798
 7406TIP3   OH243632   4.663   2.945   0.183  0.5591 -0.6459  0.3997
 7406TIP3    H143633   4.623   2.917   0.100 -3.0615  1.0626  1.3944
 7406TIP3    H243634   4.596   2.930   0.249  1.2470  2.9519  2.1696
 7407TIP3   OH243635   5.239   4.186   5.675  0.0186 -0.3515  0.2699
 7407TIP3    H143636   5.302   4.191   5.747  0.7200 -2.0658 -0.1654
 7407TIP3    H243637   5.154   4.194   5.717  0.4730  0.4147  1.0728
 7408TIP3   OH243638   4.103   2.205   4.348 -0.4112  0.6702 -0.4496
 7408TIP3    H143639   4.150   2.229   4.269 -0.2530  0.1733 -0.5046
 7408TIP3    H243640   4.014   2.240   4.335 -1.3053 -1.9438 -2.1733
 7409TIP3   OH243641   1.821   1.818  11.511  0.4085 -0.2090  0.2681
 7409TIP3    H143642   1.818   1.913  11.503  2.0055  0.0348  1.7988
 7409TIP3    H243643   1.751   1.786  11.455  0.6602  1.8065 -1.2994
 7410TIP3   OH243644   5.172   2.600  11.837  0.0389  0.0361 -0.4587
 7410TIP3    H143645   5.116   2.523  11.851 -0.6561  0.5434 -0.4041
 7410TIP3    H243646   5.122   2.656  11.779  1.3440 -0.3768 -2.0818
 7411TIP3   OH243647   5.130   2.581   3.978  0.1585  0.1374 -0.1841
 7411TIP3    H143648   5.099   2.559   4.066 -2.2652 -0.1883 -1.0644
 7411TIP3    H243649   5.138   2.676   3.979  0.8224  0.0853  0.5741
 7412TIP3   OH243650   1.683   0.761  14.257  0.1026 -0.4654  0.0479
 7412TIP3    H143651   1.666   0.672  14.226  0.3588 -0.6507  0.4251
 7412TIP3    H243652   1.771   0.781  14.226 -0.8628  0.6517 -2.2634
 7413TIP3   OH243653   2.367   0.894   3.653 -0.1985  0.1286 -0.5788
 7413TIP3    H143654   2.272   0.904   3.666  0.2336  3.5964  0.8360
 7413TIP3    H243655   2.387   0.808   3.691 -2.7998 -0.9399 -1.4094
 7414TIP3   OH243656   0.937   4.690  13.819  0.4206  0.8510 -0.1864
 7414TIP3    H143657   0.845   4.686  13.794  0.2908 -1.1375  0.4215
 7414TIP3    H243658   0.985   4.677  13.738  0.0588 -1.9794 -0.0347
 7415TIP3   OH243659   0.994   6.234   2.820  0.0432  0.0354  0.1741
 7415TIP3    H143660   1.049   6.262   2.893 -1.8033  1.5723  1.0709
 7415TIP3    H243661   0.937   6.308   2.803 -1.3249 -1.2385 -1.1348
 7416TIP3   OH243662   6.560   3.943  16.516 -0.8433  0.5976 -0.1310
 7416TIP3    H143663   6.573   3.909  16.428  2.9346 -2.4376  1.2908
 7416TIP3    H243664   6.601   4.030  16.515  3.7254 -1.2850 -0.5008
 7417TIP3   OH243665   0.206   3.886   3.036 -0.0674  0.6405  0.3220
 7417TIP3    H143666   0.162   3.805   3.010  0.2371  0.7325 -0.4998
 7417TIP3    H243667   0.238   3.869   3.124  0.9843 -0.5482 -0.2716
 7418TIP3   OH243668   5.886   2.890   3.169 -0.1610  0.0346  0.4321
 7418TIP3    H143669   5.912   2.969   3.122 -1.5803  0.5738  0.5010
 7418TIP3    H243670   5.824   2.846   3.111  0.3276 -0.8452  0.5556
 7419TIP3   OH243671   4.261   3.033   6.399  0.2650  0.4110  0.5025
 7419TIP3    H143672   4.354   3.012   6.397  0.1556 -0.1372  1.0122
 7419TIP3    H243673   4.240   3.043   6.492 -0.1993  0.4697  0.3968
 7420TIP3   OH243674   3.183   6.198  14.560 -0.1767 -0.3000  0.0874
 7420TIP3    H143675   3.275   6.217  14.541 -0.4886 -1.1084 -2.6569
 7420TIP3    H243676   3.142   6.185  14.474 -2.9188  0.1865  1.1906
 7421TIP3   OH243677   4.613   2.636   1.485 -0.6720 -0.1142 -0.0714
 7421TIP3    H143678   4.527   2.672   1.510 -1.3051 -2.8875  2.1843
 7421TIP3    H243679   4.630   2.567   1.548  1.9495 -1.6151 -2.2057
 7422TIP3   OH243680   3.758   3.652   4.276 -0.1664 -0.0096 -0.2381
 7422TIP3    H143681   3.830   3.715   4.280  0.7202 -0.9369 -1.0827
 7422TIP3    H243682   3.728   3.655   4.185 -0.5563 -0.3290 -0.1229
 7423TIP3   OH243683   6.471   5.437  12.000  0.1656 -0.2901 -0.9548
 7423TIP3    H143684   6.388   5.404  12.033  1.3070 -1.3360  1.1244
 7423TIP3    H243685   6.488   5.386  11.921 -1.0749 -0.1877 -1.2947
 7424TIP3   OH243686   2.277   4.901   0.235 -0.0113 -0.1643  0.1042
 7424TIP3    H143687   2.328   4.908   0.154 -0.1737 -1.3222 -0.1283
 7424TIP3    H243688   2.192   4.938   0.214  0.7680  1.9931  0.5600
 7425TIP3   OH243689   2.967   2.962   5.237  0.0565  0.0606  0.5304
 7425TIP3    H143690   2.945   3.009   5.318 -0.6608 -0.1028  0.4327
 7425TIP3    H243691   2.885   2.958   5.188  0.5428  0.4046 -0.3383
 7426TIP3   OH243692   0.649   3.701  12.541 -0.1653  0.6106  0.4175
 7426TIP3    H143693   0.579   3.679  12.603 -2.3954  1.9834 -1.4352
 7426TIP3    H243694   0.636   3.640  12.469 -0.2146  1.6107 -0.4400
 7427TIP3   OH243695   2.865   5.328  15.560 -0.4072 -0.1477  0.5115
 7427TIP3    H143696   2.943   5.277  15.582 -0.7562 -0.5836  0.7348
 7427TIP3    H243697   2.794   5.285  15.607 -0.8394  0.0534  0.0466
 7428TIP3   OH243698   6.690   6.259  14.418  0.1063  0.0383 -0.5178
 7428TIP3    H143699   6.666   6.224  14.504 -0.8764 -0.1123 -0.8336
 7428TIP3    H243700   6.777   6.295  14.430 -0.1913  0.4153  0.6587
 7429TIP3   OH243701   5.234   6.748  12.193 -0.1230  0.5947 -0.2137
 7429TIP3    H143702   5.244   6.791  12.108  0.0832  0.3191 -0.3310
 7429TIP3    H243703   5.188   6.667  12.174 -0.5072  0.7603  0.0077
 7430TIP3   OH243704   3.569   6.571   5.288 -0.4672 -0.3740  0.2687
 7430TIP3    H143705   3.579   6.640   5.223  1.3492 -1.3407 -0.5572
 7430TIP3    H243706   3.581   6.615   5.372  2.5140  0.1259 -0.3091
 7431TIP3   OH243707   5.837   2.079   0.456 -0.3011  0.6100  0.0707
 7431TIP3    H143708   5.790   2.084   0.372  0.3670 -0.1711 -0.3610
 7431TIP3    H243709   5.891   2.000   0.449 -1.3873 -0.3601  1.8386
 7432TIP3   OH243710   0.926   5.856   6.254  0.4332  0.6140  0.0250
 7432TIP3    H143711   0.919   5.917   6.327  1.3694  0.4742  0.2476
 7432TIP3    H243712   1.015   5.822   6.261  0.0323 -0.5304 -0.2856
 7433TIP3   OH243713   6.573   5.128   4.551  0.2954  0.4391  0.2446
 7433TIP3    H143714   6.625   5.134   4.632  0.2971  0.2731  0.2578
 7433TIP3    H243715   6.564   5.033   4.536  0.2564  0.4688  0.0756
 7434TIP3   OH243716   4.674   5.807   0.657  0.3519  0.5561 -0.3229
 7434TIP3    H143717   4.654   5.899   0.674 -2.8491 -0.4025  2.0460
 7434TIP3    H243718   4.758   5.793   0.701  0.7877  2.2616 -0.5292
 7435TIP3   OH243719   2.045   1.591   0.052  0.1853 -0.0617 -0.3376
 7435TIP3    H143720   2.078   1.507   0.086 -0.9891 -0.6499 -0.6080
 7435TIP3    H243721   2.096   1.605  -0.028  0.9405 -0.1108  0.1171
 7436TIP3   OH243722   5.226   4.913  13.712 -0.5888  0.2201 -0.2834
 7436TIP3    H143723   5.206   4.998  13.752  1.4476  1.0601 -0.9485
 7436TIP3    H243724   5.317   4.920  13.683 -0.5615 -1.9809 -0.9391
 7437TIP3   OH243725   4.038   4.422  11.742  0.5684 -0.4261  0.3000
 7437TIP3    H143726   4.012   4.382  11.825  1.5025 -1.6049  0.0514
 7437TIP3    H243727   4.021   4.355  11.676 -0.4524  0.6039 -0.5376
 7438TIP3   OH243728   0.567   3.181  14.661  0.2024  0.1901 -0.5298
 7438TIP3    H143729   0.538   3.143  14.745  0.0183 -0.1282 -0.7337
 7438TIP3    H243730   0.630   3.248  14.686  0.5671 -0.2816 -0.1613
 7439TIP3   OH243731   1.178   2.667  15.790 -0.2132  0.1863 -0.6951
 7439TIP3    H143732   1.173   2.571  15.787 -0.3854  0.2107 -1.2545
 7439TIP3    H243733   1.269   2.686  15.768 -0.1378  0.1464 -0.4213
 7440TIP3   OH243734   2.054   1.006  14.648  0.0056  0.1287 -0.2319
 7440TIP3    H143735   2.123   0.957  14.605  1.6497  1.9155  0.2452
 7440TIP3    H243736   2.002   1.042  14.576  0.1329 -0.4349 -0.6126
 7441TIP3   OH243737   5.075   3.325  16.280 -0.1832  0.3068 -0.5898
 7441TIP3    H143738   5.116   3.243  16.306 -1.4720 -0.5026 -1.0138
 7441TIP3    H243739   5.137   3.393  16.307 -0.2818 -0.6072  2.3320
 7442TIP3   OH243740   4.653   1.677  12.701 -0.3132 -0.7124 -0.5522
 7442TIP3    H143741   4.665   1.772  12.700 -3.2433 -0.2209  0.7933
 7442TIP3    H243742   4.738   1.643  12.727  0.9323  1.4797 -1.4492
 7443TIP3   OH243743   4.380   6.161  12.691  0.0409 -0.3189  0.1413
 7443TIP3    H143744   4.308   6.117  12.736  0.9500 -0.9406  1.0398
 7443TIP3    H243745   4.339   6.202  12.615 -0.9659 -2.1854 -0.3967
 7444TIP3   OH243746   4.125   2.369  13.206  0.0913  0.6782 -0.8879
 7444TIP3    H143747   4.113   2.433  13.136  0.2664  2.4589  0.6504
 7444TIP3    H243748   4.220   2.365  13.219  0.0693  0.2451 -0.8348
 7445TIP3   OH243749   0.984   4.602  15.731  0.3214  0.3084 -0.0778
 7445TIP3    H143750   1.055   4.542  15.752 -0.9673 -1.0203  0.6993
 7445TIP3    H243751   1.020   4.689  15.746  1.4578 -0.3687  1.3509
 7446TIP3   OH243752   5.924   5.232  17.263 -0.4867 -0.1535 -0.3101
 7446TIP3    H143753   5.881   5.318  17.270 -2.0362 -0.8186 -1.0526
 7446TIP3    H243754   5.878   5.177  17.325  0.0972 -0.6096 -0.2756
 7447TIP3   OH243755   6.554   4.627  11.731 -0.4667  0.5749 -0.1315
 7447TIP3    H143756   6.582   4.535  11.734  1.7084  1.2120  1.2426
 7447TIP3    H243757   6.490   4.630  11.659 -0.1644 -1.8793 -0.5919
 7448TIP3   OH243758   0.762   1.335  16.868  0.2077  0.3748 -0.1292
 7448TIP3    H143759   0.847   1.317  16.829  0.2613  0.2348  0.0485
 7448TIP3    H243760   0.767   1.294  16.955 -0.9871 -1.9929 -1.0843
 7449TIP3   OH243761   1.353   4.834  16.006  0.3897  0.5513  0.3662
 7449TIP3    H143762   1.364   4.879  15.923 -2.4576 -0.6562 -0.7858
 7449TIP3    H243763   1.438   4.841  16.049  1.9384  1.2857 -2.5927
 7450TIP3   OH243764   6.728   1.612   2.344  0.6033  0.1065  0.1544
 7450TIP3    H143765   6.652   1.644   2.392 -1.3404 -3.5730 -0.0891
 7450TIP3    H243766   6.801   1.622   2.405 -0.4428  1.9127  1.1745
 7451TIP3   OH243767   3.909   6.372  13.463  0.0718  0.2733 -0.6224
 7451TIP3    H143768   3.987   6.325  13.434  0.1483  0.4624 -0.7183
 7451TIP3    H243769   3.943   6.447  13.513 -0.0385 -0.8497  1.2633
 7452TIP3   OH243770   4.335   3.875   3.992 -0.5491 -0.1690  0.1217
 7452TIP3    H143771   4.407   3.907   3.937 -0.8737 -1.4633 -1.1238
 7452TIP3    H243772   4.277   3.951   4.002  0.8051  0.8211  0.9221
 7453TIP3   OH243773   1.498   2.647  16.858  0.4596  0.3543 -0.0028
 7453TIP3    H143774   1.456   2.566  16.887 -0.3712  1.1792  1.2122
 7453TIP3    H243775   1.558   2.669  16.929  0.4561  0.9640 -0.1852
 7454TIP3   OH243776   0.622   1.476  13.317 -0.3286  0.5577 -0.5446
 7454TIP3    H143777   0.685   1.515  13.378  2.0221 -1.5018 -1.4732
 7454TIP3    H243778   0.672   1.463  13.236 -2.1109 -0.7114 -1.5210
 7455TIP3   OH243779   0.236   1.075   3.469  0.3455  0.2943  0.1202
 7455TIP3    H143780   0.170   1.106   3.532 -0.3791 -3.1141  1.3179
 7455TIP3    H243781   0.186   1.054   3.390  0.0724 -1.2396  0.6491
 7456TIP3   OH243782   4.889   5.735   5.315 -0.3113 -0.0643 -0.2773
 7456TIP3    H143783   4.903   5.652   5.362  1.5306  0.4582  0.1806
 7456TIP3    H243784   4.794   5.746   5.314 -0.5584 -1.7672  0.3772
 7457TIP3   OH243785   1.970   0.497  17.068 -0.7631 -0.0712 -0.4615
 7457TIP3    H143786   2.062   0.505  17.093 -0.6023 -3.3476  0.3926
 7457TIP3    H243787   1.957   0.567  17.004  2.1854  0.7886 -0.2713
 7458TIP3   OH243788   0.759   6.155   3.250 -0.4570  0.3466  0.3653
 7458TIP3    H143789   0.759   6.214   3.175 -1.0852  0.3573  0.3690
 7458TIP3    H243790   0.677   6.174   3.296 -1.3507 -1.4425 -0.3799
 7459TIP3   OH243791   2.412   4.078   3.425 -0.4025  0.0126  0.1080
 7459TIP3    H143792   2.394   4.171   3.417 -1.6341 -0.3381 -1.9961
 7459TIP3    H243793   2.491   4.064   3.374 -0.5079 -0.1565 -0.0121
 7460TIP3   OH243794   6.735   4.429  16.352 -0.0153  0.1009  0.2164
 7460TIP3    H143795   6.643   4.436  16.328  0.3098  1.1525 -0.7965
 7460TIP3    H243796   6.782   4.423  16.269  0.8955  0.5223  0.6824
 7461TIP3   OH243797   5.450   5.580  11.240 -0.1964  0.0733 -0.2828
 7461TIP3    H143798   5.515   5.649  11.229  0.8630 -0.8424  0.0442
 7461TIP3    H243799   5.493   5.501  11.209 -1.5821 -0.3724 -1.1612
 7462TIP3   OH243800   3.997   0.623  13.865 -0.2772 -0.5691  0.2651
 7462TIP3    H143801   4.058   0.676  13.916  0.1180 -1.6232  0.9233
 7462TIP3    H243802   3.993   0.540  13.911  0.0149 -1.5353 -1.3592
 7463TIP3   OH243803   3.809   2.049  12.911 -0.2518  0.0612  0.0568
 7463TIP3    H143804   3.832   2.133  12.950  1.5075  0.0731 -0.9101
 7463TIP3    H243805   3.819   2.063  12.817  0.6095 -1.3628 -0.0876
 7464TIP3   OH243806   5.755   0.972  10.682  0.0684  0.6568  0.0293
 7464TIP3    H143807   5.789   0.955  10.595 -0.7358  1.8227 -0.5403
 7464TIP3    H243808   5.662   0.949  10.677  0.2227 -0.2711  0.8988
 7465TIP3   OH243809   3.620   6.773   4.928 -0.3842  0.0091 -0.6166
 7465TIP3    H143810   3.660   6.686   4.930 -0.7504 -0.2286 -2.2162
 7465TIP3    H243811   3.693   6.834   4.934 -0.1997 -0.3563  1.7477
 7466TIP3   OH243812   6.589   3.449   0.645 -0.3541  0.4585 -1.4257
 7466TIP3    H143813   6.622   3.403   0.723 -1.2046  0.8987 -0.7866
 7466TIP3    H243814   6.668   3.477   0.599  0.1716  0.4970 -0.5274
 7467TIP3   OH243815   0.952   3.317  12.173 -0.1245  0.3679 -0.0550
 7467TIP3    H143816   0.956   3.349  12.263 -2.1723 -1.3721  0.7322
 7467TIP3    H243817   1.002   3.235  12.175  1.7336  1.4086 -1.1019
 7468TIP3   OH243818   2.122   5.744   4.809 -0.1483 -0.1251  0.3854
 7468TIP3    H143819   2.080   5.686   4.747 -0.3310  0.9683 -0.5336
 7468TIP3    H243820   2.187   5.792   4.758  1.8785 -1.3512  1.6381
 7469TIP3   OH243821   4.665   0.036  13.870 -0.1381  0.3050 -0.2038
 7469TIP3    H143822   4.755   0.063  13.851 -0.1428  0.0354 -0.6284
 7469TIP3    H243823   4.647  -0.035  13.807 -0.1580 -0.6218  0.8135
 7470TIP3   OH243824   3.355   3.244   2.854 -0.4871  0.3262  0.0153
 7470TIP3    H143825   3.411   3.166   2.844  0.1634  0.8450 -0.5071
 7470TIP3    H243826   3.324   3.263   2.766 -0.1402  1.0153  0.0343
 7471TIP3   OH243827   6.243   2.116  14.377  0.2349  0.4330 -0.1120
 7471TIP3    H143828   6.221   2.032  14.335 -1.2360  0.2169  1.0061
 7471TIP3    H243829   6.338   2.123  14.367  0.3103 -1.0519 -0.8043
 7472TIP3   OH243830   4.219   0.330  16.778 -0.0508  0.1086 -0.1973
 7472TIP3    H143831   4.245   0.252  16.828  0.6881  0.8464  0.5984
 7472TIP3    H243832   4.129   0.348  16.807 -0.3797 -0.6755 -0.6922
 7473TIP3   OH243833   5.562   5.502  13.935 -0.3039 -0.1718 -0.1178
 7473TIP3    H143834   5.528   5.554  14.008  3.4079 -1.7670  3.0728
 7473TIP3    H243835   5.652   5.533  13.923 -0.5326 -0.5231 -3.5976
 7474TIP3   OH243836   1.795   2.324   3.998 -0.0887 -0.7379 -0.4763
 7474TIP3    H143837   1.750   2.249   4.037 -0.3065  0.5591  1.9897
 7474TIP3    H243838   1.888   2.304   4.005 -0.1219 -0.5007  0.8760
 7475TIP3   OH243839   1.870   3.032   0.269 -0.5494 -0.1081 -0.3836
 7475TIP3    H143840   1.822   3.115   0.272 -0.1235  0.1271  0.4232
 7475TIP3    H243841   1.892   3.015   0.361  3.1138  1.1106 -0.8584
 7476TIP3   OH243842   3.627   5.854  11.650  0.1757  0.0047  0.8832
 7476TIP3    H143843   3.560   5.911  11.689  0.0350 -0.2976  1.0862
 7476TIP3    H243844   3.577   5.781  11.612  0.4107 -0.3751  1.2957
 7477TIP3   OH243845   5.190   1.317   3.957 -0.6152  0.1612 -0.1296
 7477TIP3    H143846   5.164   1.299   4.048 -0.1417 -2.9300 -0.4782
 7477TIP3    H243847   5.278   1.353   3.964 -0.5615 -0.0990  0.6527
 7478TIP3   OH243848   5.526   2.431   1.896  0.3816  0.3662  0.1888
 7478TIP3    H143849   5.477   2.498   1.943 -0.4914  0.1137 -0.3486
 7478TIP3    H243850   5.608   2.422   1.946  0.2745  1.4238  0.5789
 7479TIP3   OH243851   4.868   3.298  11.485 -0.3280 -0.2488 -0.1014
 7479TIP3    H143852   4.810   3.249  11.427 -0.7117 -0.7879  0.7124
 7479TIP3    H243853   4.855   3.389  11.461 -1.0792 -0.4083 -0.3189
 7480TIP3   OH243854   4.506   6.661  11.598 -0.2875  0.2822 -0.3361
 7480TIP3    H143855   4.518   6.665  11.503 -0.1019  0.2948 -0.3119
 7480TIP3    H243856   4.431   6.603  11.610 -1.0069  1.1441 -0.5349
 7481TIP3   OH243857   4.126   2.208   3.277 -0.4313  0.2104 -0.2820
 7481TIP3    H143858   4.123   2.120   3.314 -0.3571  0.3615  0.0826
 7481TIP3    H243859   4.156   2.195   3.187 -0.1471 -0.1089 -0.1424
 7482TIP3   OH243860   0.943   4.508   2.375  0.6051  0.0868  0.2847
 7482TIP3    H143861   0.884   4.576   2.407 -0.0866 -0.4533  0.1789
 7482TIP3    H243862   0.892   4.462   2.308  0.1714 -2.0378  1.9622
 7483TIP3   OH243863   3.721   3.349  13.446  1.1048  0.3135 -0.4450
 7483TIP3    H143864   3.709   3.375  13.355 -2.9995  1.4267  0.1884
 7483TIP3    H243865   3.662   3.274  13.457 -0.3494  1.6766  1.7400
 7484TIP3   OH243866   6.608   1.080  17.202  0.3984 -0.5141  0.3983
 7484TIP3    H143867   6.577   1.170  17.190  0.6866 -0.3189  1.0915
 7484TIP3    H243868   6.561   1.030  17.136 -0.0114  0.0908  0.2220
 7485TIP3   OH243869   1.893   0.824  15.310 -0.0070  0.1957 -0.0882
 7485TIP3    H143870   1.886   0.876  15.230 -0.8439  0.0909 -0.0970
 7485TIP3    H243871   1.809   0.778  15.316 -0.0118  0.3071  0.9117
 7486TIP3   OH243872   0.259   2.171   6.217  0.0109  0.1337 -0.4228
 7486TIP3    H143873   0.297   2.144   6.301  1.4963  1.9383 -0.4634
 7486TIP3    H243874   0.291   2.260   6.203  0.3463 -0.3283 -3.2234
 7487TIP3   OH243875   1.283   1.104   3.255  0.3730 -0.2484  0.7784
 7487TIP3    H143876   1.366   1.085   3.211  0.6319 -0.1223  1.2058
 7487TIP3    H243877   1.282   1.199   3.266 -0.0027 -0.2100  0.4413
 7488TIP3   OH243878   3.813   6.062   3.162  0.3894  0.4928  0.1210
 7488TIP3    H143879   3.752   6.136   3.161  0.1317  0.3072  1.0025
 7488TIP3    H243880   3.764   5.989   3.125  0.6093  0.7293 -0.6524
 7489TIP3   OH243881   3.541   5.778   1.984 -0.1505  0.0402 -0.1482
 7489TIP3    H143882   3.578   5.807   2.067  0.4491 -0.5198 -0.2046
 7489TIP3    H243883   3.548   5.854   1.926  1.0104 -0.0719 -0.1769
 7490TIP3   OH243884   5.156   5.903  15.068  0.1442  0.1151 -0.1702
 7490TIP3    H143885   5.138   5.937  14.980  3.4188 -0.3636 -1.1460
 7490TIP3    H243886   5.219   5.965  15.106  0.0264 -0.5706  1.2239
 7491TIP3   OH243887   4.650   4.600   5.868  0.2044 -0.2817  0.3477
 7491TIP3    H143888   4.635   4.684   5.826  2.2238  0.5419  1.1375
 7491TIP3    H243889   4.580   4.592   5.933 -0.7175  0.1823 -0.5560
 7492TIP3   OH243890   5.619   0.267  12.709 -0.2037 -0.5206  0.4834
 7492TIP3    H143891   5.547   0.257  12.771 -0.1561 -0.3290  0.5704
 7492TIP3    H243892   5.698   0.256  12.762 -0.1613 -0.2692  0.4734
 7493TIP3   OH243893   4.867   0.727   6.441 -0.0012  0.0335 -0.0594
 7493TIP3    H143894   4.783   0.744   6.399  0.1424 -0.0024 -0.3626
 7493TIP3    H243895   4.846   0.718   6.534 -0.2440  0.6766 -0.0432
 7494TIP3   OH243896   3.744   6.598  11.579 -0.1914  0.3988  0.7938
 7494TIP3    H143897   3.766   6.686  11.547 -1.2411 -0.0015 -1.1235
 7494TIP3    H243898   3.704   6.554  11.505  3.3455 -2.9279  0.5598
 7495TIP3   OH243899   6.728   1.833   0.302  0.4204 -0.0644  0.2571
 7495TIP3    H143900   6.743   1.745   0.269 -2.0426 -0.2628 -0.5518
 7495TIP3    H243901   6.721   1.888   0.224 -0.0696  0.4621  0.6556
 7496TIP3   OH243902   1.550   1.433  17.005  0.2246  0.5628  0.0386
 7496TIP3    H143903   1.611   1.380  17.057  2.0853 -0.2197 -2.6596
 7496TIP3    H243904   1.607   1.478  16.942 -1.8457  1.3427 -1.3564
 7497TIP3   OH243905   1.770   2.926  13.193  0.0663  0.2530 -0.5087
 7497TIP3    H143906   1.842   2.882  13.147  0.3063  0.1052 -0.0113
 7497TIP3    H243907   1.753   3.005  13.143  0.5259  0.2480 -0.6752
 7498TIP3   OH243908   0.049   2.269   6.549  0.5034 -0.2059  0.1384
 7498TIP3    H143909   0.088   2.347   6.510 -0.3277  0.3424  0.3776
 7498TIP3    H243910   0.116   2.236   6.609  1.4522 -0.5601 -1.0695
 7499TIP3   OH243911   3.423   5.017  13.033 -0.5057 -0.5306  0.5489
 7499TIP3    H143912   3.439   4.968  13.114 -2.0830 -1.3715  0.3951
 7499TIP3    H243913   3.344   4.977  12.996  0.3407 -0.3800 -1.5763
 7500TIP3   OH243914   4.524   6.686  12.747 -0.4771 -0.0873 -0.1607
 7500TIP3    H143915   4.604   6.738  12.735  0.4722 -1.8689 -2.3312
 7500TIP3    H243916   4.505   6.652  12.660 -2.2915 -1.6202  0.7707
 7501TIP3   OH243917   5.665   5.270  16.414  0.1460 -0.3711  0.3108
 7501TIP3    H143918   5.584   5.228  16.387 -0.2481  0.8583 -0.5200
 7501TIP3    H243919   5.636   5.346  16.465  0.8339 -1.1061  1.8620
 7502TIP3   OH243920   2.832   3.029   5.983 -0.3661  0.0627  0.5519
 7502TIP3    H143921   2.848   3.003   6.074  0.5879  1.1380  0.7215
 7502TIP3    H243922   2.854   2.952   5.931 -0.4077 -0.3922  1.1985
 7503TIP3   OH243923   3.898   5.592  10.519  0.1139 -0.5929 -0.0647
 7503TIP3    H143924   3.825   5.538  10.489 -0.0878  0.2772 -1.1795
 7503TIP3    H243925   3.929   5.637  10.440  0.8431  0.2497  0.6824
 7504TIP3   OH243926   4.528   6.650   0.948 -0.7636 -0.4268  0.4523
 7504TIP3    H143927   4.596   6.657   0.880 -0.2602  0.6544  1.0455
 7504TIP3    H243928   4.558   6.578   1.004 -0.3632 -0.2841  0.4276
 7505TIP3   OH243929   3.047   0.942   5.661 -0.3419  0.5227 -0.5100
 7505TIP3    H143930   3.129   0.981   5.692 -0.1093 -0.0517 -0.3820
 7505TIP3    H243931   3.006   1.011   5.608  0.1744  0.8500 -0.4959
 7506TIP3   OH243932   6.534   5.128   3.627  0.3121 -0.7118 -0.1174
 7506TIP3    H143933   6.569   5.055   3.576  1.9903 -1.1194  1.5209
 7506TIP3    H243934   6.611   5.177   3.656 -0.5539 -0.5122  2.0199
 7507TIP3   OH243935   3.766   2.382   3.302 -0.4924 -0.2386  0.3502
 7507TIP3    H143936   3.810   2.308   3.344 -1.2879 -0.6501  0.4812
 7507TIP3    H243937   3.679   2.384   3.342 -0.8965  0.0237 -0.5118
 7508TIP3   OH243938   3.453   0.409  15.852  0.4299  0.1394 -0.7127
 7508TIP3    H143939   3.496   0.338  15.804  1.2507  1.0477 -1.3809
 7508TIP3    H243940   3.371   0.371  15.883  0.4261 -0.8298 -1.8379
 7509TIP3   OH243941   5.285   3.419  11.081  1.3304 -0.4120 -0.3314
 7509TIP3    H143942   5.238   3.470  11.015  0.4421  2.3518  2.2116
 7509TIP3    H243943   5.365   3.470  11.097  0.9925 -0.3741  1.4442
 7510TIP3   OH243944   1.226   5.986  13.458  0.3002 -0.1337 -0.2952
 7510TIP3    H143945   1.285   6.056  13.431 -2.2297  1.9537 -0.9220
 7510TIP3    H243946   1.173   5.969  13.380  0.2267 -2.1175  0.1422
 7511TIP3   OH243947   3.283   5.994  15.710 -0.4346 -0.0853  0.9508
 7511TIP3    H143948   3.231   6.075  15.703  0.6098  0.5733  0.5680
 7511TIP3    H243949   3.320   5.982  15.622 -0.2400 -0.7504  1.1218
 7512TIP3   OH243950   6.297   4.977   3.019 -0.6123  0.1314  0.2333
 7512TIP3    H143951   6.319   4.953   2.929 -0.0015  1.2385  0.0746
 7512TIP3    H243952   6.374   5.024   3.051 -0.6401 -0.6484  1.5008
 7513TIP3   OH243953   1.213   2.550  10.514 -0.1606 -0.0067 -0.6237
 7513TIP3    H143954   1.153   2.602  10.567  0.7750  0.1118  0.3757
 7513TIP3    H243955   1.285   2.610  10.493  0.0337 -0.3771 -1.0393
 7514TIP3   OH243956   4.388   4.801   2.095  0.6846  0.1213  0.2527
 7514TIP3    H143957   4.394   4.818   2.001  0.8451  0.0936  0.2574
 7514TIP3    H243958   4.356   4.882   2.133  1.5928  0.4702  0.2951
 7515TIP3   OH243959   5.467   1.040   1.069  0.6113  0.3387  0.5186
 7515TIP3    H143960   5.528   1.048   1.142  0.8117 -0.2456  0.4188
 7515TIP3    H243961   5.511   0.982   1.007 -0.4701 -0.9263  0.9025
 7516TIP3   OH243962   2.868   1.976  13.547 -0.2630  0.2511 -0.2436
 7516TIP3    H143963   2.964   1.979  13.552 -0.1950  0.2876 -1.4468
 7516TIP3    H243964   2.844   1.908  13.610  0.4815  0.8216  0.7045
 7517TIP3   OH243965   5.580   4.120  15.224 -0.3078  0.1529 -0.0411
 7517TIP3    H143966   5.620   4.178  15.289 -0.0302 -0.4508  0.3372
 7517TIP3    H243967   5.489   4.111  15.253 -0.4656  0.7471 -0.3489
 7518TIP3   OH243968   3.188   4.425   5.533 -0.1757  0.0066 -0.0812
 7518TIP3    H143969   3.266   4.387   5.494  0.6208 -1.2288  2.5024
 7518TIP3    H243970   3.128   4.352   5.546  0.1054  0.0993  2.0807
 7519TIP3   OH243971   1.859   4.711  16.609  0.2761  0.2226 -0.6716
 7519TIP3    H143972   1.929   4.672  16.558  1.6542  1.9713 -0.2197
 7519TIP3    H243973   1.899   4.787  16.652 -1.1829 -0.2854  1.8140
 7520TIP3   OH243974   3.869   1.875  13.110  0.1895 -0.2315 -0.3460
 7520TIP3    H143975   3.850   1.941  13.043 -0.5384  0.3893  0.4453
 7520TIP3    H243976   3.887   1.795  13.060 -1.8524 -0.1933 -1.2689
 7521TIP3   OH243977   3.370   4.614  12.785 -0.1225 -0.3421 -0.2947
 7521TIP3    H143978   3.284   4.580  12.807 -1.0667  0.6113 -2.2466
 7521TIP3    H243979   3.398   4.561  12.710  1.4389 -1.2507  0.8725
 7522TIP3   OH243980   1.329   3.362  12.502 -0.2975  0.4266  0.1000
 7522TIP3    H143981   1.252   3.336  12.553 -0.0692  0.5839  0.5213
 7522TIP3    H243982   1.382   3.283  12.497  0.5196  0.8496  1.5960
 7523TIP3   OH243983   5.265   4.716   1.280  0.6712 -0.1884 -1.0101
 7523TIP3    H143984   5.215   4.787   1.322  1.0409 -0.1623 -0.6034
 7523TIP3    H243985   5.338   4.700   1.340  0.6169 -0.8846 -1.1167
 7524TIP3   OH243986   0.140   3.336   2.232  0.2033  0.4367 -0.6598
 7524TIP3    H143987   0.091   3.255   2.244  1.9448 -0.7337 -0.9995
 7524TIP3    H243988   0.133   3.380   2.317  0.1435 -0.6201 -0.0914
 7525TIP3   OH243989   5.845   4.916  15.954 -0.5650 -0.0086 -0.5526
 7525TIP3    H143990   5.852   4.884  15.865  2.1327  0.5346 -0.6296
 7525TIP3    H243991   5.856   5.011  15.947  0.5682 -0.0407  0.3854
 7526TIP3   OH243992   1.212   2.156   2.551  0.4906 -0.1363 -0.4878
 7526TIP3    H143993   1.140   2.148   2.614  1.6638 -2.5912  0.6685
 7526TIP3    H243994   1.232   2.250   2.550  0.2895  0.0555  2.6973
 7527TIP3   OH243995   0.364   5.052   1.089 -0.0041  0.5443  0.1443
 7527TIP3    H143996   0.319   5.073   1.170  0.1181  3.2773 -0.3970
 7527TIP3    H243997   0.411   5.132   1.066 -0.3302  0.0029 -2.8211
 7528TIP3   OH243998   0.023   5.325  14.872 -0.6789 -0.2533 -0.4970
 7528TIP3    H143999   0.086   5.312  14.942  1.0049  0.3133 -1.8246
 7528TIP3    H244000   0.008   5.238  14.836  3.0050 -0.0641 -3.0816
 7529TIP3   OH244001   6.100   5.254  15.811 -0.1113 -0.3473 -0.1543
 7529TIP3    H144002   6.081   5.295  15.895  1.3003  0.7855 -0.3512
 7529TIP3    H244003   6.021   5.268  15.759 -0.0776  1.2040  0.1509
 7530TIP3   OH244004   4.900   3.990   3.924 -0.1788  0.0972  0.4148
 7530TIP3    H144005   4.958   3.982   4.000  2.0859  1.7275 -1.0108
 7530TIP3    H244006   4.904   3.905   3.880  1.2193  0.2048  0.3101
 7531TIP3   OH244007   5.811   1.131   3.505 -0.1964  0.1558 -1.0996
 7531TIP3    H144008   5.833   1.157   3.595 -1.6991 -1.0110 -0.3647
 7531TIP3    H244009   5.717   1.146   3.498 -0.4702 -1.6717 -1.7961
 7532TIP3   OH244010   3.789   3.462  13.967  0.3252  0.1225 -0.4564
 7532TIP3    H144011   3.841   3.537  13.997  1.5611 -1.0634  0.4314
 7532TIP3    H244012   3.814   3.451  13.875  1.2221 -0.0665 -0.2015
 7533TIP3   OH244013   1.556   6.379   4.810 -0.5920 -0.2240 -0.1793
 7533TIP3    H144014   1.465   6.396   4.785 -1.0664  1.0288  2.1597
 7533TIP3    H244015   1.551   6.322   4.886  0.5597  0.0325  0.1134
 7534TIP3   OH244016   4.038   3.010  15.791  0.2562 -0.2582 -0.2272
 7534TIP3    H144017   4.050   3.094  15.836  1.1930  0.0207 -0.9576
 7534TIP3    H244018   4.097   2.951  15.837  0.4493 -0.2262 -0.4306
 7535TIP3   OH244019   0.779   1.433   6.293 -0.0130  0.0302 -0.2139
 7535TIP3    H144020   0.786   1.528   6.302  1.2204 -0.0024 -0.5804
 7535TIP3    H244021   0.801   1.415   6.202 -0.9997 -0.5535 -0.3470
 7536TIP3   OH244022   6.730   6.198   3.968 -0.2631 -0.0750 -0.4080
 7536TIP3    H144023   6.794   6.193   4.039 -0.5514  0.3123 -0.1141
 7536TIP3    H244024   6.645   6.205   4.013 -0.4261  0.3963 -0.7903
 7537TIP3   OH244025   4.933   0.053   2.857 -0.1933 -0.0265 -0.6356
 7537TIP3    H144026   4.849   0.050   2.903 -0.6279  1.7079 -1.2072
 7537TIP3    H244027   4.909   0.050   2.764  0.3499  0.6509 -0.8060
 7538TIP3   OH244028   5.179   2.081  15.286  0.3501  0.3688 -0.4553
 7538TIP3    H144029   5.270   2.090  15.257  0.9478  0.5813  1.3891
 7538TIP3    H244030   5.181   2.098  15.380 -1.1048 -2.5602  0.2507
 7539TIP3   OH244031   4.807   1.077   5.646  0.0427  0.2978  0.4735
 7539TIP3    H144032   4.861   1.147   5.681 -0.3900  0.1849  1.4083
 7539TIP3    H244033   4.866   1.027   5.589  0.0940  1.9749 -1.0031
 7540TIP3   OH244034   3.693   4.699   0.094 -0.2041  0.1265  0.0004
 7540TIP3    H144035   3.777   4.745   0.096  0.0340 -0.0786 -2.1617
 7540TIP3    H244036   3.697   4.645   0.015 -2.3800  0.1442 -0.1907
 7541TIP3   OH244037   4.773   2.275   6.625  0.1650 -0.2706  0.6789
 7541TIP3    H144038   4.825   2.285   6.705  1.3008  1.2709 -0.1882
 7541TIP3    H244039   4.734   2.361   6.612 -0.9710 -0.8432  0.1806
 7542TIP3   OH244040   2.886   1.729   4.129  0.4048  0.2762 -0.4775
 7542TIP3    H144041   2.818   1.691   4.184 -0.2004  1.0636 -0.6726
 7542TIP3    H244042   2.928   1.654   4.087  0.2962 -0.2748  0.3755
 7543TIP3   OH244043   5.749   3.595  11.117  0.2919 -0.1808 -0.2535
 7543TIP3    H144044   5.806   3.543  11.174 -1.2432 -0.4293  1.1112
 7543TIP3    H244045   5.756   3.553  11.032  1.5463 -0.6657  0.0629
 7544TIP3   OH244046   2.286   0.758  14.725  0.2954 -0.1302 -0.1537
 7544TIP3    H144047   2.207   0.749  14.779  1.4970 -1.1263  1.5408
 7544TIP3    H244048   2.261   0.722  14.640 -1.2595  0.1823  0.1453
 7545TIP3   OH244049   1.614   6.200  16.228  0.1818 -0.0766 -0.0908
 7545TIP3    H144050   1.570   6.186  16.145  1.1933 -2.2918 -0.3342
 7545TIP3    H244051   1.650   6.289  16.222 -0.1152 -0.0506 -1.8322
 7546TIP3   OH244052   2.525   3.123   5.041 -0.5134 -0.7216 -0.1537
 7546TIP3    H144053   2.449   3.135   5.098  0.4254  0.0398  0.9823
 7546TIP3    H244054   2.516   3.192   4.975 -0.1136  0.2532  0.7807
 7547TIP3   OH244055   4.547   4.172  14.769 -0.5751 -0.4233 -0.4743
 7547TIP3    H144056   4.602   4.179  14.847 -0.1837  0.8031 -0.8522
 7547TIP3    H244057   4.581   4.095  14.722  0.4017 -0.0517 -0.3852
 7548TIP3   OH244058   3.783   0.918   4.913 -0.4438 -0.2134  0.5882
 7548TIP3    H144059   3.755   0.832   4.884 -0.5787 -0.8442  2.4518
 7548TIP3    H244060   3.876   0.922   4.892 -0.3910 -0.8934  0.6851
 7549TIP3   OH244061   2.607   1.353  15.578  0.2181  0.3205  0.7541
 7549TIP3    H144062   2.686   1.347  15.631  0.7606 -1.5520 -0.2083
 7549TIP3    H244063   2.572   1.441  15.598  2.9525  1.5488  0.5632
 7550TIP3   OH244064   4.042   3.465  11.052  0.2890  0.1147 -0.0357
 7550TIP3    H144065   3.962   3.414  11.059 -0.4459  1.2281  0.0431
 7550TIP3    H244066   4.101   3.411  11.000 -1.1783  0.0169 -1.7030
 7551TIP3   OH244067   1.121   6.766  14.787 -0.3819  0.1903 -0.0749
 7551TIP3    H144068   1.141   6.844  14.735  1.1750 -0.5204 -0.6223
 7551TIP3    H244069   1.200   6.712  14.780 -1.9393 -2.1548 -1.0286
 7552TIP3   OH244070   4.129   5.612   1.079  0.0473 -0.1606 -0.4779
 7552TIP3    H144071   4.211   5.580   1.116 -0.7991 -0.0857  1.6143
 7552TIP3    H244072   4.061   5.574   1.135 -1.3917 -0.4389 -2.3032
 7553TIP3   OH244073   4.221   4.073   0.404 -0.4111 -0.1453  0.2495
 7553TIP3    H144074   4.255   4.037   0.486 -0.4554 -0.3298  0.1860
 7553TIP3    H244075   4.297   4.074   0.345 -0.6930 -1.3416 -0.1647
 7554TIP3   OH244076   3.353   6.186  12.554 -0.0551 -0.1780 -0.0382
 7554TIP3    H144077   3.388   6.152  12.472  2.3738 -0.0077  0.8471
 7554TIP3    H244078   3.322   6.109  12.602 -2.7511 -0.1774 -1.5388
 7555TIP3   OH244079   4.025   3.381   5.710 -0.3120 -0.3599  0.1191
 7555TIP3    H144080   4.051   3.404   5.620  1.2734  0.6878  0.8048
 7555TIP3    H244081   4.080   3.306   5.732 -0.9730 -0.8589  0.0957
 7556TIP3   OH244082   2.465   0.316  14.214  0.3704 -0.1447  0.5103
 7556TIP3    H144083   2.516   0.372  14.272 -1.4166  1.9006  0.2257
 7556TIP3    H244084   2.384   0.299  14.263  0.1703 -1.0825 -0.1157
 7557TIP3   OH244085   4.672   6.467  15.618 -0.5658 -0.1200  0.3568
 7557TIP3    H144086   4.735   6.395  15.612 -0.0030  0.4544 -1.1527
 7557TIP3    H244087   4.594   6.428  15.656 -0.0549 -1.3801  0.1514
 7558TIP3   OH244088   3.097   2.415   6.040  0.3338 -0.2476  0.2339
 7558TIP3    H144089   3.109   2.379   5.952 -0.5402  1.0882 -0.4655
 7558TIP3    H244090   3.013   2.460   6.036 -0.8221 -1.9687  2.3968
 7559TIP3   OH244091   5.310   1.925  13.199 -0.4036 -0.0384 -0.2663
 7559TIP3    H144092   5.347   1.846  13.160  1.5712  1.3506 -1.3792
 7559TIP3    H244093   5.274   1.974  13.125  0.5152  1.1765  0.0670
 7560TIP3   OH244094   4.574   3.341   6.293  0.1396  0.2438 -0.3510
 7560TIP3    H144095   4.547   3.424   6.331  0.2852  0.4288 -0.6540
 7560TIP3    H244096   4.589   3.284   6.369  1.3666  0.8962 -0.0832
 7561TIP3   OH244097   0.325   3.446   1.267 -0.0813 -0.6518  0.1139
 7561TIP3    H144098   0.274   3.378   1.222 -1.4490 -0.6667  1.5579
 7561TIP3    H244099   0.407   3.403   1.290 -0.4491 -1.4590 -0.0308
 7562TIP3   OH244100   0.125   2.424  14.937 -0.2668  0.5071  0.2107
 7562TIP3    H144101   0.182   2.356  14.974  1.6200  1.0102 -1.5989
 7562TIP3    H244102   0.085   2.382  14.860 -0.6759  0.8402  0.2380
 7563TIP3   OH244103   0.316   6.266  13.159  0.1078 -0.0706  0.2798
 7563TIP3    H144104   0.376   6.219  13.101 -1.1982 -0.7182 -0.6087
 7563TIP3    H244105   0.368   6.286  13.237  1.0110 -2.1662  0.3005
 7564TIP3   OH244106   4.139   2.018  16.242  0.2090  0.5172  0.1338
 7564TIP3    H144107   4.120   2.111  16.227  1.1409  0.5824 -0.7448
 7564TIP3    H244108   4.203   1.995  16.175 -0.3223 -0.8810  0.0634
 7565TIP3   OH244109   4.910   1.787   0.318  0.5649  0.4538  0.2392
 7565TIP3    H144110   4.919   1.697   0.286  1.3308  0.0253  1.5768
 7565TIP3    H244111   4.976   1.837   0.271  0.2747  0.2866 -0.3597
 7566TIP3   OH244112   2.396   5.918   0.794 -0.0167 -0.4296 -0.6444
 7566TIP3    H144113   2.370   5.829   0.819  1.8192 -1.0981 -0.9604
 7566TIP3    H244114   2.387   5.969   0.874 -3.1596 -0.3373 -0.9466
 7567TIP3   OH244115   0.205   6.498  16.946  0.0278  0.2779  0.2429
 7567TIP3    H144116   0.204   6.451  17.030 -0.9179 -0.9396 -0.4034
 7567TIP3    H244117   0.294   6.485  16.912 -0.2094 -1.1088  0.0791
 7568TIP3   OH244118   3.176   1.217  15.278 -0.0203  0.2631  0.0948
 7568TIP3    H144119   3.172   1.312  15.264 -0.7934  0.5272  1.7975
 7568TIP3    H244120   3.085   1.188  15.278  0.2537 -0.6782 -1.4364
 7569TIP3   OH244121   5.054   0.820   3.884  0.3790 -0.5515  0.4694
 7569TIP3    H144122   5.095   0.780   3.808 -2.1368  2.0061 -2.5140
 7569TIP3    H244123   5.009   0.747   3.928  0.2307 -1.8577 -1.7186
 7570TIP3   OH244124   1.353   0.951   0.613  0.2871 -0.0363  0.1329
 7570TIP3    H144125   1.446   0.958   0.590  0.2869  0.0756  0.1657
 7570TIP3    H244126   1.319   0.884   0.553  0.1286  0.7554 -0.6774
 7571TIP3   OH244127   5.041   4.507  14.727  0.0546  0.8855  0.0141
 7571TIP3    H144128   4.987   4.484  14.650 -1.2677 -0.0351  1.1639
 7571TIP3    H244129   4.978   4.514  14.799  1.3471  1.0247  1.1678
 7572TIP3   OH244130   6.057   3.000  15.832 -0.3897  0.2006  0.1787
 7572TIP3    H144131   6.093   2.946  15.761 -1.5351  0.6581 -0.7659
 7572TIP3    H244132   6.089   2.957  15.911 -3.0702 -3.3083 -0.3953
 7573TIP3   OH244133   0.316   2.532  15.507 -0.5403  0.0568  0.5223
 7573TIP3    H144134   0.315   2.437  15.516  0.7479 -0.1973 -1.3775
 7573TIP3    H244135   0.398   2.559  15.549  0.2432  0.0407 -0.9572
 7574TIP3   OH244136   4.252   6.459   4.593 -0.1440  0.3048 -0.7107
 7574TIP3    H144137   4.323   6.450   4.531 -0.2912  2.3231 -1.2314
 7574TIP3    H244138   4.295   6.472   4.678  0.1126  1.3010 -0.9897
 7575TIP3   OH244139   2.228   6.404  16.178  0.5701 -0.3469  0.1262
 7575TIP3    H144140   2.289   6.439  16.243  0.8179 -0.5197 -0.0067
 7575TIP3    H244141   2.221   6.473  16.112 -0.8251  0.4295  1.0525
 7576TIP3   OH244142   3.770   1.880  15.868  0.2464 -0.9335 -0.0891
 7576TIP3    H144143   3.738   1.789  15.864 -2.0966 -0.1470 -1.0542
 7576TIP3    H244144   3.820   1.884  15.949 -0.2260 -2.9179  0.3543
 7577TIP3   OH244145   2.583   0.552   2.048  0.1451  0.1596  0.5014
 7577TIP3    H144146   2.496   0.592   2.050  0.5596  1.1900 -0.6378
 7577TIP3    H244147   2.619   0.568   2.135 -0.4519  0.5535  0.6812
 7578TIP3   OH244148   3.342   1.053  11.347 -0.2209  0.3925 -0.2367
 7578TIP3    H144149   3.281   1.099  11.404  0.8311 -0.2667  1.4840
 7578TIP3    H244150   3.368   1.119  11.283 -0.9653  1.3382  0.3958
 7579TIP3   OH244151   6.334   3.001  16.181 -0.6808 -0.3793  0.0719
 7579TIP3    H144152   6.369   2.919  16.214 -0.2384  0.5144  1.9694
 7579TIP3    H244153   6.407   3.063  16.186 -0.9606  0.1220 -1.4676
 7580TIP3   OH244154   2.049   3.303   4.065 -0.9132 -0.6173 -0.7314
 7580TIP3    H144155   2.107   3.379   4.064 -0.2422 -1.0947  0.2017
 7580TIP3    H244156   2.033   3.284   3.973  1.4492 -1.2250 -1.0679
 7581TIP3   OH244157   5.683   4.574  16.946 -0.3949 -0.1345  0.3672
 7581TIP3    H144158   5.760   4.542  16.993 -0.4083  0.1357  0.5763
 7581TIP3    H244159   5.642   4.494  16.912  0.5236 -0.2113 -0.6166
 7582TIP3   OH244160   6.128   2.124  11.648 -0.1272 -0.3176  0.1931
 7582TIP3    H144161   6.105   2.175  11.725  0.8465  2.4437 -1.2041
 7582TIP3    H244162   6.047   2.120  11.597 -0.2688 -0.3719  0.4232
 7583TIP3   OH244163   4.947   5.786   0.779 -0.1521 -0.3458 -0.1593
 7583TIP3    H144164   4.968   5.839   0.856  1.9185  0.5592 -1.2780
 7583TIP3    H244165   4.993   5.704   0.793 -0.8537 -0.6993  0.1435
 7584TIP3   OH244166   2.919   4.687  14.462  0.8798  0.2751 -0.1667
 7584TIP3    H144167   2.863   4.748  14.510  1.3354 -0.1906  0.9954
 7584TIP3    H244168   2.975   4.649  14.529 -0.2529 -2.4046 -0.6124
 7585TIP3   OH244169   4.775   3.341  14.359 -0.0482 -0.1499 -0.5889
 7585TIP3    H144170   4.765   3.326  14.265 -0.4003 -0.1551 -0.5535
 7585TIP3    H244171   4.773   3.436  14.369 -0.3055 -0.1561 -0.5602
 7586TIP3   OH244172   5.542   1.213  12.015 -0.4596  0.5741  0.0046
 7586TIP3    H144173   5.549   1.202  12.109  0.0002  0.7899 -0.0035
 7586TIP3    H244174   5.460   1.260  12.002 -1.2934 -0.7460  0.1957
 7587TIP3   OH244175   6.069   4.530  16.465 -0.1561 -0.2137 -0.4143
 7587TIP3    H144176   6.111   4.470  16.527 -0.5613 -0.7104 -0.6095
 7587TIP3    H244177   6.034   4.600  16.520 -0.0224 -0.3608 -0.1358
 7588TIP3   OH244178   5.319   3.845   1.590  0.3122  0.5151  0.0670
 7588TIP3    H144179   5.276   3.921   1.551 -0.3998  0.5835  0.9450
 7588TIP3    H244180   5.320   3.863   1.684  0.6922 -0.2773  0.2245
 7589TIP3   OH244181   1.062   0.618   1.182  0.3728 -0.3130 -0.3057
 7589TIP3    H144182   1.133   0.680   1.199 -0.8644  1.1258 -0.2243
 7589TIP3    H244183   1.086   0.574   1.101  2.0150 -0.8559  0.4379
 7590TIP3   OH244184   4.271   5.028  16.447 -0.1077 -0.7187  0.0517
 7590TIP3    H144185   4.225   5.093  16.394 -1.1073  0.0270  1.7392
 7590TIP3    H244186   4.324   5.080  16.507  1.2044 -1.5468 -0.3610
 7591TIP3   OH244187   6.058   4.685  13.690 -0.0369  0.4718 -0.2335
 7591TIP3    H144188   5.987   4.672  13.627 -0.0478  1.0814 -0.3614
 7591TIP3    H244189   6.076   4.779  13.685 -1.0265  0.8118  1.7399
 7592TIP3   OH244190   6.131   3.998   3.675  0.1831 -0.2458 -0.5446
 7592TIP3    H144191   6.129   4.026   3.766 -0.3977  0.3294 -0.7302
 7592TIP3    H244192   6.099   3.907   3.676  3.5987 -1.5976  0.2712
 7593TIP3   OH244193   0.839   0.966  12.862  0.1202 -0.1029 -0.1562
 7593TIP3    H144194   0.896   0.979  12.937  0.5687  0.7663 -0.6325
 7593TIP3    H244195   0.896   0.930  12.794  0.1501  0.9125 -0.6840
 7594TIP3   OH244196   0.477   2.680  14.906  0.0494 -0.2019  0.2972
 7594TIP3    H144197   0.391   2.680  14.947 -1.4379 -1.4186 -2.5161
 7594TIP3    H244198   0.477   2.602  14.849  2.9534 -0.1616  0.0661
 7595TIP3   OH244199   4.954   6.558   3.992 -0.6074 -0.2108 -0.0342
 7595TIP3    H144200   4.957   6.465   4.016  1.9537  0.5343  3.2926
 7595TIP3    H244201   5.036   6.575   3.946 -1.6724  0.2312 -1.8998
 7596TIP3   OH244202   6.010   3.916  16.049 -0.6544 -0.2053 -0.2902
 7596TIP3    H144203   5.987   3.897  15.958 -0.7856  0.7964 -0.4844
 7596TIP3    H244204   6.012   4.012  16.053  1.5193 -0.2201  0.2240
 7597TIP3   OH244205   3.610   0.466   5.271 -0.2814 -0.0845  0.2813
 7597TIP3    H144206   3.686   0.480   5.327  0.1564  3.0218 -0.8945
 7597TIP3    H244207   3.535   0.485   5.328 -0.0472 -0.6098  0.7732
 7598TIP3   OH244208   0.096   2.472  14.540  0.1574 -0.0168  0.1692
 7598TIP3    H144209   0.022   2.481  14.479  2.0207  0.0067 -2.2562
 7598TIP3    H244210   0.131   2.561  14.548  0.3259 -0.1372  0.7515
 7599TIP3   OH244211   2.342   1.678   1.040 -0.3258 -0.0179 -0.0266
 7599TIP3    H144212   2.257   1.647   1.007 -0.6428  1.5632 -0.7837
 7599TIP3    H244213   2.320   1.733   1.115 -0.0152  0.7894 -0.5215
 7600TIP3   OH244214   2.910   0.459  13.167  0.3170  0.4024  0.1539
 7600TIP3    H144215   2.925   0.365  13.152  0.9259  0.2912  1.3398
 7600TIP3    H244216   2.937   0.501  13.085  2.6406 -0.2421  0.5061
 7601TIP3   OH244217   4.925   2.941  12.016  0.4567 -0.7955  0.2374
 7601TIP3    H144218   4.846   2.964  11.967  0.5371 -1.2322 -0.1021
 7601TIP3    H244219   4.990   3.005  11.988  0.1770 -0.3206  0.6559
 7602TIP3   OH244220   3.314   2.539  16.320  0.2110 -0.0609 -0.6562
 7602TIP3    H144221   3.383   2.491  16.273  2.2347 -0.4255  2.3698
 7602TIP3    H244222   3.361   2.606  16.370 -1.8522  0.7933  0.2497
 7603TIP3   OH244223   2.220   4.147  12.126  0.1753  0.3123  0.3895
 7603TIP3    H144224   2.212   4.142  12.031 -2.0930  0.8201  0.5025
 7603TIP3    H244225   2.165   4.075  12.159  0.1144  0.7685  1.3200
 7604TIP3   OH244226   0.759   5.294   3.731 -0.1960  0.1531  0.1793
 7604TIP3    H144227   0.800   5.310   3.816  1.0264 -0.4492 -0.2673
 7604TIP3    H244228   0.831   5.264   3.675 -0.7504  1.5402 -1.3733
 7605TIP3   OH244229   3.412   5.359  11.569  0.2734  0.1839  0.1106
 7605TIP3    H144230   3.354   5.435  11.574  0.2299  0.3201 -1.6336
 7605TIP3    H244231   3.484   5.388  11.512  0.1968 -1.1077 -0.6685
 7606TIP3   OH244232   6.138   5.463  17.144 -0.1944 -0.0154 -0.2773
 7606TIP3    H144233   6.111   5.478  17.053 -2.5929 -2.5595 -0.1012
 7606TIP3    H244234   6.057   5.453  17.193  1.0480  0.0725  1.9479
 7607TIP3   OH244235   6.319   5.788  14.105  0.0951 -0.0638  0.1351
 7607TIP3    H144236   6.355   5.831  14.028  0.5503 -1.8705 -0.7142
 7607TIP3    H244237   6.362   5.702  14.107 -0.0273 -0.1280  2.3117
 7608TIP3   OH244238   2.434   6.039   0.553 -0.0312  0.1823 -0.5361
 7608TIP3    H144239   2.388   6.123   0.548  0.9648  0.6792 -1.9768
 7608TIP3    H244240   2.404   6.000   0.635  1.3157  3.0749  1.5239
 7609TIP3   OH244241   5.027   6.086   3.082  0.1597  0.2464  0.1309
 7609TIP3    H144242   5.004   6.056   3.169  1.4917 -0.2073  0.3481
 7609TIP3    H244243   4.943   6.093   3.036 -0.4587 -0.6052  1.0844
 7610TIP3   OH244244   0.996   4.266   1.444  0.5197 -0.3819  0.7217
 7610TIP3    H144245   0.928   4.205   1.473  0.1232  0.6213  1.9977
 7610TIP3    H244246   1.072   4.244   1.497  1.0223 -1.0767 -0.2536
 7611TIP3   OH244247   2.932   0.987  13.625  0.3362 -0.0070 -0.3601
 7611TIP3    H144248   2.931   0.948  13.713 -0.8096  1.9766  0.6005
 7611TIP3    H244249   2.848   0.964  13.587  0.2946  0.2040 -0.4019
 7612TIP3   OH244250   5.965   2.596  11.473  0.0985  0.2410  0.4853
 7612TIP3    H144251   5.993   2.676  11.429  1.3540 -0.2918  0.2418
 7612TIP3    H244252   5.890   2.565  11.423 -1.0386  1.7788  1.1947
 7613TIP3   OH244253   4.777   2.387   1.215  0.3756 -0.5121 -0.3421
 7613TIP3    H144254   4.768   2.296   1.245  1.3280 -0.2627  0.7778
 7613TIP3    H244255   4.734   2.438   1.283  0.1311 -0.1028 -0.8049
 7614TIP3   OH244256   1.685   1.191  17.038  0.5731  0.3681 -0.0973
 7614TIP3    H144257   1.741   1.214  17.113 -0.1133 -1.0405  0.8941
 7614TIP3    H244258   1.614   1.139  17.076 -0.3500  0.4723 -1.6070
 7615TIP3   OH244259   2.006   6.241   4.894  0.6122 -0.1129  0.1490
 7615TIP3    H144260   2.044   6.328   4.883 -0.5963  0.4312  0.1788
 7615TIP3    H244261   1.996   6.208   4.804 -2.0656  1.1896 -0.1239
 7616TIP3   OH244262   3.843   5.727   3.233 -0.6637 -0.0374 -0.1916
 7616TIP3    H144263   3.761   5.712   3.279 -0.1915 -0.4846  0.5199
 7616TIP3    H244264   3.850   5.655   3.171 -0.1121 -0.8472  0.7712
 7617TIP3   OH244265   5.056   6.649  13.392 -0.2564 -0.1174 -0.5615
 7617TIP3    H144266   5.104   6.634  13.310 -0.7880 -0.9823 -0.7246
 7617TIP3    H244267   5.049   6.562  13.431 -2.9368 -0.2921 -1.2433
 7618TIP3   OH244268   0.578   3.187   3.450  0.2373 -0.5717 -0.1619
 7618TIP3    H144269   0.611   3.097   3.442 -0.5369 -0.8377 -0.4816
 7618TIP3    H244270   0.539   3.205   3.364  1.3952  0.4883 -0.4849
 7619TIP3   OH244271   1.979   2.575   1.645  0.1977  0.2593 -0.2307
 7619TIP3    H144272   2.012   2.628   1.572 -0.2102  1.6441  0.5572
 7619TIP3    H244273   2.057   2.536   1.684  0.3983 -0.7935 -1.5851
 7620TIP3   OH244274   1.409   4.766   3.675  0.2387 -0.5552 -0.4872
 7620TIP3    H144275   1.460   4.782   3.596  4.0356  1.9075  2.1294
 7620TIP3    H244276   1.459   4.699   3.722 -0.5657 -0.2052  0.9133
 7621TIP3   OH244277   0.642   2.307  14.841  0.0578 -0.4847  0.4991
 7621TIP3    H144278   0.671   2.350  14.760 -0.2643  1.4360  1.3395
 7621TIP3    H244279   0.552   2.337  14.853 -0.4394 -2.0188  0.7570
 7622TIP3   OH244280   2.773   5.151  13.466 -0.2104 -0.9925 -0.1542
 7622TIP3    H144281   2.698   5.161  13.523 -0.4559  0.1671 -0.6388
 7622TIP3    H244282   2.738   5.115  13.385 -0.5313  0.8001 -0.8751
 7623TIP3   OH244283   6.246   0.299   2.003 -0.1900  0.0103  0.0285
 7623TIP3    H144284   6.329   0.266   1.968  0.1982  0.9691  0.0144
 7623TIP3    H244285   6.269   0.382   2.045 -0.8410 -0.5887  1.6179
 7624TIP3   OH244286   1.695   4.978  13.587 -0.0201  0.0471 -0.2136
 7624TIP3    H144287   1.624   5.003  13.645 -0.3425 -3.1429  0.9338
 7624TIP3    H244288   1.679   5.027  13.506 -2.0981  1.2081  0.8359
 7625TIP3   OH244289   2.861   2.326  11.212  0.2968 -0.1908  0.0355
 7625TIP3    H144290   2.860   2.232  11.194 -2.8338 -0.0414 -1.2205
 7625TIP3    H244291   2.772   2.345  11.245  0.6081  2.4351 -0.4306
 7626TIP3   OH244292   5.154   5.246   4.950  0.5292 -0.3766 -0.5192
 7626TIP3    H144293   5.161   5.230   4.856 -0.2974 -1.9380 -0.3476
 7626TIP3    H244294   5.168   5.160   4.991  1.2709  0.3446  0.8170
 7627TIP3   OH244295   4.358   4.890   5.555 -0.2584  0.0230  0.4658
 7627TIP3    H144296   4.300   4.928   5.489  1.5029 -1.6686 -2.2685
 7627TIP3    H244297   4.307   4.818   5.592 -0.5278 -0.4247 -0.7236
 7628TIP3   OH244298   0.027   3.292   6.095  0.8566 -0.5172  0.1891
 7628TIP3    H144299  -0.025   3.212   6.108  2.3425 -1.3137  1.6363
 7628TIP3    H244300  -0.004   3.351   6.164  0.4519 -0.2081 -0.2537
 7629TIP3   OH244301   4.215   2.774  12.563  0.4399  0.0179 -0.0937
 7629TIP3    H144302   4.155   2.784  12.490 -0.5254  2.5904  0.9475
 7629TIP3    H244303   4.259   2.859  12.571 -0.9888  0.6134  3.5070
 7630TIP3   OH244304   4.579   6.499  13.851  0.0612  0.1192 -0.0418
 7630TIP3    H144305   4.569   6.492  13.756  0.4916  1.3385 -0.1877
 7630TIP3    H244306   4.629   6.421  13.875  1.0577  0.4414 -0.9867
 7631TIP3   OH244307   5.416   5.349  11.502  0.0126  0.0045  0.0069
 7631TIP3    H144308   5.441   5.264  11.466 -0.3664  0.0906 -0.4701
 7631TIP3    H244309   5.406   5.406  11.425  1.2851  0.7679  0.3695
 7632TIP3   OH244310   5.910   2.318  12.122  0.0537 -0.4164 -0.1358
 7632TIP3    H144311   5.821   2.288  12.101 -0.1499  0.3982 -0.4955
 7632TIP3    H244312   5.934   2.374  12.049 -0.2391  1.6055  1.2115
 7633TIP3   OH244313   3.035   2.521   2.547 -0.0692 -0.0198  0.2888
 7633TIP3    H144314   3.110   2.463   2.542  0.3285  0.5546 -0.7661
 7633TIP3    H244315   2.962   2.464   2.573  0.3324 -0.9682 -0.5969
 7634TIP3   OH244316   3.639   1.717  11.716  0.0694 -0.4281 -0.7419
 7634TIP3    H144317   3.696   1.645  11.688  0.3191 -0.7002  0.3961
 7634TIP3    H244318   3.582   1.733  11.641  1.1070 -0.7006 -1.6113
 7635TIP3   OH244319   1.098   0.571   2.112  0.2821  0.4175 -0.3936
 7635TIP3    H144320   1.150   0.610   2.041 -0.7373  0.9311 -0.8822
 7635TIP3    H244321   1.076   0.483   2.080  2.0140 -0.3639  0.4230
 7636TIP3   OH244322   4.768   5.069   5.824  0.5709  0.0541  0.2411
 7636TIP3    H144323   4.723   5.106   5.900 -0.5357 -0.2326 -0.2505
 7636TIP3    H244324   4.718   4.990   5.803 -2.0948  2.4080 -3.5119
 7637TIP3   OH244325   5.816   1.313   4.331 -0.2135  0.8007 -0.5125
 7637TIP3    H144326   5.844   1.322   4.422 -2.8694 -0.4283  0.5080
 7637TIP3    H244327   5.895   1.334   4.280  0.8040  3.7013  1.9585
 7638TIP3   OH244328   3.709   1.499   0.245  0.0850  0.1940  0.0746
 7638TIP3    H144329   3.636   1.437   0.236 -1.1500  1.6796 -0.4929
 7638TIP3    H244330   3.750   1.502   0.159 -0.6587  1.0912 -0.2658
 7639TIP3   OH244331   1.209   5.736   1.508  0.0766 -0.4388 -0.6560
 7639TIP3    H144332   1.124   5.752   1.467 -0.7141 -2.5769  0.0120
 7639TIP3    H244333   1.201   5.774   1.596  0.4926  0.9648 -1.2031
 7640TIP3   OH244334   4.422   2.734   2.556  0.7995 -0.0182 -0.7660
 7640TIP3    H144335   4.328   2.748   2.567  1.0655  1.2621  0.0873
 7640TIP3    H244336   4.431   2.640   2.542 -0.3341 -0.7253  2.4393
 7641TIP3   OH244337   4.119   3.744  12.850 -0.0236 -0.0998  0.1797
 7641TIP3    H144338   4.199   3.716  12.895  0.2571 -1.2913 -0.9922
 7641TIP3    H244339   4.061   3.669  12.856 -0.0402 -0.2268 -1.2517
 7642TIP3   OH244340   5.113   1.878   1.010 -0.4928 -0.0336  0.1408
 7642TIP3    H144341   5.026   1.859   1.045 -0.3592  0.2789  0.6443
 7642TIP3    H244342   5.108   1.969   0.980 -0.9433 -0.6216 -1.6949
 7643TIP3   OH244343   4.233   6.595   1.974 -0.2101  0.0725  0.5541
 7643TIP3    H144344   4.156   6.651   1.962 -0.1182 -0.1091 -1.2232
 7643TIP3    H244345   4.209   6.535   2.045 -1.6250  0.1815  0.2014
 7644TIP3   OH244346   6.323   6.689  10.729  0.6748  0.2073 -0.0734
 7644TIP3    H144347   6.319   6.606  10.776 -0.5976  0.6660  0.7013
 7644TIP3    H244348   6.245   6.737  10.758  0.7643  1.2153 -1.3613
 7645TIP3   OH244349   2.729   2.460   4.564  0.4463  0.0973 -0.2266
 7645TIP3    H144350   2.674   2.460   4.642  0.7890  0.4617  0.0180
 7645TIP3    H244351   2.672   2.490   4.494  0.4713  0.9889  0.1286
 7646TIP3   OH244352   3.528   6.111   5.045 -0.8836 -0.0956 -0.0520
 7646TIP3    H144353   3.465   6.071   4.985  0.6723 -1.3148 -0.9563
 7646TIP3    H244354   3.613   6.078   5.016 -0.0459 -0.7286  2.7971
 7647TIP3   OH244355   4.960   0.862  14.986 -0.6184 -0.0645  0.0145
 7647TIP3    H144356   4.877   0.899  15.016 -1.2482 -0.7766 -0.7836
 7647TIP3    H244357   4.970   0.781  15.038 -1.0245 -0.5866 -0.7054
 7648TIP3   OH244358   2.996   2.017   1.201 -0.0858  0.1337 -0.1145
 7648TIP3    H144359   2.965   2.087   1.258 -1.3267 -0.7334  0.3299
 7648TIP3    H244360   3.053   2.061   1.138  1.1368  1.1612  1.6161
 7649TIP3   OH244361   0.096   6.015  14.056  0.4656  0.0171  0.0922
 7649TIP3    H144362   0.137   5.986  13.974  0.0758 -0.1344 -0.0492
 7649TIP3    H244363   0.096   6.110  14.051  0.2087  0.0009 -0.1980
 7650TIP3   OH244364   5.836   2.806  15.176 -0.0963 -0.2129 -0.1632
 7650TIP3    H144365   5.862   2.748  15.248 -1.7943  1.3450  1.8348
 7650TIP3    H244366   5.825   2.747  15.102 -0.6292 -2.3244  1.4662
 7651TIP3   OH244367   1.259   6.274  16.742 -0.3312  0.0014  0.5246
 7651TIP3    H144368   1.225   6.321  16.666 -0.0014 -0.7676 -0.1198
 7651TIP3    H244369   1.182   6.257  16.797 -0.9518 -1.2638 -0.6632
 7652TIP3   OH244370   3.738   3.023   3.115  0.6194  0.1060 -0.2750
 7652TIP3    H144371   3.800   3.002   3.045  0.3710 -2.1331  0.0984
 7652TIP3    H244372   3.692   2.941   3.131 -2.4809  1.6533 -0.5263
 7653TIP3   OH244373   5.595   0.111  15.397 -0.3183  0.2963  0.2836
 7653TIP3    H144374   5.501   0.130  15.393 -0.2141  0.7367 -2.5612
 7653TIP3    H244375   5.602   0.038  15.458 -2.7514 -0.8256 -0.6400
 7654TIP3   OH244376   3.979   3.093  13.077  0.2432 -0.2852 -0.3855
 7654TIP3    H144377   4.058   3.039  13.073 -0.1958 -1.2450  2.0872
 7654TIP3    H244378   3.917   3.048  13.020  0.0415 -2.2040  1.2492
 7655TIP3   OH244379   0.788   3.770   4.413 -0.2605 -0.4221  0.3826
 7655TIP3    H144380   0.724   3.816   4.359  1.4518  1.1284 -0.4206
 7655TIP3    H244381   0.800   3.826   4.489  0.6293 -0.3353  0.1895
 7656TIP3   OH244382   1.635   1.207   4.585  0.2305  0.9372  0.1020
 7656TIP3    H144383   1.670   1.138   4.529  0.3123  0.4020  0.7976
 7656TIP3    H244384   1.608   1.276   4.524 -3.3575 -1.1631 -0.9848
 7657TIP3   OH244385   5.931   0.408   1.434 -0.4558 -0.2311 -0.2090
 7657TIP3    H144386   6.022   0.431   1.414 -0.4601  0.5387  0.5821
 7657TIP3    H244387   5.938   0.336   1.498 -0.3998 -0.0640 -0.0268
 7658TIP3   OH244388   3.505   6.710  11.756  0.9051 -0.3009  0.5300
 7658TIP3    H144389   3.482   6.771  11.687  0.9738  1.5282  2.0435
 7658TIP3    H244390   3.530   6.630  11.710 -0.2275  0.4277 -1.4802
 7659TIP3   OH244391   3.985   2.749   0.678  0.1089  0.0931  0.2265
 7659TIP3    H144392   3.942   2.810   0.738  0.7261  1.2997 -0.5081
 7659TIP3    H244393   3.922   2.737   0.607  0.6314  1.2419 -0.4617
 7660TIP3   OH244394   1.094   1.583  14.757 -0.3934 -0.2483  0.2305
 7660TIP3    H144395   1.098   1.580  14.661  0.3062 -0.7847  0.2684
 7660TIP3    H244396   1.092   1.492  14.785 -1.0800 -0.0923  0.7216
 7661TIP3   OH244397   3.392   5.596   3.604  0.5251  0.3803 -0.3943
 7661TIP3    H144398   3.451   5.619   3.675 -0.3269  2.8474 -0.3869
 7661TIP3    H244399   3.328   5.536   3.643  0.5838  1.0148  0.6879
 7662TIP3   OH244400   4.710   0.037   4.395  0.0453 -0.1125 -0.4555
 7662TIP3    H144401   4.621   0.051   4.364 -0.1161 -0.5353 -0.1926
 7662TIP3    H244402   4.741  -0.040   4.348  0.4893  0.3653 -0.9788
 7663TIP3   OH244403   0.561   3.497  12.355 -0.1631 -0.1309 -0.0740
 7663TIP3    H144404   0.601   3.475  12.271  0.1538 -0.1160  0.0718
 7663TIP3    H244405   0.522   3.415  12.386 -1.0362  0.0556 -0.6365
 7664TIP3   OH244406   4.030   2.567  16.605 -0.0336 -0.1759 -0.0229
 7664TIP3    H144407   4.008   2.527  16.521  0.7908  0.1421 -0.4103
 7664TIP3    H244408   4.097   2.510  16.642  1.8654  1.2706 -1.0193
 7665TIP3   OH244409   2.095   1.705   4.503  0.3936 -0.5898 -0.0438
 7665TIP3    H144410   2.045   1.641   4.552 -1.3896  1.6020  1.2023
 7665TIP3    H244411   2.030   1.764   4.466  1.9264  0.6747 -0.8756
 7666TIP3   OH244412   4.178   4.632   4.560  0.3826  0.4754 -0.8422
 7666TIP3    H144413   4.093   4.675   4.569 -0.1177 -0.5338 -0.6471
 7666TIP3    H244414   4.190   4.584   4.643 -0.2566 -1.8383 -2.0142
 7667TIP3   OH244415   0.376   2.242  11.061  0.0454 -0.2128 -0.1577
 7667TIP3    H144416   0.412   2.153  11.058 -1.5577 -0.9024 -0.3922
 7667TIP3    H244417   0.303   2.240  11.000  0.2788  1.4384 -0.5387
 7668TIP3   OH244418   0.943   6.740   0.531  0.5633 -0.4576  0.3060
 7668TIP3    H144419   0.862   6.723   0.578  0.2440  1.9402  0.7846
 7668TIP3    H244420   0.943   6.679   0.457 -1.8178 -0.3262  0.1474
 7669TIP3   OH244421   4.496   6.169   0.057  0.0008 -0.2739  0.1347
 7669TIP3    H144422   4.548   6.150   0.136  1.1556 -2.6672 -1.0848
 7669TIP3    H244423   4.406   6.152   0.083  0.1341  0.7877  1.4041
 7670TIP3   OH244424   2.784   6.342  14.121 -0.3402 -0.2769  0.4001
 7670TIP3    H144425   2.866   6.391  14.117 -0.1508 -0.3588  2.3969
 7670TIP3    H244426   2.748   6.362  14.207 -1.5408 -1.6251  0.2507
 7671TIP3   OH244427   5.726   4.449  12.910 -0.3761 -0.1549  0.5236
 7671TIP3    H144428   5.812   4.448  12.867  0.1095  0.8772  1.4283
 7671TIP3    H244429   5.683   4.527  12.876  0.0462  0.7235  1.9239
 7672TIP3   OH244430   4.916   4.085   5.610  1.4013 -0.1601 -0.5245
 7672TIP3    H144431   4.886   4.010   5.663  2.1290 -0.9456 -1.1801
 7672TIP3    H244432   4.940   4.151   5.675 -1.8318  0.6104  0.0328
 7673TIP3   OH244433   2.031   3.089  16.953  0.1181  0.1742 -0.3338
 7673TIP3    H144434   2.004   3.008  16.909  0.8539  0.0234 -0.5370
 7673TIP3    H244435   2.125   3.077  16.968 -0.0113  0.4701  0.7758
 7674TIP3   OH244436   3.472   0.622   1.094  0.4098 -0.2361  0.0459
 7674TIP3    H144437   3.549   0.671   1.122  0.2581 -0.7570  1.4638
 7674TIP3    H244438   3.404   0.688   1.084  0.6013  0.0289  0.4487
 7675TIP3   OH244439   5.561   3.482  15.677  0.6799 -0.3568 -0.1231
 7675TIP3    H144440   5.514   3.566  15.677 -1.8171 -1.6414 -1.6196
 7675TIP3    H244441   5.644   3.501  15.634  0.9499  1.6786  1.1535
 7676TIP3   OH244442   5.899   2.378  14.544 -0.2512  0.2971 -0.1319
 7676TIP3    H144443   5.961   2.335  14.485 -0.4295  1.1285 -0.9405
 7676TIP3    H244444   5.945   2.382  14.628  0.0759 -0.7302 -0.2464
 7677TIP3   OH244445   6.199   5.230  16.919  0.0763 -0.2838  0.1661
 7677TIP3    H144446   6.211   5.210  17.012 -1.2439 -2.1847 -0.0001
 7677TIP3    H244447   6.242   5.158  16.874 -2.5868 -1.5355 -0.5636
 7678TIP3   OH244448   1.131   4.572  16.484 -0.5328 -1.0870 -0.8255
 7678TIP3    H144449   1.134   4.618  16.400 -1.8384  0.0141 -0.3067
 7678TIP3    H244450   1.042   4.586  16.516  0.9636  2.4799  2.8089
 7679TIP3   OH244451   5.690   0.688   4.503  0.3881 -0.1249  0.6291
 7679TIP3    H144452   5.598   0.708   4.522  0.5556  0.7664  0.5116
 7679TIP3    H244453   5.690   0.657   4.413  0.0709 -1.0916  0.9471
 7680TIP3   OH244454   4.063   0.627  15.258 -0.0188  0.2858  0.3984
 7680TIP3    H144455   4.093   0.541  15.228  0.9970  1.3914 -2.0395
 7680TIP3    H244456   4.031   0.670  15.179  1.4562  2.9198  1.1182
 7681TIP3   OH244457   2.663   2.437  14.313  0.1653 -0.0556 -0.5328
 7681TIP3    H144458   2.598   2.496  14.351 -0.1726 -0.4190 -0.5415
 7681TIP3    H244459   2.722   2.495  14.264 -0.0645  0.2910 -0.4060
 7682TIP3   OH244460   2.564   5.279  16.039  0.6215 -0.1920 -0.4000
 7682TIP3    H144461   2.512   5.332  15.978 -1.1273 -1.8048 -0.3655
 7682TIP3    H244462   2.547   5.318  16.125 -0.7652 -0.8452 -0.3549
 7683TIP3   OH244463   3.673   1.915  14.029  0.0567  0.0212  0.2578
 7683TIP3    H144464   3.623   1.877  14.101 -2.7966  2.2525 -0.3590
 7683TIP3    H244465   3.728   1.982  14.070  0.3879 -0.4775  0.6319
 7684TIP3   OH244466   1.314   2.506   2.902 -0.0642  0.9832 -0.2451
 7684TIP3    H144467   1.352   2.549   2.979  0.2309 -0.0019  0.1809
 7684TIP3    H244468   1.245   2.450   2.938  0.3129  0.2427 -0.6394
 7685TIP3   OH244469   4.158   1.556   3.093  0.0324 -0.4188 -0.0556
 7685TIP3    H144470   4.143   1.642   3.133  2.1990  1.1316 -2.3285
 7685TIP3    H244471   4.228   1.517   3.146  0.1850 -0.0808 -0.0082
 7686TIP3   OH244472   0.069   1.349  16.941 -0.9373  0.2761  0.2657
 7686TIP3    H144473   0.002   1.286  16.913  0.1934 -0.9384  0.1984
 7686TIP3    H244474   0.066   1.345  17.037 -2.4737  1.9176  0.3434
 7687TIP3   OH244475   0.610   0.162  14.707 -0.4997 -0.7742  0.1238
 7687TIP3    H144476   0.540   0.103  14.680  1.7204 -1.1193 -6.9244
 7687TIP3    H244477   0.681   0.104  14.736 -0.6488 -1.0395 -0.0370
 7688TIP3   OH244478   6.775   2.415   2.193 -0.3253  0.1549  0.1064
 7688TIP3    H144479   6.862   2.410   2.154  1.2583  0.5187  3.2135
 7688TIP3    H244480   6.751   2.507   2.187  0.1974  0.3226  0.5326
 7689TIP3   OH244481   2.527   2.628  16.336  0.2395 -0.2703  0.0340
 7689TIP3    H144482   2.622   2.623  16.331  0.2403  0.1559 -0.4798
 7689TIP3    H244483   2.509   2.681  16.414  0.4622  0.8196 -0.6342
 7690TIP3   OH244484   0.387   2.701   0.699  0.4544 -0.2915 -0.4239
 7690TIP3    H144485   0.450   2.729   0.766 -0.0379  0.1077 -0.1164
 7690TIP3    H244486   0.352   2.619   0.732 -0.3035  0.2526  0.1760
 7691TIP3   OH244487   1.748   1.058   0.901 -0.0447  0.0375 -0.4379
 7691TIP3    H144488   1.698   1.130   0.863 -0.6213  0.5233  1.1730
 7691TIP3    H244489   1.702   0.979   0.873  0.4741  0.2544 -2.0419
 7692TIP3   OH244490   5.701   4.752   6.004 -0.4807 -0.4162  0.0863
 7692TIP3    H144491   5.681   4.712   5.920 -0.5878 -0.4559  0.1308
 7692TIP3    H244492   5.620   4.742   6.055 -0.3842 -0.4754  0.2256
 7693TIP3   OH244493   5.353   2.300   0.576 -0.7787 -0.2049 -0.0411
 7693TIP3    H144494   5.399   2.324   0.495  0.5300  0.0484  0.7539
 7693TIP3    H244495   5.291   2.232   0.549  0.7089 -1.2423 -1.0117
 7694TIP3   OH244496   2.504   0.522  12.886  0.4284  0.7501  0.0596
 7694TIP3    H144497   2.415   0.559  12.887 -0.0238 -0.1606  3.2160
 7694TIP3    H244498   2.523   0.509  12.793 -1.3901  4.0237 -0.9375
 7695TIP3   OH244499   4.636   4.258   2.870 -0.3660  0.9672  0.3525
 7695TIP3    H144500   4.696   4.314   2.822 -0.0510  0.0787 -0.3320
 7695TIP3    H244501   4.686   4.177   2.885  0.2419  1.8562  3.8891
 7696TIP3   OH244502   0.215   4.980  14.917 -0.5443 -0.5875  0.1492
 7696TIP3    H144503   0.298   4.983  14.870 -1.0475  0.6256 -0.7077
 7696TIP3    H244504   0.215   4.894  14.960  1.6242 -0.1921  1.0707
 7697TIP3   OH244505   1.728   1.995  16.488  0.6876 -0.1255 -0.2277
 7697TIP3    H144506   1.692   1.947  16.414  3.0273 -0.3340 -1.3433
 7697TIP3    H244507   1.692   2.083  16.479 -0.6397 -0.6696 -0.4038
 7698TIP3   OH244508   6.670   5.598   1.769  0.2507 -0.1975  0.9230
 7698TIP3    H144509   6.712   5.592   1.855  1.1168  0.9316  0.5987
 7698TIP3    H244510   6.668   5.691   1.750  0.6498 -0.4714 -0.5718
 7699TIP3   OH244511   5.343   0.010   2.855  0.5791 -0.1789  0.1952
 7699TIP3    H144512   5.387   0.068   2.792  1.0691 -0.3506  0.3785
 7699TIP3    H244513   5.268   0.061   2.885  0.7411  0.1802 -0.0002
 7700TIP3   OH244514   0.330   3.067   1.267  0.1535 -0.3031 -0.3421
 7700TIP3    H144515   0.266   3.023   1.324 -0.6112 -0.5807 -1.3933
 7700TIP3    H244516   0.406   3.080   1.323  0.3521 -2.8083  0.0710
 7701TIP3   OH244517   5.443   2.947   6.516 -0.0449 -0.1851  0.6621
 7701TIP3    H144518   5.387   2.983   6.447 -0.4657 -0.1123  1.0335
 7701TIP3    H244519   5.387   2.883   6.561  1.0862 -2.3674 -0.8317
 7702TIP3   OH244520   3.123   0.784  14.391 -0.0041 -0.2782 -0.5698
 7702TIP3    H144521   3.125   0.799  14.486  0.6567 -1.1475 -0.4327
 7702TIP3    H244522   3.046   0.832  14.361 -0.4466 -0.3059  0.4689
 7703TIP3   OH244523   3.473   6.262   2.991  0.5328 -0.0895 -0.2780
 7703TIP3    H144524   3.510   6.349   3.006  0.4903 -0.1523  0.2263
 7703TIP3    H244525   3.472   6.221   3.078 -1.1462  0.0764 -0.1825
 7704TIP3   OH244526   4.243   0.708   1.378  0.1183  0.0051 -0.4965
 7704TIP3    H144527   4.223   0.761   1.301 -1.2737  0.1160 -0.0812
 7704TIP3    H244528   4.229   0.618   1.350  3.2558 -0.3080 -1.4414
 7705TIP3   OH244529   6.717   1.663  12.092 -1.0239 -0.1613  0.5423
 7705TIP3    H144530   6.621   1.657  12.093 -0.9458 -1.5595  1.3206
 7705TIP3    H244531   6.747   1.573  12.103  0.3854  0.4564  2.1626
 7706TIP3   OH244532   0.029   4.549   5.413  0.1968 -0.4171  0.2761
 7706TIP3    H144533   0.040   4.562   5.318  0.4396 -1.5383  0.1349
 7706TIP3    H244534  -0.065   4.555   5.427  0.2833  1.5524  0.2632
 7707TIP3   OH244535   1.406   2.653  16.399 -0.0308 -0.2391  0.4711
 7707TIP3    H144536   1.390   2.647  16.493  1.3970  0.9816  0.8366
 7707TIP3    H244537   1.464   2.728  16.389 -1.6500  0.8418 -1.5982
 7708TIP3   OH244538   0.352   4.526   6.119 -0.0824 -0.3095 -0.0756
 7708TIP3    H144539   0.332   4.469   6.044  0.3795  0.5341 -0.8673
 7708TIP3    H244540   0.418   4.587   6.085  1.4810 -1.0211  1.5320
 7709TIP3   OH244541   2.185   0.051   6.008  0.0978 -0.2232 -0.2096
 7709TIP3    H144542   2.254   0.012   5.954 -0.8107 -1.2638 -0.6708
 7709TIP3    H244543   2.224   0.061   6.094  1.4485  1.0662 -0.9153
 7710TIP3   OH244544   6.404   0.047   2.174  0.3189 -0.1765  0.5650
 7710TIP3    H144545   6.465   0.116   2.200  1.0865 -0.3164 -0.7453
 7710TIP3    H244546   6.384   0.000   2.255  1.1020  0.5487  1.1923
 7711TIP3   OH244547   2.513   4.179  10.799  0.0588  0.6448  0.5926
 7711TIP3    H144548   2.442   4.241  10.782  0.7003  1.3657  0.4605
 7711TIP3    H244549   2.576   4.194  10.728  0.0799 -0.3801  0.3922
 7712TIP3   OH244550   5.175   5.958   0.442 -0.2618  0.2575  0.1024
 7712TIP3    H144551   5.097   5.930   0.393 -0.5205  0.0306  0.6388
 7712TIP3    H244552   5.246   5.954   0.377 -0.2206 -1.9201  0.1960
 7713TIP3   OH244553   0.155   0.348  13.855 -0.2980  0.7000 -0.0923
 7713TIP3    H144554   0.217   0.419  13.876 -1.8882  2.0180  0.3316
 7713TIP3    H244555   0.074   0.374  13.898 -0.8146 -1.6433  0.4501
 7714TIP3   OH244556   3.953   4.388  17.286  0.5135 -0.1076  0.6874
 7714TIP3    H144557   3.890   4.352  17.223 -0.0527  0.7720  0.7333
 7714TIP3    H244558   3.921   4.358  17.371  1.3862 -1.4583  0.5790
 7715TIP3   OH244559   0.841   4.053   4.814 -0.0742 -0.1405  0.0245
 7715TIP3    H144560   0.803   3.970   4.785 -0.2374  0.2543 -0.9554
 7715TIP3    H244561   0.900   4.029   4.886  1.3599 -1.4041 -1.4665
 7716TIP3   OH244562   3.437   1.004   0.778 -0.6583 -0.2417 -0.0118
 7716TIP3    H144563   3.352   1.048   0.768 -1.3244 -1.0572  1.7686
 7716TIP3    H244564   3.501   1.074   0.764 -1.6491  0.8066  0.4635
 7717TIP3   OH244565   2.373   5.891  11.486  0.2646  0.7320  0.0334
 7717TIP3    H144566   2.354   5.962  11.547 -0.4973  1.5800 -1.1372
 7717TIP3    H244567   2.468   5.890  11.478  0.2996  1.4243  0.2925
 7718TIP3   OH244568   3.953   2.254   0.735 -0.1928  0.1418 -0.2201
 7718TIP3    H144569   3.953   2.265   0.830 -2.4717 -1.2267 -0.0037
 7718TIP3    H244570   3.983   2.164   0.721  1.4072  0.7398 -0.9296
 7719TIP3   OH244571   1.510   1.195   0.060 -0.5998  0.0269 -0.1577
 7719TIP3    H144572   1.414   1.198   0.061 -0.6658 -1.4483 -0.1088
 7719TIP3    H244573   1.533   1.130   0.126  0.5452  1.6788  1.1631
 7720TIP3   OH244574   1.568   2.369  14.661 -0.0793  0.0425 -0.0384
 7720TIP3    H144575   1.585   2.412  14.744 -1.8040 -1.0575  0.9353
 7720TIP3    H244576   1.654   2.363  14.619  1.0285 -0.3506  2.1384
 7721TIP3   OH244577   5.953   3.900   6.004  0.1350  0.0038  0.3385
 7721TIP3    H144578   6.045   3.904   5.980  0.2294 -0.4139  0.6152
 7721TIP3    H244579   5.951   3.928   6.095  0.1673 -1.2405  0.7417
 7722TIP3   OH244580   6.638   4.687   3.925 -0.3005  0.0314 -0.0369
 7722TIP3    H144581   6.588   4.680   4.007  0.4518 -0.5961  0.3740
 7722TIP3    H244582   6.608   4.612   3.873  1.7201 -1.6568  1.0674
 7723TIP3   OH244583   5.781   6.395   1.345  0.4541 -0.2363  0.7375
 7723TIP3    H144584   5.710   6.335   1.366  1.1912 -0.6041  2.2829
 7723TIP3    H244585   5.854   6.339   1.321 -0.2127  0.1410 -2.7635
 7724TIP3   OH244586   2.889   0.579   3.354  0.3127  0.6512  0.9059
 7724TIP3    H144587   2.939   0.504   3.385 -3.1140 -1.2571  2.2241
 7724TIP3    H244588   2.887   0.569   3.259 -0.4135 -1.2113  1.0854
 7725TIP3   OH244589   6.684   6.779   5.305 -0.3055  0.3243 -0.0149
 7725TIP3    H144590   6.717   6.851   5.252 -0.8777 -0.0230 -0.8654
 7725TIP3    H244591   6.699   6.807   5.395 -0.6010  1.5560 -0.3213
 7726TIP3   OH244592   2.152   1.316  16.891  0.3488  0.5694  0.0648
 7726TIP3    H144593   2.057   1.310  16.881  0.3509  2.1722 -1.2992
 7726TIP3    H244594   2.186   1.238  16.848 -0.3638 -0.9179  2.0423
 7727TIP3   OH244595   3.943   5.309  15.448  0.0986 -0.2743 -0.0105
 7727TIP3    H144596   3.961   5.367  15.522 -0.4253  0.0368 -0.1187
 7727TIP3    H244597   3.849   5.293  15.454  0.4475 -2.2550  0.8518
 7728TIP3   OH244598   4.638   2.653  13.908  0.4611 -0.4589  0.2060
 7728TIP3    H144599   4.690   2.723  13.947 -0.3301  0.2036  0.0962
 7728TIP3    H244600   4.604   2.690  13.827 -2.5560  0.1869  1.6449
 7729TIP3   OH244601   0.605   3.204   5.555 -0.7057 -0.3467  0.1225
 7729TIP3    H144602   0.609   3.122   5.603 -1.8613 -0.0103  0.8441
 7729TIP3    H244603   0.576   3.269   5.619  0.6522  0.7535 -0.3068
 7730TIP3   OH244604   3.854   4.727  13.214  0.2651  0.8352  0.1996
 7730TIP3    H144605   3.921   4.668  13.250  0.3058  1.1294  0.6184
 7730TIP3    H244606   3.873   4.812  13.255  0.5548  1.2800 -0.8269
 7731TIP3   OH244607   4.185   4.618   3.535  0.1458 -0.3439  0.1871
 7731TIP3    H144608   4.274   4.585   3.529  0.2642  0.0664 -0.3856
 7731TIP3    H244609   4.153   4.619   3.444 -0.8666 -1.6322  0.4964
 7732TIP3   OH244610   4.487   5.989   4.385 -0.1964 -0.4359  0.6862
 7732TIP3    H144611   4.475   6.029   4.472 -0.3375 -2.4294  1.6290
 7732TIP3    H244612   4.561   5.930   4.396  0.2003 -0.2396 -0.7570
 7733TIP3   OH244613   6.387   6.084   5.963  0.0926 -0.1566  0.1919
 7733TIP3    H144614   6.419   6.130   6.040  1.5662 -0.5857 -0.1382
 7733TIP3    H244615   6.313   6.137   5.933 -1.1652 -0.4861  2.4292
 7734TIP3   OH244616   3.503   2.202  13.019 -0.4393  0.9010  0.2605
 7734TIP3    H144617   3.535   2.189  12.930 -1.2429  0.5077  0.0169
 7734TIP3    H244618   3.577   2.241  13.066  0.7763 -0.9846  0.0100
 7735TIP3   OH244619   1.469   5.725  16.230  0.2652 -1.2152  0.5177
 7735TIP3    H144620   1.419   5.751  16.152 -2.1911 -1.1371  2.0152
 7735TIP3    H244621   1.541   5.787  16.234 -2.0529  1.6811  0.6637
 7736TIP3   OH244622   4.804   2.519   3.243 -0.0805 -0.1402 -0.4502
 7736TIP3    H144623   4.804   2.568   3.325 -1.1244  1.0541 -1.1276
 7736TIP3    H244624   4.861   2.444   3.260 -1.6695 -0.9051  1.9072
 7737TIP3   OH244625   1.022   3.336   2.090  0.0019  0.0259 -0.8131
 7737TIP3    H144626   0.993   3.351   2.000 -1.8311  2.9864  0.1316
 7737TIP3    H244627   0.941   3.323   2.139  0.8225  0.5951  0.7485
 7738TIP3   OH244628   4.106   2.599  14.725 -0.4874 -0.0752  0.0859
 7738TIP3    H144629   4.102   2.679  14.778 -3.2689  0.1997 -0.3872
 7738TIP3    H244630   4.189   2.606  14.677 -0.2707  2.1286  0.6688
 7739TIP3   OH244631   1.729   0.638  15.814 -0.2193 -0.2239 -0.4623
 7739TIP3    H144632   1.713   0.710  15.753  0.1379  0.7531  0.5771
 7739TIP3    H244633   1.641   0.613  15.844 -0.2624  0.8058  0.3172
 7740TIP3   OH244634   3.568   1.005  15.079 -0.3443  0.1689 -0.1348
 7740TIP3    H144635   3.663   1.001  15.068 -0.5562  0.2300 -2.3892
 7740TIP3    H244636   3.556   1.040  15.168  1.6952 -1.7371  1.0076
 7741TIP3   OH244637   0.606   5.106  14.232 -0.2643 -0.0658 -0.1167
 7741TIP3    H144638   0.669   5.170  14.268  0.9802 -1.2826 -0.0482
 7741TIP3    H244639   0.636   5.022  14.266 -2.5668 -0.5942  0.7297
 7742TIP3   OH244640   0.683   4.777  13.698  0.3565  0.1833  0.0290
 7742TIP3    H144641   0.684   4.848  13.762 -0.4031  0.7926 -0.6093
 7742TIP3    H244642   0.648   4.817  13.618 -2.0559 -1.3331  0.2045
 7743TIP3   OH244643   0.834   1.161   4.001  0.0970 -0.3227  0.4432
 7743TIP3    H144644   0.884   1.086   4.032  1.9422  0.4257 -0.5931
 7743TIP3    H244645   0.781   1.126   3.929  0.3713 -0.7881  0.4606
 7744TIP3   OH244646   6.135   4.310   5.931  0.2792 -0.3209  0.0298
 7744TIP3    H144647   6.192   4.362   5.987  3.0117  0.4116 -3.1331
 7744TIP3    H244648   6.080   4.375   5.887 -1.4518 -0.8422  1.3143
 7745TIP3   OH244649   2.239   5.788  14.211 -0.2756  0.3346 -0.0226
 7745TIP3    H144650   2.196   5.708  14.242 -0.5978  0.7924  0.7334
 7745TIP3    H244651   2.168   5.840  14.173  0.3387 -1.0098 -3.4193
 7746TIP3   OH244652   1.994   3.212  13.415 -0.5232 -0.4560 -0.2467
 7746TIP3    H144653   1.945   3.288  13.445  0.5677 -1.0337  3.6304
 7746TIP3    H244654   2.085   3.231  13.441 -0.0338 -2.5732 -0.2557
 7747TIP3   OH244655   4.265   5.893  16.688 -0.3532 -0.5274 -0.5233
 7747TIP3    H144656   4.316   5.961  16.644  0.9082 -1.2454 -0.2218
 7747TIP3    H244657   4.217   5.850  16.617 -0.6158  0.2011 -0.8051
 7748TIP3   OH244658   6.010   3.397   3.516 -0.8434 -0.0910  0.0194
 7748TIP3    H144659   5.932   3.418   3.465 -1.2733 -0.0187  0.7032
 7748TIP3    H244660   5.984   3.326   3.574 -0.2452 -0.4438 -0.1314
 7749TIP3   OH244661   0.849   0.935  14.562 -0.0239  0.3571 -0.5996
 7749TIP3    H144662   0.776   0.915  14.503 -0.0231  0.6353 -0.6982
 7749TIP3    H244663   0.829   0.886  14.642  1.3978 -2.3689 -1.7666
 7750TIP3   OH244664   0.116   2.875   4.471 -0.2562 -0.1774 -0.0675
 7750TIP3    H144665   0.106   2.927   4.551 -0.6694  1.8200 -1.3653
 7750TIP3    H244666   0.029   2.841   4.454 -0.3303  0.0152 -0.0734
 7751TIP3   OH244667   0.532   6.249   5.239  0.5310  0.4506 -0.1643
 7751TIP3    H144668   0.506   6.159   5.220 -1.0114  1.2150 -1.9397
 7751TIP3    H244669   0.459   6.286   5.287  1.1942  0.7645  0.6306
 7752TIP3   OH244670   0.481   0.936  12.575 -0.4992 -0.1220  0.2288
 7752TIP3    H144671   0.434   0.953  12.493  0.4049  1.1970 -0.0514
 7752TIP3    H244672   0.474   0.842  12.587 -4.0962  0.0979  0.7749
 7753TIP3   OH244673   0.466   5.852   5.842 -0.3679 -0.0998  0.8441
 7753TIP3    H144674   0.537   5.854   5.907  0.1112 -1.0543  0.3718
 7753TIP3    H244675   0.431   5.763   5.848  0.6379 -0.6898 -1.1964
 7754TIP3   OH244676   3.304   5.075  15.496  0.5058  0.2701  0.1202
 7754TIP3    H144677   3.292   5.041  15.584 -1.0630 -1.1603 -0.5853
 7754TIP3    H244678   3.378   5.025  15.461  1.0568  0.7614  0.5701
 7755TIP3   OH244679   6.346   2.444  11.817 -0.8062 -0.3139 -0.3323
 7755TIP3    H144680   6.351   2.540  11.817  0.3970 -0.3615 -0.3825
 7755TIP3    H244681   6.336   2.421  11.725  1.1621 -0.3030 -0.5864
 7756TIP3   OH244682   5.757   5.147   1.537  0.1415 -0.3523  0.3337
 7756TIP3    H144683   5.829   5.191   1.584 -0.7167  0.9020  0.5265
 7756TIP3    H244684   5.801   5.089   1.475  1.3299  0.5893  0.2559
 7757TIP3   OH244685   5.607   6.014  15.789  0.2492 -0.9403 -0.3269
 7757TIP3    H144686   5.540   6.056  15.735  0.0929  0.2182  0.7122
 7757TIP3    H244687   5.603   5.922  15.765 -1.6251 -0.8872 -0.3893
 7758TIP3   OH244688   3.333   5.654  15.479  0.2074 -0.3088 -0.0817
 7758TIP3    H144689   3.319   5.559  15.487 -1.0161 -0.2379 -0.9750
 7758TIP3    H244690   3.415   5.662  15.430  1.1716 -0.8591  1.3759
 7759TIP3   OH244691   0.123   5.169  16.062  0.3059 -0.2294 -0.1896
 7759TIP3    H144692   0.183   5.208  15.999 -0.1002  0.7089 -0.0080
 7759TIP3    H244693   0.041   5.217  16.051 -0.4177 -1.4708 -0.4118
 7760TIP3   OH244694   1.577   1.834   2.228 -1.0757 -0.6115 -0.0419
 7760TIP3    H144695   1.523   1.759   2.203  0.7664 -1.2778 -2.4531
 7760TIP3    H244696   1.660   1.795   2.254 -1.1303  0.4689  1.8952
 7761TIP3   OH244697   2.402   0.758  11.960  0.2741 -0.5045  0.5365
 7761TIP3    H144698   2.386   0.665  11.980 -1.0884 -0.6116 -0.8507
 7761TIP3    H244699   2.329   0.782  11.902  0.7677  1.3658  0.6589
 7762TIP3   OH244700   0.156   6.316   2.415  0.1140 -0.0650  0.2899
 7762TIP3    H144701   0.132   6.234   2.371  4.1183 -1.1724 -0.1653
 7762TIP3    H244702   0.143   6.383   2.348 -0.9069 -0.6501 -0.1274
 7763TIP3   OH244703   5.557   0.526   3.054 -0.0416  0.1652  0.2458
 7763TIP3    H144704   5.600   0.451   3.012 -0.1579 -0.0245  0.4670
 7763TIP3    H244705   5.465   0.502   3.058 -0.1204  0.4362  0.0706
 7764TIP3   OH244706   2.470   5.778  14.070 -0.0432 -0.1125  0.1750
 7764TIP3    H144707   2.471   5.746  13.980 -0.5704  1.9827 -0.6201
 7764TIP3    H244708   2.382   5.756  14.103 -0.8819  1.5775 -0.8098
 7765TIP3   OH244709   5.830   1.182  11.636  0.4937 -0.4187  0.1609
 7765TIP3    H144710   5.907   1.240  11.640  1.4064 -1.6169  0.6226
 7765TIP3    H244711   5.867   1.095  11.620 -0.9476 -0.6919 -2.0382
 7766TIP3   OH244712   6.462   6.711   0.195 -0.1486 -0.6923 -0.4662
 7766TIP3    H144713   6.417   6.775   0.249 -0.8839 -0.6899 -1.0587
 7766TIP3    H244714   6.480   6.637   0.253 -1.8556 -1.1226 -0.4518
 7767TIP3   OH244715   4.240   1.806   5.292 -0.4282  0.2183 -1.3670
 7767TIP3    H144716   4.193   1.876   5.337  1.5912 -0.5447  2.3017
 7767TIP3    H244717   4.189   1.727   5.311  0.7836 -0.2085  0.3476
 7768TIP3   OH244718   3.582   4.884   3.099 -0.1991  0.1989 -0.5238
 7768TIP3    H144719   3.562   4.851   3.187 -0.1179 -0.1383 -0.6305
 7768TIP3    H244720   3.647   4.823   3.065  1.1803  1.3724 -0.1105
 7769TIP3   OH244721   4.788   2.909  11.207 -0.6381 -0.0276 -0.6722
 7769TIP3    H144722   4.782   2.814  11.215 -1.8376  0.1150  0.5222
 7769TIP3    H244723   4.858   2.923  11.144  2.1223 -1.6443  1.7525
 7770TIP3   OH244724   5.775   2.539  11.270 -0.0438 -0.5170  0.1998
 7770TIP3    H144725   5.709   2.505  11.331  0.8343  0.4762  1.7642
 7770TIP3    H244726   5.732   2.614  11.228  0.2253  0.4710  1.6153
 7771TIP3   OH244727   4.275   4.490  11.849  0.5254  0.7651 -0.8102
 7771TIP3    H144728   4.283   4.584  11.835  0.0711  0.7449 -1.2367
 7771TIP3    H244729   4.193   4.466  11.806 -0.3512  0.4957  0.9244
 7772TIP3   OH244730   5.432   6.247   2.280  0.0128  0.3089  0.4020
 7772TIP3    H144731   5.345   6.285   2.272  0.2827  0.8191 -0.2412
 7772TIP3    H244732   5.489   6.309   2.236  0.3431 -1.3150 -1.6508
 7773TIP3   OH244733   3.911   3.778  12.311 -0.0306  0.5286 -0.4399
 7773TIP3    H144734   3.944   3.840  12.376  0.2198  0.4808 -0.5210
 7773TIP3    H244735   3.832   3.819  12.276 -2.0741 -0.8341  2.1913
 7774TIP3   OH244736   6.739   2.679   0.858 -0.1491  0.0119 -0.7819
 7774TIP3    H144737   6.785   2.597   0.876 -0.7136 -0.6235 -2.0921
 7774TIP3    H244738   6.746   2.728   0.939 -0.6043 -1.7220  0.3602
 7775TIP3   OH244739   3.277   2.484   1.807 -0.2386 -0.2367 -0.2161
 7775TIP3    H144740   3.356   2.529   1.777 -0.0058 -0.3843  0.1800
 7775TIP3    H244741   3.205   2.535   1.769  0.0220  0.4211  0.1642
 7776TIP3   OH244742   4.849   6.489  12.728 -0.2204 -0.2259 -0.4539
 7776TIP3    H144743   4.826   6.443  12.647  2.5733  0.4134 -1.7513
 7776TIP3    H244744   4.920   6.437  12.766 -0.5474  0.2422  0.8575
 7777TIP3   OH244745   2.568   3.476   5.578 -0.0104  0.0018 -0.2676
 7777TIP3    H144746   2.614   3.496   5.660 -2.1152  0.0140  0.9890
 7777TIP3    H244747   2.601   3.391   5.551  0.1006 -0.4044  1.0914
 7778TIP3   OH244748   6.225   0.897   0.953  0.4688 -0.0819  0.5898
 7778TIP3    H144749   6.250   0.830   1.016  0.8875  0.0983  0.6172
 7778TIP3    H244750   6.131   0.911   0.969  0.3815 -0.6547  0.5844
 7779TIP3   OH244751   4.074   2.436  12.694 -0.2440 -0.6307  0.0346
 7779TIP3    H144752   4.136   2.482  12.637 -0.8194  0.0968 -0.0157
 7779TIP3    H244753   3.989   2.449  12.652 -1.2988  3.0885  2.8411
 7780TIP3   OH244754   3.819   5.579   5.274  0.0796 -0.5631  0.2273
 7780TIP3    H144755   3.768   5.615   5.347 -0.1046  0.8984 -0.5884
 7780TIP3    H244756   3.910   5.604   5.293 -0.1826  1.4466 -0.9117
 7781TIP3   OH244757   6.093   2.576   3.253 -0.3351  0.4255  0.1295
 7781TIP3    H144758   6.047   2.518   3.314  0.5442 -0.7888 -0.3075
 7781TIP3    H244759   6.122   2.650   3.307 -2.6707  1.1900  0.4271
 7782TIP3   OH244760   1.036   3.698  13.608 -0.1650 -0.3122 -0.0730
 7782TIP3    H144761   1.031   3.743  13.692 -0.3662 -0.9790  0.2787
 7782TIP3    H244762   1.109   3.740  13.562  0.3883 -0.3948  0.7099
 7783TIP3   OH244763   2.209   6.071   3.379 -0.1677  0.4643  0.3255
 7783TIP3    H144764   2.296   6.034   3.364 -0.0379  0.1190  1.7594
 7783TIP3    H244765   2.225   6.164   3.394  0.1164  0.2212  1.6827
 7784TIP3   OH244766   2.326   1.459  10.793  0.3766 -0.1034 -0.0503
 7784TIP3    H144767   2.302   1.373  10.828  1.0626  0.5646  2.2384
 7784TIP3    H244768   2.420   1.466  10.808  0.6104  0.4460 -1.6417
 7785TIP3   OH244769   2.887   4.798  14.840  0.1161 -0.0971  0.1540
 7785TIP3    H144770   2.935   4.726  14.881  1.6140  0.5682 -0.3615
 7785TIP3    H244771   2.848   4.759  14.761  1.0708 -0.3203 -0.2213
 7786TIP3   OH244772   6.018   3.895   4.147  0.6549 -0.2266  0.2115
 7786TIP3    H144773   6.098   3.859   4.185  0.6290 -1.6427 -0.9861
 7786TIP3    H244774   6.011   3.852   4.062 -1.7214 -0.6070  0.5428
 7787TIP3   OH244775   6.738   6.525   3.406 -0.1017  0.1761  0.0445
 7787TIP3    H144776   6.708   6.585   3.474 -1.7874  0.9381 -1.2765
 7787TIP3    H244777   6.772   6.449   3.453 -1.8101  0.3939  1.7566
 7788TIP3   OH244778   1.742   2.144  14.774 -0.4706 -0.0424  0.3885
 7788TIP3    H144779   1.810   2.132  14.708 -0.8697 -0.3125  0.0220
 7788TIP3    H244780   1.664   2.103  14.737 -0.8338  0.2479  0.8115
 7789TIP3   OH244781   6.777   5.228   2.192 -0.1716  0.3378 -0.2319
 7789TIP3    H144782   6.775   5.136   2.218  0.1274  0.1952 -0.7074
 7789TIP3    H244783   6.833   5.271   2.256  0.0867  0.0962 -0.2959
 7790TIP3   OH244784   1.053   1.149  10.591 -0.1001  0.1074 -0.1732
 7790TIP3    H144785   1.094   1.207  10.655  1.0925  1.2309 -1.8535
 7790TIP3    H244786   1.123   1.092  10.561 -0.0849  0.9480 -1.8881
 7791TIP3   OH244787   5.405   3.706  15.380  0.2583  0.5307 -0.5612
 7791TIP3    H144788   5.384   3.633  15.322  1.3692 -0.0892 -0.2108
 7791TIP3    H244789   5.419   3.665  15.465  0.5483  1.2004 -0.2790
 7792TIP3   OH244790   6.712   3.982   1.941  0.1970  0.5599  0.2715
 7792TIP3    H144791   6.747   3.905   1.986  0.0100 -0.3654 -1.1188
 7792TIP3    H244792   6.762   4.056   1.977  0.8166 -0.2705  1.1610
 7793TIP3   OH244793   3.730   5.125   3.014  0.2340  0.7304 -0.3552
 7793TIP3    H144794   3.811   5.129   3.065 -0.9199  1.6953  1.5066
 7793TIP3    H244795   3.674   5.066   3.064 -0.0055 -0.5222 -2.0145
 7794TIP3   OH244796   4.011   4.310  13.866  0.3178 -0.4724 -0.1607
 7794TIP3    H144797   4.002   4.223  13.905 -3.4802  0.3623  1.2216
 7794TIP3    H244798   4.094   4.343  13.900  1.5307 -3.2331 -0.1878
 7795TIP3   OH244799   2.815   1.295   4.571  0.8577 -0.6428 -0.1428
 7795TIP3    H144800   2.907   1.322   4.578  1.0882 -1.4302  0.0221
 7795TIP3    H244801   2.800   1.241   4.649 -0.8532  2.5197  1.9313
 7796TIP3   OH244802   5.540   2.907   4.651 -0.2544 -0.3369 -0.0701
 7796TIP3    H144803   5.554   2.963   4.575  0.7745 -1.7035 -0.9388
 7796TIP3    H244804   5.484   2.837   4.619  0.5797 -1.1810  0.2692
 7797TIP3   OH244805   1.218   0.170  13.789 -0.4813  0.2581  1.0434
 7797TIP3    H144806   1.157   0.235  13.754  1.9431  2.3952  0.4852
 7797TIP3    H244807   1.172   0.132  13.864 -2.4724  1.7347  0.6544
 7798TIP3   OH244808   1.378   0.639   3.990 -0.6313  0.2130 -0.2928
 7798TIP3    H144809   1.308   0.703   4.005  1.1392  2.2402 -0.2651
 7798TIP3    H244810   1.378   0.625   3.895  0.0224  1.5823 -0.5184
 7799TIP3   OH244811   3.679   2.113   4.520 -0.2293  0.1725 -0.2892
 7799TIP3    H144812   3.645   2.154   4.599 -0.8548  0.1942 -0.5684
 7799TIP3    H244813   3.740   2.046   4.553  0.7396  1.2437  0.1620
 7800TIP3   OH244814   4.762   0.087   0.004  0.7120 -0.2528  0.0215
 7800TIP3    H144815   4.741   0.177   0.029  2.8608 -0.0024  1.2365
 7800TIP3    H244816   4.798   0.048   0.084 -0.7676 -2.4341 -0.2916
 7801TIP3   OH244817   3.414   0.703  14.097 -0.1127 -0.0885  0.5336
 7801TIP3    H144818   3.481   0.636  14.112  0.6071  0.5686  0.3681
 7801TIP3    H244819   3.457   0.766  14.038 -1.0248  0.1360  0.1013
 7802TIP3   OH244820   1.009   1.231  15.675 -0.3391  0.3985 -0.2785
 7802TIP3    H144821   1.051   1.149  15.652 -0.8983 -0.0872  0.4090
 7802TIP3    H244822   0.930   1.206  15.723 -1.2988  1.2946 -1.3325
 7803TIP3   OH244823   2.287   6.666  15.921 -0.8632  0.2407  0.0540
 7803TIP3    H144824   2.286   6.678  16.016  0.6128  0.6421  0.0570
 7803TIP3    H244825   2.258   6.750  15.885  1.5320  1.1926  0.1612
 7804TIP3   OH244826   1.513   1.966   6.263  0.5315  0.2409 -0.1543
 7804TIP3    H144827   1.424   1.997   6.244  0.2714 -1.0361 -1.2250
 7804TIP3    H244828   1.569   2.042   6.247 -0.1923  0.5377 -1.4699
 7805TIP3   OH244829   1.331   1.257  14.085 -0.3908 -0.0426  0.3424
 7805TIP3    H144830   1.413   1.237  14.040 -0.4147  0.6051  0.0020
 7805TIP3    H244831   1.270   1.190  14.055  0.0835 -0.6879  0.8031
 7806TIP3   OH244832   3.369   5.969   1.092 -0.2987 -0.2736 -0.2124
 7806TIP3    H144833   3.391   5.915   1.168 -0.2761  0.0372  0.0070
 7806TIP3    H244834   3.287   6.012   1.115  0.2784  0.7014  0.1202
 7807TIP3   OH244835   1.290   4.318   1.235  0.4482 -0.6246 -0.6810
 7807TIP3    H144836   1.290   4.228   1.268 -1.6006 -0.9325 -1.3844
 7807TIP3    H244837   1.204   4.353   1.260  0.7050  0.7032 -1.5398
 7808TIP3   OH244838   2.937   6.095   1.916  0.2269  0.5512 -0.3051
 7808TIP3    H144839   2.915   6.037   1.988 -1.3850  1.4922 -0.0191
 7808TIP3    H244840   3.006   6.152   1.951  0.2271  0.2948  0.1190
 7809TIP3   OH244841   3.912   6.420   4.296 -0.4907  0.1708 -0.8644
 7809TIP3    H144842   3.860   6.352   4.253  0.4694  0.7494 -3.0718
 7809TIP3    H244843   3.995   6.378   4.317  0.4194  0.8124 -2.9917
 7810TIP3   OH244844   2.225   0.564  17.158 -0.2735 -0.4137  0.0878
 7810TIP3    H144845   2.261   0.585  17.244 -1.6518 -0.0600  0.5969
 7810TIP3    H244846   2.293   0.511  17.116  1.9156  2.2173  0.0483
 7811TIP3   OH244847   2.162   4.809   1.308  0.4508 -0.0325 -0.5576
 7811TIP3    H144848   2.221   4.837   1.378 -0.8942 -0.7839  0.9686
 7811TIP3    H244849   2.218   4.761   1.247  1.3632 -1.3003  1.1610
 7812TIP3   OH244850   5.037   2.673  11.287  0.1926 -0.2332 -0.0387
 7812TIP3    H144851   4.958   2.651  11.336  0.9754 -0.9832  0.9402
 7812TIP3    H244852   5.046   2.768  11.297 -0.1681 -0.2495  0.4828
 7813TIP3   OH244853   1.746   4.813  14.534 -0.0525 -0.6019 -0.3893
 7813TIP3    H144854   1.699   4.858  14.464  0.3405  0.6948  0.1458
 7813TIP3    H244855   1.752   4.878  14.604 -0.8641 -2.0057  1.0502
 7814TIP3   OH244856   1.444   2.943  16.016 -0.0469 -0.4265 -0.0557
 7814TIP3    H144857   1.479   2.972  15.932  1.6769  0.0840  0.7949
 7814TIP3    H244858   1.424   3.025  16.062 -0.8475 -0.7033  0.1031
 7815TIP3   OH244859   5.821   3.571  16.171 -0.0856  0.4679  0.4459
 7815TIP3    H144860   5.906   3.614  16.172 -0.5723  1.4294  1.1161
 7815TIP3    H244861   5.819   3.526  16.086  0.7896  1.0357  0.1050
 7816TIP3   OH244862   6.052   5.753   5.145 -0.3618 -0.5876  0.0966
 7816TIP3    H144863   6.073   5.660   5.147 -2.2385 -1.0685 -0.2637
 7816TIP3    H244864   6.064   5.782   5.236  1.1973 -0.9279  0.0138
 7817TIP3   OH244865   0.316   2.924   1.721 -0.0834 -0.1237 -0.1659
 7817TIP3    H144866   0.278   3.007   1.748 -0.2992 -0.1866 -0.2799
 7817TIP3    H244867   0.256   2.889   1.656 -0.2140 -0.5686  0.1853
 7818TIP3   OH244868   1.405   2.955   3.402 -0.1812  0.3987 -0.0929
 7818TIP3    H144869   1.392   2.871   3.446 -1.0479  0.6969  0.2555
 7818TIP3    H244870   1.478   2.996   3.449  0.5797 -0.3651 -0.5899
 7819TIP3   OH244871   0.823   2.365  14.147 -0.0595  0.6475 -0.4908
 7819TIP3    H144872   0.802   2.458  14.134  2.1380  1.2466 -0.1141
 7819TIP3    H244873   0.836   2.331  14.058  0.8421  1.1448 -0.5548
 7820TIP3   OH244874   2.030   2.010  13.179 -0.5059 -0.2668  0.0830
 7820TIP3    H144875   1.935   2.018  13.182 -0.7598 -2.3369 -0.8275
 7820TIP3    H244876   2.048   1.960  13.100  1.3837  0.3347  0.0761
 7821TIP3   OH244877   5.640   5.931  17.083  0.0887 -0.7140 -0.1592
 7821TIP3    H144878   5.681   5.852  17.120 -2.9397 -2.0806  0.6849
 7821TIP3    H244879   5.643   5.917  16.988  0.1311 -1.5912 -0.0436
 7822TIP3   OH244880   5.128   5.522   2.845 -0.1854  0.4872  0.3226
 7822TIP3    H144881   5.188   5.539   2.772 -0.4549 -0.5104 -0.1508
 7822TIP3    H244882   5.171   5.561   2.921  0.5544  0.7038 -0.1938
 7823TIP3   OH244883   5.667   1.328  14.153  0.0448  0.6184  0.9540
 7823TIP3    H144884   5.726   1.304  14.224  1.9418 -0.1115 -0.7644
 7823TIP3    H244885   5.725   1.360  14.084 -1.3308 -1.7099 -1.4800
 7824TIP3   OH244886   0.217   6.762   5.053  0.4388 -0.0698 -0.3331
 7824TIP3    H144887   0.271   6.707   4.997  1.4846  0.0275  0.5568
 7824TIP3    H244888   0.207   6.844   5.003 -0.1053 -0.5945 -1.1174
 7825TIP3   OH244889   0.164   3.446   2.516  0.1239  0.1300  0.6512
 7825TIP3    H144890   0.122   3.506   2.577 -1.3158  0.3417 -0.4835
 7825TIP3    H244891   0.187   3.369   2.569 -0.9440  0.3678  1.4897
 7826TIP3   OH244892   0.625   5.038   5.270  0.4719 -0.3810  0.0257
 7826TIP3    H144893   0.539   5.075   5.248 -0.1440 -1.7917 -0.0464
 7826TIP3    H244894   0.607   4.974   5.339  1.6354  0.1017  0.7994
 7827TIP3   OH244895   5.417   0.011   1.381 -0.1549  0.3919  0.1690
 7827TIP3    H144896   5.513   0.000   1.381 -0.2607 -0.8528  1.7920
 7827TIP3    H244897   5.386  -0.052   1.316 -0.0773 -2.2809  2.5410
 7828TIP3   OH244898   1.364   3.890   6.480 -0.2815  0.0324  0.0168
 7828TIP3    H144899   1.286   3.939   6.504 -0.7886 -1.1137  0.7981
 7828TIP3    H244900   1.425   3.905   6.552  0.4012  1.2758 -0.7991
 7829TIP3   OH244901   1.022   2.674  14.635 -0.0799  0.0201  0.2082
 7829TIP3    H144902   0.951   2.737  14.623  0.0335 -0.0873 -1.1196
 7829TIP3    H244903   1.060   2.663  14.548  1.6828  0.2002  0.9148
 7830TIP3   OH244904   0.365   3.842  13.133  0.3513 -0.2978  0.9759
 7830TIP3    H144905   0.411   3.897  13.069  0.9455 -0.5153  1.2080
 7830TIP3    H244906   0.298   3.796  13.082  0.6479 -0.2719  0.5581
 7831TIP3   OH244907   0.214   6.328  17.155  0.6016  0.1348  0.5301
 7831TIP3    H144908   0.165   6.352  17.233 -2.2198 -0.6200 -0.8834
 7831TIP3    H244909   0.270   6.256  17.183 -0.6063 -0.3513  1.7978
 7832TIP3   OH244910   2.018   5.848   4.571  0.3065 -0.5774 -0.6593
 7832TIP3    H144911   1.943   5.855   4.630 -1.6795  1.8894 -3.2264
 7832TIP3    H244912   2.091   5.886   4.621 -0.8477 -0.2208  0.8262
 7833TIP3   OH244913   4.935   5.211   3.043  0.2054  0.4487  0.1569
 7833TIP3    H144914   4.849   5.246   3.065 -0.4522  0.2000 -1.7658
 7833TIP3    H244915   4.934   5.206   2.947  2.1362 -0.1415  0.1346
 7834TIP3   OH244916   0.076   1.781   4.732 -0.2787 -0.4152 -0.0872
 7834TIP3    H144917   0.034   1.728   4.664  0.3827 -0.2837 -0.6171
 7834TIP3    H244918   0.013   1.850   4.752 -1.4055 -1.7233  1.0469
 7835TIP3   OH244919   2.903   6.044  12.838 -0.1863  0.1733 -0.7330
 7835TIP3    H144920   2.808   6.048  12.835 -0.1785 -0.3085 -2.2208
 7835TIP3    H244921   2.922   5.973  12.900 -0.8320 -0.7000 -1.5111
 7836TIP3   OH244922   0.848   3.820  17.018  0.1813  0.5204  0.0990
 7836TIP3    H144923   0.819   3.747  17.072  0.5910  1.9750  2.4232
 7836TIP3    H244924   0.770   3.873  17.005  0.2055  0.4704 -0.2611
 7837TIP3   OH244925   0.851   6.085  14.390 -0.2565 -0.5769 -0.0550
 7837TIP3    H144926   0.826   6.107  14.480  0.5898  0.1946  0.0054
 7837TIP3    H244927   0.772   6.047  14.352 -0.1128 -2.6663  1.5601
 7838TIP3   OH244928   4.453   0.210  13.912  0.2450  0.1042  0.0951
 7838TIP3    H144929   4.525   0.147  13.910  0.3622  0.2268  0.3624
 7838TIP3    H244930   4.431   0.225  13.820  1.6166  1.2653 -0.0828
 7839TIP3   OH244931   2.081   2.504  11.252  0.2744 -0.1142  0.4091
 7839TIP3    H144932   2.015   2.446  11.291 -1.0855 -1.2208 -3.1571
 7839TIP3    H244933   2.058   2.590  11.285 -1.2278 -0.8639  1.4821
 7840TIP3   OH244934   1.936   1.427  14.463  0.4318 -0.3338 -0.8481
 7840TIP3    H144935   2.002   1.497  14.461 -0.9338  1.2496  2.2591
 7840TIP3    H244936   1.987   1.348  14.479  1.7379  0.7009  0.5020
 7841TIP3   OH244937   1.277   2.777  14.988  0.4168  0.6135 -0.3527
 7841TIP3    H144938   1.193   2.760  14.946 -0.2372  0.5966  0.9009
 7841TIP3    H244939   1.298   2.867  14.965  1.4540 -0.1927 -2.9401
 7842TIP3   OH244940   4.126   0.844  13.984  0.3977 -1.1094  0.7068
 7842TIP3    H144941   4.071   0.918  13.959  1.4117 -0.2107  1.0770
 7842TIP3    H244942   4.175   0.823  13.904  1.4072 -0.2111  1.0691
 7843TIP3   OH244943   3.600   2.492   5.445  0.0356 -0.3156 -0.6223
 7843TIP3    H144944   3.563   2.580   5.448 -0.3138 -0.3935 -1.9523
 7843TIP3    H244945   3.692   2.503   5.468 -0.3092  0.1987  0.5291
 7844TIP3   OH244946   3.891   4.189  16.510  0.7670  0.3047 -0.4912
 7844TIP3    H144947   3.923   4.261  16.455  0.2080  1.0745  0.1729
 7844TIP3    H244948   3.798   4.208  16.521  1.0807  0.7799  1.6382
 7845TIP3   OH244949   6.244   2.233  15.252  0.0830  0.7821  0.0474
 7845TIP3    H144950   6.297   2.172  15.200  1.6404  2.4844 -0.4766
 7845TIP3    H244951   6.306   2.300  15.281 -1.5504  2.1068  0.6395
 7846TIP3   OH244952   0.742   3.421   5.020 -0.1361  0.5204  0.0358
 7846TIP3    H144953   0.809   3.404   5.087 -2.7185 -1.8773  2.2818
 7846TIP3    H244954   0.678   3.477   5.064 -0.6089  1.0980 -1.3452
 7847TIP3   OH244955   3.274   2.157   1.416 -0.4996  0.5384  0.1552
 7847TIP3    H144956   3.306   2.244   1.438 -0.6640  0.7825 -0.5318
 7847TIP3    H244957   3.204   2.173   1.352 -1.7372  0.0081  1.3323
 7848TIP3   OH244958   3.361   0.283  14.709  0.9881  0.2139  0.2085
 7848TIP3    H144959   3.333   0.223  14.640 -0.4112 -0.6348  1.4736
 7848TIP3    H244960   3.281   0.308  14.754  1.5996  2.5804  0.1343
 7849TIP3   OH244961   6.336   2.747   5.153  0.0080 -0.2585  0.3594
 7849TIP3    H144962   6.256   2.700   5.131 -0.6953 -0.0476  2.3002
 7849TIP3    H244963   6.310   2.811   5.218  1.3592  1.3877 -0.6124
 7850TIP3   OH244964   3.428   4.202  14.371 -0.7023  0.3052 -0.2684
 7850TIP3    H144965   3.400   4.239  14.287  1.0402 -1.7771 -1.8701
 7850TIP3    H244966   3.359   4.141  14.395  0.4414 -1.9241 -2.2284
 7851TIP3   OH244967   3.346   0.514   3.517 -0.1732  0.2088 -0.2786
 7851TIP3    H144968   3.390   0.508   3.602 -0.3311 -2.0222 -0.2731
 7851TIP3    H244969   3.289   0.590   3.525  1.6191  1.5341  0.6865
 7852TIP3   OH244970   6.475   5.356   3.477  0.1297 -0.3662 -0.1002
 7852TIP3    H144971   6.514   5.276   3.510  0.8873  0.0402  0.0269
 7852TIP3    H244972   6.503   5.424   3.538 -1.3288 -0.1477  0.3618
 7853TIP3   OH244973   2.170   1.994   4.339  0.2590 -0.3474  0.4349
 7853TIP3    H144974   2.098   2.035   4.291  0.3361  1.8770  2.0680
 7853TIP3    H244975   2.127   1.938   4.404  0.0856 -0.7001  0.0240
 7854TIP3   OH244976   4.680   5.837   4.962 -0.2984  0.0353  0.3400
 7854TIP3    H144977   4.742   5.903   4.994 -1.0719  0.6421  0.6370
 7854TIP3    H244978   4.734   5.771   4.920  0.5169  0.7870  0.1780
 7855TIP3   OH244979   6.589   0.837   1.740  0.0576  0.2087  0.2019
 7855TIP3    H144980   6.641   0.758   1.728  1.3185  0.8413  1.2626
 7855TIP3    H244981   6.532   0.841   1.663  1.2562 -0.7543 -0.7602
 7856TIP3   OH244982   3.835   3.019   5.890  0.5970 -0.3604  0.1303
 7856TIP3    H144983   3.913   3.027   5.945  1.5481 -0.3145 -1.1710
 7856TIP3    H244984   3.784   3.097   5.910  1.5843  0.3503 -0.0312
 7857TIP3   OH244985   6.749   5.002   0.237  0.1957  0.2870  0.1751
 7857TIP3    H144986   6.654   4.990   0.235  0.3079 -0.6405 -0.4351
 7857TIP3    H244987   6.763   5.090   0.205 -0.4335  0.2300 -0.2734
 7858TIP3   OH244988   4.291   5.056   2.191  0.6238  0.1805  0.2286
 7858TIP3    H144989   4.256   5.119   2.254  2.6911  0.7324  0.8997
 7858TIP3    H244990   4.282   5.100   2.106  0.7051  0.7734  0.5204
 7859TIP3   OH244991   5.750   5.845  13.955  0.0660  0.0766 -0.2677
 7859TIP3    H144992   5.822   5.908  13.957 -0.0937  0.2750  1.8140
 7859TIP3    H244993   5.685   5.881  14.015 -0.7419 -1.2689 -0.2913
 7860TIP3   OH244994   1.876   0.710   5.579 -0.1192 -0.4638 -0.6732
 7860TIP3    H144995   1.843   0.682   5.665 -1.8678  0.0101 -1.1671
 7860TIP3    H244996   1.880   0.629   5.528 -0.8457 -0.4748 -0.7125
 7861TIP3   OH244997   5.856   3.273  11.926  0.1347 -0.4059 -0.0593
 7861TIP3    H144998   5.932   3.329  11.936  0.2738 -0.5292 -0.4173
 7861TIP3    H244999   5.784   3.322  11.966  0.5305 -0.5847  0.9205
 7862TIP3   OH245000   1.428   5.702  14.895 -0.2302  0.1056  0.1661
 7862TIP3    H145001   1.377   5.697  14.975 -0.6548 -2.1912 -0.1877
 7862TIP3    H245002   1.368   5.676  14.825  0.5391  0.5397 -0.6908
 7863TIP3   OH245003   0.401   2.987  12.402 -0.2156  0.4465  0.3211
 7863TIP3    H145004   0.372   2.931  12.474  0.6643  0.7262  0.9023
 7863TIP3    H245005   0.372   2.941  12.323 -1.6822  0.4159  0.8535
 7864TIP3   OH245006   3.711   5.045   2.030 -0.1252  0.3666 -0.5840
 7864TIP3    H145007   3.659   5.104   1.976 -1.5634  0.9871  1.3478
 7864TIP3    H245008   3.647   5.003   2.089  1.4227  0.5703  1.3641
 7865TIP3   OH245009   2.675   0.965  13.863  0.2544  0.2696 -0.0445
 7865TIP3    H145010   2.648   1.004  13.946  0.8250  1.5974 -0.4644
 7865TIP3    H245011   2.695   0.874  13.885 -0.5473  0.3414  1.0715
 7866TIP3   OH245012   3.664   4.754  15.316 -0.4279  0.1828 -0.0992
 7866TIP3    H145013   3.710   4.699  15.380  2.1110  1.4436 -0.6784
 7866TIP3    H245014   3.714   4.742  15.235 -1.9089  0.7430 -1.1362
 7867TIP3   OH245015   1.366   1.242   5.103 -0.0606  0.4992 -0.5229
 7867TIP3    H145016   1.281   1.207   5.131 -0.9747  2.4067 -0.7216
 7867TIP3    H245017   1.373   1.326   5.149  3.2618 -0.9880  2.0787
 7868TIP3   OH245018   1.055   0.971   0.463 -0.2711  0.1868 -0.4508
 7868TIP3    H145019   0.997   0.918   0.409 -0.9159  0.8331 -0.4080
 7868TIP3    H245020   1.025   0.956   0.553  1.7552 -2.0765 -0.0653
 7869TIP3   OH245021   2.896   0.733   2.152  0.7183  0.3008 -0.0765
 7869TIP3    H145022   2.827   0.751   2.216  0.0839  1.8498 -1.1218
 7869TIP3    H245023   2.977   0.749   2.199  0.3199 -0.2200  0.8043
 7870TIP3   OH245024   1.136   1.548   3.618 -0.3526 -0.3741  0.5158
 7870TIP3    H145025   1.204   1.494   3.658  0.3409  0.6835  0.8079
 7870TIP3    H245026   1.109   1.608   3.688  0.9561  1.5817 -0.5373
 7871TIP3   OH245027   2.783   0.983   1.945 -0.3956 -0.6183  0.2886
 7871TIP3    H145028   2.791   0.998   2.039 -0.8603 -1.2555  0.4359
 7871TIP3    H245029   2.864   0.936   1.922  1.5157  2.7106 -0.3492
 7872TIP3   OH245030   5.941   1.014   4.216 -0.2976  0.3009  0.4329
 7872TIP3    H145031   6.009   1.066   4.175  0.5776 -0.8461  0.3742
 7872TIP3    H245032   5.940   1.043   4.307  0.5027  0.1100  0.5107
 7873TIP3   OH245033   4.489   2.406  15.328 -0.1459  0.2149 -0.0656
 7873TIP3    H145034   4.443   2.369  15.403  0.3633  1.6567  1.0212
 7873TIP3    H245035   4.572   2.436  15.364  0.8328 -0.5857 -1.5882
 7874TIP3   OH245036   2.876   4.817  17.102  0.3328 -0.5702 -0.2762
 7874TIP3    H145037   2.943   4.754  17.077  0.2586 -0.4826 -0.6948
 7874TIP3    H245038   2.793   4.772  17.086  0.2869 -0.8719  0.7368
 7875TIP3   OH245039   3.082   0.760   6.437  0.6718  0.8159 -0.1860
 7875TIP3    H145040   3.117   0.743   6.350  0.4895 -2.1463  0.2316
 7875TIP3    H245041   3.149   0.728   6.497 -0.9746 -1.3351  0.6515
 7876TIP3   OH245042   1.352   3.330  12.895  0.1620  0.2526  0.3825
 7876TIP3    H145043   1.291   3.308  12.825  1.1919  0.2428 -0.5444
 7876TIP3    H245044   1.414   3.257  12.896  0.9474  0.9089  0.3808
 7877TIP3   OH245045   5.233   1.823   2.566  0.2623 -0.3088  0.6432
 7877TIP3    H145046   5.169   1.757   2.592 -0.8161  0.7170  0.6651
 7877TIP3    H245047   5.194   1.867   2.491  2.0536 -1.2903 -0.9729
 7878TIP3   OH245048   6.185   0.240   5.098 -0.0949 -0.3489 -0.1642
 7878TIP3    H145049   6.090   0.234   5.099 -0.2499  1.3790  1.3033
 7878TIP3    H245050   6.215   0.153   5.123 -1.3861 -0.3787  1.5004
 7879TIP3   OH245051   1.023   1.495   3.282 -0.1096  0.1712  0.7787
 7879TIP3    H145052   1.019   1.439   3.205 -1.5710  1.0064  0.2120
 7879TIP3    H245053   0.940   1.479   3.327 -0.1669  1.2347  1.0620
 7880TIP3   OH245054   0.421   0.258  11.470  0.6965  0.0935 -0.3014
 7880TIP3    H145055   0.365   0.221  11.538 -0.6138  0.1049 -1.3490
 7880TIP3    H245056   0.460   0.336  11.511  0.6797 -0.4312  0.7412
 7881TIP3   OH245057   4.228   4.191  12.644  0.2949 -0.1451 -0.3545
 7881TIP3    H145058   4.300   4.246  12.611  1.5530 -0.5502  1.5203
 7881TIP3    H245059   4.270   4.134  12.709 -1.7762 -0.1918  1.0300
 7882TIP3   OH245060   1.672   5.267   5.564  0.1997  0.0525 -0.7043
 7882TIP3    H145061   1.668   5.269   5.468 -1.7319 -0.2276 -0.6779
 7882TIP3    H245062   1.583   5.243   5.591  1.2314 -2.0680  1.1207
 7883TIP3   OH245063   6.102   1.217  15.955  0.8363  0.1282  0.1698
 7883TIP3    H145064   6.146   1.274  16.019 -0.2146  2.2160 -0.8548
 7883TIP3    H245065   6.162   1.214  15.880  0.8954 -0.1464  0.2262
 7884TIP3   OH245066   5.221   4.741   1.694  0.1216  0.5040 -0.0014
 7884TIP3    H145067   5.167   4.712   1.768  1.0179  0.1212  0.5170
 7884TIP3    H245068   5.160   4.743   1.620 -0.6207  0.1443  0.5783
 7885TIP3   OH245069   5.863   2.169  14.979 -0.0158 -0.1819  0.3868
 7885TIP3    H145070   5.882   2.170  15.073 -1.0466 -1.0985  0.6304
 7885TIP3    H245071   5.947   2.147  14.938  0.4100  0.0743  1.1077
 7886TIP3   OH245072   0.587   3.599   0.581  0.0297 -0.3797  0.1290
 7886TIP3    H145073   0.585   3.692   0.601 -1.6021 -0.1860 -0.7158
 7886TIP3    H245074   0.628   3.558   0.657  2.9251  1.1920 -0.4327
 7887TIP3   OH245075   6.167   4.047   2.003  0.0484 -0.3679  0.4658
 7887TIP3    H145076   6.146   4.121   2.061  0.0326  0.2955 -0.3728
 7887TIP3    H245077   6.263   4.049   1.996 -0.0617  1.2008 -1.5922
 7888TIP3   OH245078   4.468   6.305  15.670  0.0072  0.2815  0.1424
 7888TIP3    H145079   4.378   6.335  15.682  0.4774  1.0148  2.1971
 7888TIP3    H245080   4.460   6.210  15.659 -1.0953  0.4947 -1.1771
 7889TIP3   OH245081   6.099   6.671   4.388  0.2685  0.6336  0.6870
 7889TIP3    H145082   6.170   6.734   4.393 -0.5008  1.6907 -0.9243
 7889TIP3    H245083   6.025   6.712   4.433 -0.3376  1.0888 -0.6591
 7890TIP3   OH245084   3.397   4.245  15.665 -0.3097 -0.4171 -0.3129
 7890TIP3    H145085   3.370   4.213  15.579  1.0063 -1.7605 -0.2577
 7890TIP3    H245086   3.321   4.230  15.721 -0.7685 -0.6129 -0.9755
 7891TIP3   OH245087   1.135   5.720  13.867  0.2461 -0.5728  0.7729
 7891TIP3    H145088   1.134   5.785  13.797 -0.0636 -1.7213 -0.3073
 7891TIP3    H245089   1.051   5.674  13.859  0.5185 -1.2011  1.4327
 7892TIP3   OH245090   5.252   0.922  15.146  0.2339  0.1925 -0.1191
 7892TIP3    H145091   5.316   0.993  15.133  3.1064 -2.0562  0.6756
 7892TIP3    H245092   5.246   0.880  15.060  2.0676 -1.2427  0.3879
 7893TIP3   OH245093   1.823   3.027  16.711 -0.3130  0.5533 -0.2407
 7893TIP3    H145094   1.774   3.037  16.793 -0.2356 -1.6829  0.1532
 7893TIP3    H245095   1.856   2.937  16.714  2.3593  1.4138 -1.3163
 7894TIP3   OH245096   3.644   1.702  17.018  0.4396 -0.2506  0.0952
 7894TIP3    H145097   3.624   1.795  17.024  2.0291  0.0826  0.6011
 7894TIP3    H245098   3.721   1.697  16.962  2.2068 -0.9273  2.4088
 7895TIP3   OH245099   0.016   3.521  15.861 -0.5363 -0.2234  0.0349
 7895TIP3    H145100   0.028   3.578  15.938 -0.1344  0.4575 -0.5232
 7895TIP3    H245101   0.058   3.568  15.790 -3.8966  0.8611 -1.4178
 7896TIP3   OH245102   5.294   3.444  13.158  0.2691  0.3004 -0.1618
 7896TIP3    H145103   5.241   3.446  13.079  1.4469  0.9054 -0.9641
 7896TIP3    H245104   5.263   3.517  13.210  1.8383  2.1538 -1.6921
 7897TIP3   OH245105   3.253   6.274   5.778  0.4752 -0.4677  0.3189
 7897TIP3    H145106   3.255   6.193   5.727  0.1167  0.0804 -0.5794
 7897TIP3    H245107   3.260   6.244   5.869  0.4755 -1.4988 -0.0013
 7898TIP3   OH245108   3.938   2.971  14.832 -0.4968  0.2158 -0.0406
 7898TIP3    H145109   4.020   2.948  14.877 -0.7782  0.4861  0.6140
 7898TIP3    H245110   3.907   3.049  14.876 -0.6316  0.6653 -0.9015
 7899TIP3   OH245111   1.982   0.720  16.327  0.7549 -0.0276  0.3387
 7899TIP3    H145112   2.040   0.678  16.262  0.4046  2.1504 -1.5011
 7899TIP3    H245113   1.931   0.783  16.276 -1.0063  0.3565  2.4512
 7900TIP3   OH245114   3.558   0.561  12.983  0.5713 -0.8276  1.1341
 7900TIP3    H145115   3.496   0.634  12.994  1.3208 -0.0796  0.5645
 7900TIP3    H245116   3.631   0.583  13.041  0.9642 -0.9300  0.6865
 7901TIP3   OH245117   0.711   4.044   0.460  0.0070 -0.3139  0.3560
 7901TIP3    H145118   0.635   3.996   0.493 -0.3936  0.8833  1.2204
 7901TIP3    H245119   0.699   4.134   0.491 -0.6144  1.0520 -3.4080
 7902TIP3   OH245120   5.272   2.888  13.713  0.1871 -0.0700 -0.7162
 7902TIP3    H145121   5.240   2.865  13.626 -1.3293 -1.7016  0.2212
 7902TIP3    H245122   5.224   2.967  13.736 -0.0432 -0.1236 -1.0113
 7903TIP3   OH245123   4.263   0.949   3.493 -0.3483 -0.1394  0.2324
 7903TIP3    H145124   4.323   0.902   3.551 -1.9144 -1.0169  1.2100
 7903TIP3    H245125   4.251   0.891   3.419 -0.9763 -0.5462  0.6465
 7904TIP3   OH245126   1.737   0.404  15.436  0.0043 -0.1492 -0.5477
 7904TIP3    H145127   1.713   0.400  15.528  0.3447  0.2600 -0.4420
 7904TIP3    H245128   1.833   0.401  15.435  0.0162  0.2189 -0.8684
 7905TIP3   OH245129   3.235   2.061  13.908  0.2046  0.6320  0.6644
 7905TIP3    H145130   3.187   2.018  13.836  1.9696 -0.6387  0.1617
 7905TIP3    H245131   3.280   1.989  13.952  0.6104  1.6227  1.9126
 7906TIP3   OH245132   4.176   0.729   3.671 -0.5346  0.0026  0.2040
 7906TIP3    H145133   4.118   0.703   3.743 -0.6348 -1.1548 -0.2855
 7906TIP3    H245134   4.118   0.771   3.608 -0.6663 -0.1738  0.2066
 7907TIP3   OH245135   0.385   1.895  17.119 -0.2797 -0.0658 -0.0492
 7907TIP3    H145136   0.445   1.914  17.047  0.1571  0.4400  0.4351
 7907TIP3    H245137   0.436   1.840  17.179  0.0309  1.0935  0.7966
 7908TIP3   OH245138   5.670   0.823   1.553  0.0092 -0.1612 -0.2975
 7908TIP3    H145139   5.620   0.870   1.620  1.5465  0.0570  0.7559
 7908TIP3    H245140   5.753   0.870   1.548  1.7990 -2.9140  1.1100
 7909TIP3   OH245141   0.776   2.432  11.601  0.3166  0.5428 -0.1910
 7909TIP3    H145142   0.767   2.403  11.510  0.3600 -1.7345  0.4773
 7909TIP3    H245143   0.693   2.410  11.642  0.7768  0.3075  0.6332
 7910TIP3   OH245144   2.278   4.465  11.574 -0.1552 -0.1851 -0.5254
 7910TIP3    H145145   2.234   4.444  11.492 -3.1875 -0.2391  0.9475
 7910TIP3    H245146   2.311   4.554  11.563 -2.6580  0.7540 -1.0713
 7911TIP3   OH245147   4.747   3.761  16.926  0.3544  0.1944  0.1400
 7911TIP3    H145148   4.685   3.710  16.978  0.4880  0.8221  0.9425
 7911TIP3    H245149   4.802   3.804  16.991  1.1341  0.2627 -0.5496
 7912TIP3   OH245150   0.905   2.558   2.793  0.4272  0.5620 -0.5556
 7912TIP3    H145151   0.967   2.631   2.798  1.0855  0.0228 -0.7600
 7912TIP3    H245152   0.825   2.592   2.833  0.7302  1.3932 -0.6322
 7913TIP3   OH245153   0.054   2.171   0.452 -0.0316  0.4292  0.4981
 7913TIP3    H145154  -0.009   2.230   0.410  0.6019  0.9312  0.2211
 7913TIP3    H245155   0.104   2.134   0.379 -0.0401 -0.0130  0.7110
 7914TIP3   OH245156   2.094   5.882  16.640 -0.7429 -0.1934  0.3785
 7914TIP3    H145157   2.026   5.871  16.706 -0.3695 -3.1384  0.4091
 7914TIP3    H245158   2.161   5.936  16.682 -1.4239 -0.3172  1.6548
 7915TIP3   OH245159   4.146   1.691  16.805 -0.3187  0.3519  0.5895
 7915TIP3    H145160   4.111   1.700  16.894  0.4498 -1.0616  1.0728
 7915TIP3    H245161   4.083   1.737  16.750 -2.6681 -1.5317  1.4911
 7916TIP3   OH245162   3.618   6.062  10.451  0.6919  0.1389  0.3645
 7916TIP3    H145163   3.687   6.082  10.514 -0.7435 -0.0983  2.0889
 7916TIP3    H245164   3.626   5.967  10.437  1.8016  0.3862 -0.8230
 7917TIP3   OH245165   5.703   2.220   4.753  0.0749  0.0871 -0.0905
 7917TIP3    H145166   5.718   2.313   4.772 -2.2530  0.3734  0.7096
 7917TIP3    H245167   5.703   2.214   4.658  0.6393  0.8187 -0.1461
 7918TIP3   OH245168   3.312   2.874   2.893  0.3968 -0.3321  0.2918
 7918TIP3    H145169   3.280   2.823   2.967 -0.6566 -0.0478  0.0619
 7918TIP3    H245170   3.259   2.955   2.895  0.0493 -0.5019 -0.9878
 7919TIP3   OH245171   6.044   1.883  13.777 -0.2569  0.1243 -0.2020
 7919TIP3    H145172   6.108   1.878  13.706  1.0039 -0.2227  0.9283
 7919TIP3    H245173   5.968   1.835  13.743  0.1294  0.3653 -1.4856
 7920TIP3   OH245174   1.120   6.557  13.884 -0.0819 -0.0857  0.2974
 7920TIP3    H145175   1.171   6.580  13.962 -1.7002  2.0644  0.8196
 7920TIP3    H245176   1.083   6.472  13.904  0.2141  0.0546  1.5174
 7921TIP3   OH245177   3.393   6.176  10.567  0.1503  0.0259 -0.1778
 7921TIP3    H145178   3.303   6.167  10.535  0.2062  1.0913 -0.6648
 7921TIP3    H245179   3.446   6.132  10.501 -0.0970 -1.8668  0.8159
 7922TIP3   OH245180   4.221   4.080  16.092  0.1728  0.0550 -0.9064
 7922TIP3    H145181   4.188   4.020  16.159  2.4675 -0.9017 -0.5367
 7922TIP3    H245182   4.190   4.043  16.010  1.1992 -1.4384 -0.6518
 7923TIP3   OH245183   6.758   4.236  13.620 -0.5097 -0.6489  0.2001
 7923TIP3    H145184   6.818   4.279  13.559 -0.3485 -0.3055  0.5987
 7923TIP3    H245185   6.671   4.253  13.584 -0.4300 -0.2248  0.2051
 7924TIP3   OH245186   1.429   0.235   1.816 -0.2390  0.0203 -0.5611
 7924TIP3    H145187   1.507   0.181   1.830  1.7602  2.0510 -2.9935
 7924TIP3    H245188   1.405   0.265   1.903  1.4763 -0.9650  0.3069
 7925TIP3   OH245189   2.060   5.106  11.206 -0.0653  0.1829 -0.1028
 7925TIP3    H145190   2.146   5.147  11.199 -0.1168  0.1714 -0.7822
 7925TIP3    H245191   1.999   5.173  11.178 -0.3590  0.4590  1.1135
 7926TIP3   OH245192   0.483   5.852  13.433 -0.0809  0.1850 -0.3766
 7926TIP3    H145193   0.457   5.943  13.417  1.4907  0.4056 -1.9471
 7926TIP3    H245194   0.514   5.821  13.348  0.4454 -1.4799  0.3933
 7927TIP3   OH245195   3.619   4.914  12.884  0.0101  0.3071  0.4154
 7927TIP3    H145196   3.590   4.836  12.837  1.2237 -0.3186  0.6715
 7927TIP3    H245197   3.539   4.947  12.926 -0.6423 -0.4248 -0.2097
 7928TIP3   OH245198   4.460   1.580  16.333 -0.3336  0.3374  0.6227
 7928TIP3    H145199   4.507   1.497  16.330 -0.3649  0.3371 -0.3183
 7928TIP3    H245200   4.448   1.599  16.426  2.7335  1.0267  0.9792
 7929TIP3   OH245201   4.062   6.628  15.247  0.0800 -0.8140  0.1088
 7929TIP3    H145202   4.113   6.702  15.280 -2.4672  0.1770  2.1593
 7929TIP3    H245203   4.081   6.556  15.308  0.0553 -0.8402  0.0858
 7930TIP3   OH245204   4.476   0.707   0.193  0.0674 -0.1681  0.2904
 7930TIP3    H145205   4.416   0.755   0.136  1.6469  0.5234 -0.8655
 7930TIP3    H245206   4.533   0.775   0.230  2.0382 -1.0266 -0.9974
 7931TIP3   OH245207   5.123   6.260   0.140 -0.3876  0.0970  0.2006
 7931TIP3    H145208   5.209   6.272   0.100  0.3072 -1.3389  1.1806
 7931TIP3    H245209   5.079   6.196   0.085 -0.3395 -0.1005  0.3883
 7932TIP3   OH245210   5.645   2.633  15.819 -0.1802 -0.4487 -0.0586
 7932TIP3    H145211   5.690   2.715  15.801 -1.7458  0.3687 -0.3876
 7932TIP3    H245212   5.698   2.591  15.887  0.2457  1.1707  0.6431
 7933TIP3   OH245213   4.263   5.496  13.271 -0.4540 -0.3717 -0.4474
 7933TIP3    H145214   4.331   5.437  13.239 -1.3726 -1.0490 -1.1626
 7933TIP3    H245215   4.181   5.457  13.243 -1.1667  0.3422  0.5670
 7934TIP3   OH245216   0.930   2.767   5.772  0.3527 -0.4397  0.5091
 7934TIP3    H145217   0.988   2.740   5.701  0.6085  1.4335 -0.0294
 7934TIP3    H245218   0.931   2.862   5.769 -0.2717 -0.3392  2.5319
 7935TIP3   OH245219   0.441   2.114  13.811  0.5096 -0.1506  0.7069
 7935TIP3    H145220   0.471   2.175  13.878  2.0230  0.8816 -0.8103
 7935TIP3    H245221   0.448   2.027  13.851  1.6816  0.4137  1.7636
 7936TIP3   OH245222   1.054   0.939  13.020  0.2047 -0.2142 -0.5868
 7936TIP3    H145223   1.088   0.930  12.931  1.8995  0.6645 -0.0922
 7936TIP3    H245224   1.126   0.907  13.076 -0.5203 -0.0322  0.4791
 7937TIP3   OH245225   5.184   5.062  12.395 -0.2333 -0.1783  0.1255
 7937TIP3    H145226   5.121   5.047  12.324  1.6369  0.7715 -1.8256
 7937TIP3    H245227   5.261   5.012  12.370  0.5424  0.3248  1.4199
 7938TIP3   OH245228   5.862   3.118   5.387 -0.6303 -0.0150 -0.3543
 7938TIP3    H145229   5.837   3.074   5.306  0.4159  1.2608 -1.4000
 7938TIP3    H245230   5.785   3.110   5.443 -0.7429 -2.5234 -0.7506
 7939TIP3   OH245231   5.526   6.522  14.290  0.4481  0.2365 -0.1036
 7939TIP3    H145232   5.566   6.605  14.264  1.6749 -0.3589 -0.1619
 7939TIP3    H245233   5.532   6.467  14.212 -3.2782  1.0576 -1.1914
 7940TIP3   OH245234   0.493   3.289  13.114  0.5644 -0.4266 -0.6587
 7940TIP3    H145235   0.551   3.244  13.053  0.2643 -2.7127  0.6384
 7940TIP3    H245236   0.446   3.219  13.159  1.4395  1.0407  2.9023
 7941TIP3   OH245237   3.241   1.121  11.977 -0.6224  0.0624  0.1693
 7941TIP3    H145238   3.327   1.127  11.935 -1.0552  0.9264 -0.6228
 7941TIP3    H245239   3.179   1.151  11.910 -1.5647 -0.6757  0.6784
 7942TIP3   OH245240   6.249   2.545  14.808  0.0079 -0.2373  0.4372
 7942TIP3    H145241   6.325   2.516  14.859 -0.4689 -1.4044  0.5167
 7942TIP3    H245242   6.267   2.636  14.788  2.7006 -1.1375 -1.7927
 7943TIP3   OH245243   5.896   5.140  12.583  0.0147  0.1887  0.1471
 7943TIP3    H145244   5.956   5.076  12.623 -0.8118 -0.5690  0.2230
 7943TIP3    H245245   5.871   5.197  12.655  3.1535  2.6602 -0.4744
 7944TIP3   OH245246   4.925   2.608   0.530  0.2725 -0.3264  0.5596
 7944TIP3    H145247   5.000   2.660   0.504  0.5065 -1.1576 -0.5143
 7944TIP3    H245248   4.853   2.670   0.537  1.1989  0.5982  2.3372
 7945TIP3   OH245249   0.272   0.662   2.339  0.0666 -0.8955  0.0008
 7945TIP3    H145250   0.338   0.690   2.403  0.8167 -0.5973 -0.8768
 7945TIP3    H245251   0.298   0.574   2.315  0.4681 -0.5818 -0.7423
 7946TIP3   OH245252   6.626   4.049  15.497  0.7785 -0.1928  0.0884
 7946TIP3    H145253   6.649   3.959  15.519 -0.3788 -0.8612 -1.2354
 7946TIP3    H245254   6.700   4.081  15.446  1.8155  0.1101  1.7344
 7947TIP3   OH245255   2.438   5.196   4.939  0.4265  0.0181  0.2775
 7947TIP3    H145256   2.355   5.242   4.947  0.3899 -0.1504  0.8644
 7947TIP3    H245257   2.478   5.201   5.026  1.7111  1.3620 -0.3355
 7948TIP3   OH245258   3.959   2.095   1.824 -0.8477 -0.1882 -0.3527
 7948TIP3    H145259   4.044   2.084   1.865 -1.2456 -0.9348  0.2996
 7948TIP3    H245260   3.967   2.050   1.739 -0.7111 -0.6100 -0.1208
 7949TIP3   OH245261   3.223   5.148  14.523  0.0624  0.4157  0.2773
 7949TIP3    H145262   3.137   5.127  14.559 -0.7013  0.9786 -1.1609
 7949TIP3    H245263   3.221   5.115  14.434  0.7753  1.7605 -0.2745
 7950TIP3   OH245264   3.849   6.551   3.413  0.2152  0.1626 -0.2149
 7950TIP3    H145265   3.944   6.543   3.425  0.5151 -1.2144 -2.7858
 7950TIP3    H245266   3.834   6.645   3.407  2.1026  0.3944 -3.7030
 7951TIP3   OH245267   2.749   3.558  12.854 -0.2701 -0.3213  0.0857
 7951TIP3    H145268   2.844   3.562  12.841 -0.2892  2.0019  0.3681
 7951TIP3    H245269   2.737   3.486  12.916  1.4562  0.3409  1.2642
 7952TIP3   OH245270   0.552   3.601  14.194 -0.5217 -0.1877 -0.6225
 7952TIP3    H145271   0.607   3.632  14.122 -1.7049  1.6199 -0.8420
 7952TIP3    H245272   0.486   3.546  14.152  1.6838 -3.3539 -0.2130
 7953TIP3   OH245273   0.042   3.807   1.230 -0.2994 -0.6910  0.4322
 7953TIP3    H145274  -0.008   3.865   1.288 -0.7272  0.3510 -0.9341
 7953TIP3    H245275  -0.001   3.815   1.145  1.5911 -0.5212 -0.5530
 7954TIP3   OH245276   4.802   6.196  11.063  0.5780 -0.0972 -0.2798
 7954TIP3    H145277   4.776   6.176  11.153  1.7132  2.8587  0.8319
 7954TIP3    H245278   4.727   6.244  11.026  0.6987  0.0155 -0.3808
 7955TIP3   OH245279   1.060   6.073  11.559 -0.1934  0.3628 -0.0768
 7955TIP3    H145280   0.985   6.103  11.508 -0.7058 -1.0770 -0.2151
 7955TIP3    H245281   1.090   5.994  11.514  0.8146  0.3834  0.5261
 7956TIP3   OH245282   6.506   1.524  16.933  0.4750  0.0065  0.0586
 7956TIP3    H145283   6.504   1.617  16.957 -0.0630  0.2726 -0.9596
 7956TIP3    H245284   6.477   1.522  16.842 -1.3506 -1.3510  0.6112
 7957TIP3   OH245285   5.324   5.251  15.411  0.0306  0.4621 -0.1606
 7957TIP3    H145286   5.296   5.322  15.469 -1.9778 -1.1080  0.8708
 7957TIP3    H245287   5.410   5.225  15.445  0.1132  1.3867  0.3671
 7958TIP3   OH245288   3.084   3.979   4.702  0.3462 -0.7219 -0.0076
 7958TIP3    H145289   3.099   4.049   4.638  0.3325 -0.1943  0.5501
 7958TIP3    H245290   3.159   3.985   4.761  1.1106 -2.1400 -0.7787
 7959TIP3   OH245291   4.585   2.632   4.746 -0.1301 -0.2386  0.0588
 7959TIP3    H145292   4.490   2.621   4.753 -0.2738 -0.9161 -2.2803
 7959TIP3    H245293   4.598   2.727   4.747 -0.5444 -0.1189  2.6458
 7960TIP3   OH245294   0.955   2.165   0.034 -0.3588  0.6654  0.0284
 7960TIP3    H145295   0.915   2.190   0.117 -0.6971  1.0276 -0.2418
 7960TIP3    H245296   0.959   2.246  -0.016 -2.0121  0.1050 -1.0815
 7961TIP3   OH245297   3.030   4.753  13.955  0.1608 -0.3179  0.0769
 7961TIP3    H145298   3.031   4.792  14.042  0.5355 -0.5015  0.1550
 7961TIP3    H245299   3.081   4.673  13.964  0.7859  0.0122 -0.4727
 7962TIP3   OH245300   6.281   0.508  16.224 -0.4253 -0.0488 -0.0463
 7962TIP3    H145301   6.360   0.516  16.171 -0.0728  2.4966  0.7301
 7962TIP3    H245302   6.211   0.489  16.162  0.2848  0.9737 -1.1912
 7963TIP3   OH245303   1.050   4.908   3.748  0.1728 -0.1658 -0.9068
 7963TIP3    H145304   1.048   4.826   3.700  1.0525  0.2966 -1.7678
 7963TIP3    H245305   1.142   4.919   3.772 -0.1963 -0.2734  0.7197
 7964TIP3   OH245306   3.226   1.456  14.942 -0.4896  0.2496 -0.2892
 7964TIP3    H145307   3.300   1.426  14.995 -1.5131  1.4502  1.9846
 7964TIP3    H245308   3.239   1.551  14.935 -1.5884  0.4301 -0.1488
 7965TIP3   OH245309   4.339   0.414   5.231 -0.0110 -0.8201  0.2616
 7965TIP3    H145310   4.253   0.457   5.225 -0.5882 -1.9252  0.3679
 7965TIP3    H245311   4.360   0.417   5.324 -0.4649 -1.5461  0.3915
 7966TIP3   OH245312   2.845   1.513   1.018  0.2150 -0.0334  0.2580
 7966TIP3    H145313   2.885   1.491   1.102  2.0361 -0.4548 -0.6621
 7966TIP3    H245314   2.781   1.444   1.002 -1.7592  1.1962  2.2352
 7967TIP3   OH245315   3.611   2.379   1.558 -0.0781 -0.4313  0.1110
 7967TIP3    H145316   3.696   2.399   1.598 -0.4494 -0.5051  0.9523
 7967TIP3    H245317   3.634   2.339   1.474  0.6940  1.0545 -0.4206
 7968TIP3   OH245318   3.262   0.688  15.375  0.2734  0.1568  0.2363
 7968TIP3    H145319   3.247   0.781  15.393  3.9409  0.7545  1.0376
 7968TIP3    H245320   3.203   0.642  15.434 -0.5383  2.0019  0.9445
 7969TIP3   OH245321   1.093   4.466  17.239  0.1806 -0.2392  0.1987
 7969TIP3    H145322   1.135   4.473  17.153 -1.2267 -1.8190 -0.6855
 7969TIP3    H245323   1.136   4.392  17.281  0.9978  0.6519  0.9609
 7970TIP3   OH245324   6.078   2.665  11.117  0.0090 -0.1468  0.1557
 7970TIP3    H145325   6.160   2.624  11.088 -0.2696 -0.1539 -0.6420
 7970TIP3    H245326   6.046   2.712  11.040  0.2893  1.5572  1.0072
 7971TIP3   OH245327   1.754   6.113  11.358  0.0185  0.4123 -0.1174
 7971TIP3    H145328   1.697   6.171  11.408  1.0605  1.9250 -0.6045
 7971TIP3    H245329   1.832   6.104  11.413  0.0655 -0.1165 -0.2704
 7972TIP3   OH245330   4.029   0.859   5.863  0.0346 -0.7224  0.2138
 7972TIP3    H145331   3.964   0.911   5.816 -2.2951 -3.7568 -0.2171
 7972TIP3    H245332   4.099   0.846   5.799  0.2105  0.9648  0.0188
 7973TIP3   OH245333   5.335   3.440   1.958  0.2168 -0.6120  0.2904
 7973TIP3    H145334   5.358   3.356   1.918  2.8201  0.8575 -1.5939
 7973TIP3    H245335   5.289   3.488   1.890  1.6484  0.6552  0.1620
 7974TIP3   OH245336   6.425   3.942   3.315  0.3457  0.5418  0.0847
 7974TIP3    H145337   6.373   4.008   3.360 -1.4882  0.0270 -1.1575
 7974TIP3    H245338   6.398   3.859   3.355 -0.2056  0.2204 -0.9158
 7975TIP3   OH245339   4.754   4.247  12.349 -0.2237  0.2361 -0.1197
 7975TIP3    H145340   4.767   4.284  12.262  3.5392 -0.6972 -0.1443
 7975TIP3    H245341   4.739   4.154  12.333  1.3512 -0.1055  0.1354
 7976TIP3   OH245342   2.750   3.093   1.588  0.2248  0.3907 -0.0469
 7976TIP3    H145343   2.676   3.067   1.644 -0.6928 -0.0196 -1.4128
 7976TIP3    H245344   2.803   3.014   1.581  0.2363  0.3871  0.0676
 7977TIP3   OH245345   6.126   0.021   3.415  0.2490  0.2610 -0.4014
 7977TIP3    H145346   6.140   0.104   3.370 -0.8589  0.9890  0.5200
 7977TIP3    H245347   6.103   0.047   3.505 -0.4214 -1.0188 -0.1854
 7978TIP3   OH245348   4.224   0.071  13.177  0.3478  0.4065 -0.2583
 7978TIP3    H145349   4.218  -0.024  13.183 -1.1606  0.3790 -1.4287
 7978TIP3    H245350   4.313   0.088  13.146  1.3634 -0.4547  2.0209
 7979TIP3   OH245351   4.525   0.462   0.564 -0.0570 -0.6590  0.3057
 7979TIP3    H145352   4.532   0.475   0.659 -1.2320  3.2173  0.0447
 7979TIP3    H245353   4.613   0.435   0.537  0.6564 -0.5403  2.3481
 7980TIP3   OH245354   3.709   4.457  13.161  0.5851 -0.6173 -0.5172
 7980TIP3    H145355   3.730   4.538  13.208 -0.0302 -0.1924 -0.9435
 7980TIP3    H245356   3.626   4.429  13.200  1.2118 -1.5127  0.2064
 7981TIP3   OH245357   4.623   6.061   2.569 -0.5415  0.7208 -0.2071
 7981TIP3    H145358   4.602   6.151   2.595  3.3997  2.1044 -1.0952
 7981TIP3    H245359   4.673   6.026   2.642  1.7091  0.9523 -1.5252
 7982TIP3   OH245360   3.479   4.471  11.273 -0.3551  0.3887 -0.2696
 7982TIP3    H145361   3.522   4.535  11.217 -1.3599 -0.5115 -2.1578
 7982TIP3    H245362   3.519   4.387  11.249  0.5455  0.1835  1.7627
 7983TIP3   OH245363   1.579   3.579  14.982 -0.8014  0.1934 -0.5067
 7983TIP3    H145364   1.565   3.673  14.990  3.0422  0.7897  1.2667
 7983TIP3    H245365   1.595   3.549  15.071 -0.2423 -1.8176 -1.2234
 7984TIP3   OH245366   4.509   3.423   5.444 -0.1520 -0.3960 -0.3330
 7984TIP3    H145367   4.587   3.478   5.454 -0.4038  0.0041 -0.5419
 7984TIP3    H245368   4.480   3.407   5.534 -0.9416  1.0715 -0.2899
 7985TIP3   OH245369   1.222   4.144  11.048  0.5301  0.5437 -0.2050
 7985TIP3    H145370   1.316   4.125  11.041  0.5260  0.1903  0.5536
 7985TIP3    H245371   1.209   4.223  10.996  1.5311  1.4598  0.8946
 7986TIP3   OH245372   2.213   6.387  13.998  0.9050 -0.3141 -0.1659
 7986TIP3    H145373   2.137   6.354  14.047  1.1487  0.5383  0.8147
 7986TIP3    H245374   2.221   6.327  13.924 -0.0008 -1.1258  0.3660
 7987TIP3   OH245375   3.510   1.800   0.089 -0.3079 -0.7994 -0.3027
 7987TIP3    H145376   3.565   1.863   0.041 -0.3546 -1.1826 -0.8785
 7987TIP3    H245377   3.422   1.813   0.052 -0.6755 -0.0213  0.7812
 7988TIP3   OH245378   5.500   2.149   1.832 -0.7135 -1.0917 -0.8436
 7988TIP3    H145379   5.522   2.241   1.844  0.6663 -1.3837 -0.9650
 7988TIP3    H245380   5.410   2.141   1.863 -0.0557 -0.1746  1.5245
 7989TIP3   OH245381   2.731   6.232  13.018  0.2037  0.2481  0.2055
 7989TIP3    H145382   2.703   6.142  13.035  0.6985  0.0258 -0.1444
 7989TIP3    H245383   2.808   6.244  13.074  0.6443  0.1709 -0.3725
 7990TIP3   OH245384   1.087   3.857  15.167  0.0089 -0.1095 -0.8141
 7990TIP3    H145385   1.061   3.878  15.257  1.3430  0.6983 -0.5920
 7990TIP3    H245386   1.019   3.898  15.113  0.4172  1.4031 -0.2306
 7991TIP3   OH245387   1.530   0.918   1.741  0.1795  0.4901 -0.5086
 7991TIP3    H145388   1.590   0.959   1.802  0.2981 -2.0391  1.2354
 7991TIP3    H245389   1.445   0.921   1.785 -0.3082  1.0028 -1.4430
 7992TIP3   OH245390   4.891   3.065   2.149 -0.2704 -0.0380 -0.6153
 7992TIP3    H145391   4.835   2.987   2.155 -0.7726  0.3353 -0.3744
 7992TIP3    H245392   4.831   3.138   2.160  0.1705  0.3961 -1.0561
 7993TIP3   OH245393   6.620   0.305  16.000  0.1866 -0.3938 -0.2287
 7993TIP3    H145394   6.585   0.219  16.021 -0.2644 -0.3630 -0.8057
 7993TIP3    H245395   6.700   0.313  16.051  0.6411 -1.4605 -0.7532
 7994TIP3   OH245396   6.222   4.054   1.708 -0.3551 -0.5292 -0.3447
 7994TIP3    H145397   6.180   4.055   1.795 -1.5416  0.5172 -0.8837
 7994TIP3    H245398   6.150   4.034   1.648 -0.2948  1.9862 -1.3704
 7995TIP3   OH245399   5.460   4.525   3.777 -0.3779  0.2186 -0.0482
 7995TIP3    H145400   5.459   4.616   3.747 -2.3644  0.2743  0.0708
 7995TIP3    H245401   5.532   4.521   3.840  0.9655  1.2084 -1.4551
 7996TIP3   OH245402   1.498   3.464   2.829  0.4940 -0.1926 -0.3655
 7996TIP3    H145403   1.491   3.553   2.794  1.6420 -0.0271 -0.1986
 7996TIP3    H245404   1.436   3.413   2.776  1.6586  0.1866 -2.1903
 7997TIP3   OH245405   0.344   4.203  12.051 -0.2302 -0.1733 -0.0352
 7997TIP3    H145406   0.332   4.154  12.132  0.0868 -0.7007 -0.3012
 7997TIP3    H245407   0.269   4.262  12.047  0.3708  0.7225  1.2450
 7998TIP3   OH245408   0.830   5.504  11.527 -0.3610  0.2394  0.3155
 7998TIP3    H145409   0.814   5.572  11.592  1.1315  1.4223 -0.4768
 7998TIP3    H245410   0.802   5.543  11.444 -0.4006 -0.4908 -0.0233
 7999TIP3   OH245411   4.187   5.363  13.971 -0.1610 -0.0933 -0.0854
 7999TIP3    H145412   4.201   5.309  14.049  0.6774  0.8735  0.4533
 7999TIP3    H245413   4.100   5.338  13.940 -0.5904 -0.3505  1.2798
 8000TIP3   OH245414   0.562   3.612   5.090  0.3120 -0.0652  0.0799
 8000TIP3    H145415   0.471   3.639   5.076  0.9584  2.1966 -0.2133
 8000TIP3    H245416   0.612   3.662   5.025  1.6251 -2.6025 -0.9777
 8001TIP3   OH245417   2.604   3.373   1.509 -0.0091  0.2431 -0.4295
 8001TIP3    H145418   2.658   3.305   1.549  1.6773  0.3254 -2.3840
 8001TIP3    H245419   2.515   3.340   1.516  0.6716 -1.7542 -0.5089
 8002TIP3   OH245420   2.528   0.279   0.553 -0.1075  0.3521  0.3137
 8002TIP3    H145421   2.572   0.227   0.486  1.2475  1.7108  0.1087
 8002TIP3    H245422   2.464   0.219   0.591 -1.0090 -0.4704 -2.2354
 8003TIP3   OH245423   0.559   3.191   0.476  0.1421 -0.6095  0.1825
 8003TIP3    H145424   0.518   3.196   0.390  0.6634  0.9034 -0.0049
 8003TIP3    H245425   0.489   3.208   0.538 -0.7246 -3.8017  0.2666
 8004TIP3   OH245426   3.225   5.999   0.195 -0.4575 -0.8057 -0.5503
 8004TIP3    H145427   3.245   6.050   0.274 -2.4946 -1.7845  0.6882
 8004TIP3    H245428   3.158   6.050   0.150 -0.5471 -1.0873 -0.7392
 8005TIP3   OH245429   2.291   4.690   1.121  0.0330  0.2556 -0.1130
 8005TIP3    H145430   2.291   4.709   1.027  1.0900  0.4484 -0.0843
 8005TIP3    H245431   2.382   4.697   1.147  0.0873 -1.9038  0.5080
 8006TIP3   OH245432   6.273   3.687   1.068  0.1102 -0.1361 -0.3647
 8006TIP3    H145433   6.192   3.685   1.017 -0.4989 -0.8928  0.5930
 8006TIP3    H245434   6.251   3.643   1.150  2.0395 -2.2812 -0.8864
 8007TIP3   OH245435   2.353   3.001  16.619 -0.0207  0.4734  0.4799
 8007TIP3    H145436   2.366   3.080  16.671 -0.1232  0.2987  0.7705
 8007TIP3    H245437   2.307   3.031  16.541 -0.8096  0.5753  0.9749
 8008TIP3   OH245438   6.260   3.974  13.374 -0.3727  0.4375  0.0333
 8008TIP3    H145439   6.255   3.878  13.373 -1.6031  0.4497  1.4217
 8008TIP3    H245440   6.235   3.998  13.463 -1.5829  2.1249 -0.7195
 8009TIP3   OH245441   2.210   1.383   0.120 -0.0378  0.1926 -0.1326
 8009TIP3    H145442   2.212   1.402   0.214 -3.0406 -0.7859  0.2542
 8009TIP3    H245443   2.183   1.291   0.115 -1.0837  0.5480 -1.9210
 8010TIP3   OH245444   2.461   5.246   2.580  0.6394  0.3590  0.1206
 8010TIP3    H145445   2.511   5.211   2.654  1.4731 -0.8859 -0.9987
 8010TIP3    H245446   2.525   5.256   2.510 -0.2833  0.8128 -0.6731
 8011TIP3   OH245447   2.767   1.233  15.228 -0.1812  0.4702 -0.6534
 8011TIP3    H145448   2.704   1.197  15.165 -0.1351  1.5527 -1.3469
 8011TIP3    H245449   2.840   1.172  15.226  0.0296  0.7433 -2.0338
 8012TIP3   OH245450   0.860   1.842   2.379  0.6658 -0.1169  1.0015
 8012TIP3    H145451   0.782   1.860   2.326 -0.1837 -0.9138  1.9175
 8012TIP3    H245452   0.868   1.918   2.437  0.9766  0.2724  0.4570
 8013TIP3   OH245453   4.821   1.813   5.228  0.0567 -0.5303  0.1058
 8013TIP3    H145454   4.813   1.724   5.192 -0.9881  0.0120 -1.0991
 8013TIP3    H245455   4.898   1.849   5.184  1.0258 -1.1128  1.2718
 8014TIP3   OH245456   0.521   5.157   3.001  0.0972  0.2516 -0.2705
 8014TIP3    H145457   0.513   5.246   2.966  2.2612  0.6804  0.1367
 8014TIP3    H245458   0.559   5.107   2.929  2.1238  0.5285  0.5254
 8015TIP3   OH245459   5.494   6.381   1.105 -0.0938  0.2259  0.2691
 8015TIP3    H145460   5.468   6.398   1.195 -0.4407  1.5322 -0.0438
 8015TIP3    H245461   5.589   6.392   1.105  0.0510 -0.9567  0.6986
 8016TIP3   OH245462   2.349   4.397  10.802 -0.1508  0.1511 -0.6620
 8016TIP3    H145463   2.409   4.464  10.835 -0.3557  0.5462 -1.0801
 8016TIP3    H245464   2.290   4.379  10.876 -0.4066  0.8000 -0.7015
 8017TIP3   OH245465   5.162   3.300   6.703 -0.1470 -0.3280  0.2273
 8017TIP3    H145466   5.093   3.366   6.694 -1.0589 -1.5513 -3.9717
 8017TIP3    H245467   5.243   3.348   6.686 -0.2781  0.3975  1.4617
 8018TIP3   OH245468   2.839   4.379  12.464  0.4953 -0.4042  0.0132
 8018TIP3    H145469   2.854   4.286  12.450  0.9468 -0.1537 -1.4141
 8018TIP3    H245470   2.745   4.391  12.447  0.4443 -0.5893  0.1630
 8019TIP3   OH245471   4.780   3.636   5.735 -0.0306  0.6858 -0.1681
 8019TIP3    H145472   4.859   3.596   5.699 -0.7067  0.1184 -1.0478
 8019TIP3    H245473   4.722   3.647   5.660 -1.5006 -0.6059  0.7186
 8020TIP3   OH245474   1.484   5.100   1.181 -0.0158 -0.0980 -0.0805
 8020TIP3    H145475   1.527   5.088   1.266 -1.0046  0.9785  0.6037
 8020TIP3    H245476   1.529   5.039   1.123  1.0485 -0.4748  1.0836
 8021TIP3   OH245477   0.105   5.798   4.134  0.5642 -0.2546 -0.0304
 8021TIP3    H145478   0.129   5.741   4.061  1.2372 -1.3785  1.0301
 8021TIP3    H245479   0.151   5.880   4.115  1.7469 -0.9385 -0.2743
 8022TIP3   OH245480   6.118   4.701   2.409  0.2821 -0.3115 -0.2324
 8022TIP3    H145481   6.184   4.643   2.448  0.5483  0.1113 -0.0523
 8022TIP3    H245482   6.168   4.760   2.353  0.2796  1.1167  1.2050
 8023TIP3   OH245483   5.574   6.097   3.699 -0.2766 -0.1891 -0.1093
 8023TIP3    H145484   5.592   6.003   3.693  1.7411  0.1958 -1.1882
 8023TIP3    H245485   5.611   6.124   3.783 -1.5183 -0.4580  0.5425
 8024TIP3   OH245486   5.952   5.972   4.036 -0.2555 -0.4330 -0.6444
 8024TIP3    H145487   5.895   5.983   4.112  0.7408 -0.6241  0.1546
 8024TIP3    H245488   5.977   5.880   4.036  0.5033 -0.2405 -0.6388
 8025TIP3   OH245489   0.213   0.134  16.373  0.0915  0.1521  0.2751
 8025TIP3    H145490   0.137   0.096  16.417 -1.2745 -0.1266 -2.1629
 8025TIP3    H245491   0.275   0.062  16.367 -0.2594 -0.1784  0.5045
 8026TIP3   OH245492   0.867   6.617   3.600  0.4523  0.1566  0.1119
 8026TIP3    H145493   0.942   6.676   3.601  1.0448 -0.5817  1.7680
 8026TIP3    H245494   0.813   6.645   3.674 -1.0958  0.8548 -1.2010
 8027TIP3   OH245495   6.031   2.146   1.575 -0.3728 -0.2595  0.3644
 8027TIP3    H145496   6.113   2.120   1.617 -0.4593  1.5886  1.7979
 8027TIP3    H245497   5.999   2.066   1.533  1.0232 -1.5732  1.6825
 8028TIP3   OH245498   6.548   3.576  16.020 -0.1304  0.4784 -0.5589
 8028TIP3    H145499   6.611   3.550  15.952 -1.6772 -1.1147 -1.4795
 8028TIP3    H245500   6.518   3.662  15.993 -0.0516  0.2483 -1.4167
 8029TIP3   OH245501   2.624   1.900   3.416  0.2321  0.2011 -0.0697
 8029TIP3    H145502   2.656   1.987   3.441  0.5090  0.8518 -2.3883
 8029TIP3    H245503   2.682   1.873   3.345  0.3180 -2.0402  0.7788
 8030TIP3   OH245504   6.401   3.843  12.442 -0.4390 -0.2881  0.0982
 8030TIP3    H145505   6.435   3.756  12.461 -1.2157 -0.7411 -0.5331
 8030TIP3    H245506   6.418   3.855  12.348 -0.4704  0.1822  0.1496
 8031TIP3   OH245507   5.406   1.744  17.120  0.9164  0.7061  0.3409
 8031TIP3    H145508   5.448   1.826  17.094  1.5649 -0.3424 -2.2972
 8031TIP3    H245509   5.441   1.679  17.058 -1.4635 -1.0613  0.7096
 8032TIP3   OH245510   2.520   4.821   5.639 -0.1177 -0.6471 -0.7195
 8032TIP3    H145511   2.503   4.915   5.646 -0.7258 -0.8263  0.4554
 8032TIP3    H245512   2.434   4.782   5.622 -0.4435 -1.2415  1.8154
 8033TIP3   OH245513   4.287   4.626   0.724 -0.1843 -0.2992  0.0599
 8033TIP3    H145514   4.216   4.677   0.762 -0.8401 -0.0142 -1.4470
 8033TIP3    H245515   4.278   4.539   0.763 -0.7393  0.0148  0.6331
 8034TIP3   OH245516   1.475   0.419  16.593  0.3999  0.9830  0.2240
 8034TIP3    H145517   1.386   0.398  16.566  1.0038 -0.5978 -0.6619
 8034TIP3    H245518   1.515   0.460  16.516  1.3747 -1.2671 -0.5360
 8035TIP3   OH245519   1.813   3.921   4.144 -0.1751 -0.3909 -0.2355
 8035TIP3    H145520   1.747   3.938   4.077 -1.7258 -0.9863  1.0618
 8035TIP3    H245521   1.769   3.944   4.227  1.6293  0.2312  0.5965
 8036TIP3   OH245522   3.575   5.825  16.166  0.3955  0.0855 -0.3253
 8036TIP3    H145523   3.621   5.750  16.128 -0.0147 -0.2097 -0.2537
 8036TIP3    H245524   3.641   5.869  16.219  0.8235  0.1758 -0.9245
 8037TIP3   OH245525   4.985   3.921  12.742 -0.0672  0.5264  0.1165
 8037TIP3    H145526   4.903   3.872  12.736  0.2595  0.0051 -0.0956
 8037TIP3    H245527   5.035   3.894  12.665  1.2461 -0.8792  1.3961
 8038TIP3   OH245528   0.354   0.591  12.234  0.0692 -0.2404  0.3077
 8038TIP3    H145529   0.309   0.521  12.282 -0.0092  0.0050  0.5954
 8038TIP3    H245530   0.441   0.555  12.216 -0.1808 -0.6505 -0.1047
 8039TIP3   OH245531   4.238   6.094  13.167 -0.5256 -0.3413 -0.2348
 8039TIP3    H145532   4.239   6.005  13.202  1.1546  0.0074  0.7480
 8039TIP3    H245533   4.226   6.084  13.073  0.3593 -1.6615 -0.2220
 8040TIP3   OH245534   3.146   0.465  13.479 -0.5391 -0.0402  0.1051
 8040TIP3    H145535   3.093   0.451  13.558 -1.0869 -1.9124 -0.5216
 8040TIP3    H245536   3.218   0.403  13.489 -0.6633 -0.3538 -0.8826
 8041TIP3   OH245537   2.135   1.263   0.429 -0.2160  0.2423 -0.1452
 8041TIP3    H145538   2.148   1.169   0.440 -1.4038  0.2655  1.8264
 8041TIP3    H245539   2.042   1.271   0.406  0.0412  0.9185 -1.0145
 8042TIP3   OH245540   5.951   0.658  16.467 -0.2837 -0.3475  0.1644
 8042TIP3    H145541   5.920   0.742  16.432  0.4695  0.8025  2.0850
 8042TIP3    H245542   5.970   0.605  16.390 -2.3406  0.6245 -1.1049
 8043TIP3   OH245543   5.032   2.408   1.343 -0.0549 -1.3217 -0.1303
 8043TIP3    H145544   4.948   2.426   1.303  0.9070 -0.0088 -1.7000
 8043TIP3    H245545   5.016   2.336   1.404 -2.9575  0.9286  2.0459
 8044TIP3   OH245546   2.596   4.264  16.099 -0.5562  0.6768 -0.2708
 8044TIP3    H145547   2.627   4.174  16.114  0.4989  0.8739 -1.1768
 8044TIP3    H245548   2.518   4.271  16.154 -1.9100 -1.4791 -1.7327
 8045TIP3   OH245549   1.657   5.719  15.848  0.3766  0.2860  0.5796
 8045TIP3    H145550   1.671   5.761  15.763 -0.7243  1.3831  0.9057
 8045TIP3    H245551   1.651   5.626  15.829 -2.0811  0.6632 -0.9015
 8046TIP3   OH245552   0.754   1.670  14.163 -0.0447  0.0439 -0.4145
 8046TIP3    H145553   0.849   1.664  14.149 -0.0971  1.2104 -1.3924
 8046TIP3    H245554   0.742   1.644  14.254  1.5326  2.2236  0.5027
 8047TIP3   OH245555   2.499   0.973   5.453 -0.5962  0.4165  0.2912
 8047TIP3    H145556   2.544   1.018   5.525  0.2114 -0.8338  0.6040
 8047TIP3    H245557   2.418   0.940   5.493  0.2354 -0.9899  0.8894
 8048TIP3   OH245558   3.190   3.501   3.665  0.4588  0.0228 -0.6689
 8048TIP3    H145559   3.103   3.476   3.634  0.8009 -1.0301 -0.8150
 8048TIP3    H245560   3.250   3.452   3.608  1.2265  2.5929 -2.2400
 8049TIP3   OH245561   2.843   0.652  15.514 -0.6914  0.0124 -0.3833
 8049TIP3    H145562   2.790   0.608  15.448 -1.4026 -0.0272  0.1997
 8049TIP3    H245563   2.786   0.658  15.591  0.4699 -0.9015  0.5925
 8050TIP3   OH245564   6.546   2.305   1.574  0.2188 -0.2374  1.0129
 8050TIP3    H145565   6.601   2.320   1.651 -0.5072  4.0134  0.9744
 8050TIP3    H245566   6.462   2.346   1.597 -1.7666 -3.2385 -0.3050
 8051TIP3   OH245567   0.460   0.845  11.254  0.6098 -0.2450 -0.1675
 8051TIP3    H145568   0.423   0.762  11.223 -1.4982 -0.1869  1.8661
 8051TIP3    H245569   0.529   0.818  11.315 -0.5444 -0.6185  1.0442
 8052TIP3   OH245570   6.196   1.076  11.660 -0.1391 -0.3090  0.3244
 8052TIP3    H145571   6.183   1.016  11.734 -0.2875 -1.6746 -0.7687
 8052TIP3    H245572   6.248   1.026  11.597 -0.7281  0.5011 -0.8496
 8053TIP3   OH245573   0.807   4.405   2.141 -0.6337 -0.0657  0.0016
 8053TIP3    H145574   0.712   4.398   2.148 -0.9442  0.4840 -2.6880
 8053TIP3    H245575   0.821   4.479   2.081  1.5605  0.8347  1.4772
 8054TIP3   OH245576   1.024   5.771  12.152 -0.1196 -0.0513  0.3884
 8054TIP3    H145577   0.969   5.849  12.158  0.6853  0.5694 -0.0944
 8054TIP3    H245578   1.017   5.744  12.060 -0.5143 -0.6438  0.5877
 8055TIP3   OH245579   0.356   5.898   3.703 -0.6197  0.5380  0.0681
 8055TIP3    H145580   0.445   5.932   3.712 -0.6792  1.3150 -1.7639
 8055TIP3    H245581   0.315   5.917   3.787  0.3346  2.0955  0.2278
 8056TIP3   OH245582   5.361   1.186   5.133  0.0650  0.1527  0.0509
 8056TIP3    H145583   5.314   1.124   5.190  0.1552  0.7713  0.8091
 8056TIP3    H245584   5.438   1.137   5.104 -0.1206 -0.2636  0.2427
 8057TIP3   OH245585   0.387   0.039   2.574 -0.0853 -0.0876  0.6087
 8057TIP3    H145586   0.476   0.020   2.604  1.2420  2.1494 -1.5138
 8057TIP3    H245587   0.347   0.087   2.646  0.4959 -0.8640  1.4798
 8058TIP3   OH245588   6.493   2.912  15.946  0.1210 -0.7163 -0.4371
 8058TIP3    H145589   6.546   2.918  16.026 -0.3956 -0.1091 -0.1364
 8058TIP3    H245590   6.453   2.998  15.938 -1.1796 -1.3061 -0.4218
 8059TIP3   OH245591   0.125   6.377  15.837  0.0291 -0.6069  0.5820
 8059TIP3    H145592   0.191   6.429  15.881  0.0827  0.0920 -0.2802
 8059TIP3    H245593   0.064   6.351  15.906  1.5309 -1.8485  1.5149
 8060TIP3   OH245594   5.354   1.395  11.559  0.0484 -0.3747 -0.2627
 8060TIP3    H145595   5.441   1.361  11.579  1.5229  1.4759 -2.8770
 8060TIP3    H245596   5.343   1.378  11.465 -2.2004 -0.0487 -0.1225
 8061TIP3   OH245597   6.294   6.670  12.033 -0.2917  0.0756  0.2581
 8061TIP3    H145598   6.365   6.678  12.097 -1.1032 -0.2615  1.2127
 8061TIP3    H245599   6.279   6.759  12.003  1.5545 -0.0077 -1.1101
 8062TIP3   OH245600   3.232   1.928   6.162  0.8238 -0.2090 -0.5712
 8062TIP3    H145601   3.286   2.005   6.143  1.4021 -0.8946 -1.8236
 8062TIP3    H245602   3.205   1.940   6.253  2.8302  0.3347  0.0147
 8063TIP3   OH245603   4.990   0.142  15.938  0.0148 -0.1966  0.0049
 8063TIP3    H145604   5.043   0.069  15.970 -0.1895 -0.9431 -1.2827
 8063TIP3    H245605   5.054   0.209  15.913  0.2661 -0.4184  0.0510
 8064TIP3   OH245606   4.048   5.817   4.375 -0.0886 -0.5788  0.0905
 8064TIP3    H145607   3.957   5.832   4.348 -0.6543 -0.5308  1.8742
 8064TIP3    H245608   4.087   5.905   4.376  0.2185 -0.6806 -1.4056
 8065TIP3   OH245609   3.888   0.806   3.637 -0.3767 -0.4105 -0.5250
 8065TIP3    H145610   3.916   0.898   3.632 -1.7918 -0.0151 -2.1991
 8065TIP3    H245611   3.800   0.806   3.598 -1.7878 -1.9624  2.3762
 8066TIP3   OH245612   6.499   0.907  17.016  0.4591  0.2887  0.3378
 8066TIP3    H145613   6.450   0.968  16.961  0.3629 -1.2858 -1.3887
 8066TIP3    H245614   6.444   0.829  17.021  2.3353 -1.1987 -0.9341
 8067TIP3   OH245615   3.088   1.408   0.207  0.2985  0.0140 -0.4178
 8067TIP3    H145616   3.059   1.424   0.297 -1.5051 -1.3612 -0.6955
 8067TIP3    H245617   3.056   1.483   0.158  1.9524  1.1581  0.1566
 8068TIP3   OH245618   2.394   1.531  15.958 -0.4726 -0.2235  0.1708
 8068TIP3    H145619   2.300   1.543  15.943 -1.3310 -0.9355  3.9933
 8068TIP3    H245620   2.413   1.582  16.036  1.9761 -1.3389  0.3985
 8069TIP3   OH245621   6.742   6.392  14.930  0.1802 -0.0882  0.1649
 8069TIP3    H145622   6.716   6.325  14.993  0.1196  0.4018  0.6744
 8069TIP3    H245623   6.812   6.440  14.975 -0.2661  0.6386  0.0970
 8070TIP3   OH245624   2.591   1.664   2.824 -0.2128  0.1632 -0.3854
 8070TIP3    H145625   2.528   1.711   2.769  0.0102 -0.9993 -1.6737
 8070TIP3    H245626   2.604   1.722   2.900 -0.0842  2.0975 -1.8119
 8071TIP3   OH245627   2.577   5.184  16.427  0.2791 -0.3084 -0.9038
 8071TIP3    H145628   2.538   5.118  16.369  2.3372 -0.4658 -2.2324
 8071TIP3    H245629   2.566   5.267  16.380 -0.6813  0.0479 -0.0853
 8072TIP3   OH245630   5.174   3.064   0.383 -0.4954  0.3482 -0.1874
 8072TIP3    H145631   5.203   3.102   0.466  0.7815 -0.5023 -0.2132
 8072TIP3    H245632   5.161   3.139   0.325  0.7740  0.8444  0.1354
 8073TIP3   OH245633   5.477   0.228   1.188 -0.1221 -0.0990 -0.0088
 8073TIP3    H145634   5.456   0.228   1.281 -0.9173  2.2475 -0.1070
 8073TIP3    H245635   5.393   0.210   1.144 -0.1925  0.8005 -0.2713
 8074TIP3   OH245636   5.554   2.568   4.791  0.4522 -0.0012 -0.4894
 8074TIP3    H145637   5.613   2.603   4.724 -0.0135  1.7323 -0.0441
 8074TIP3    H245638   5.466   2.583   4.756  0.2351 -0.6522 -0.2334
 8075TIP3   OH245639   1.627   0.295  14.576 -0.2520 -0.4322  0.1438
 8075TIP3    H145640   1.713   0.334  14.558 -0.3519  0.4604  1.4267
 8075TIP3    H245641   1.646   0.221  14.633 -0.2717 -0.7307 -0.2365
 8076TIP3   OH245642   5.641   6.102   5.948  0.3022 -0.2402 -0.5198
 8076TIP3    H145643   5.559   6.082   5.903  0.2474 -1.5917  0.1330
 8076TIP3    H245644   5.619   6.094   6.041  0.6516  1.5461 -0.2410
 8077TIP3   OH245645   3.300   2.050   5.139  0.5079 -0.6646  0.0922
 8077TIP3    H145646   3.315   2.139   5.171  0.3675  0.0911 -1.8108
 8077TIP3    H245647   3.218   2.024   5.181  1.5472 -0.7061  2.2199
 8078TIP3   OH245648   6.447   1.677  12.128  0.2830  0.0804 -0.0776
 8078TIP3    H145649   6.413   1.765  12.110 -0.1830  0.3283  1.7740
 8078TIP3    H245650   6.384   1.640  12.190  0.7397 -1.3932 -0.4492
 8079TIP3   OH245651   4.590   6.284   2.711  0.1980  0.3974  0.1609
 8079TIP3    H145652   4.535   6.360   2.728 -1.4545 -0.8559  0.7423
 8079TIP3    H245653   4.671   6.302   2.758  1.0423  3.0273 -2.0318
 8080TIP3   OH245654   4.104   3.993   5.727  0.2855  0.2419  0.8316
 8080TIP3    H145655   4.029   4.053   5.722  2.1154  2.7782  1.6999
 8080TIP3    H245656   4.122   3.985   5.820  1.6043  0.4002  0.6079
 8081TIP3   OH245657   4.715   2.548   6.350  0.4535 -0.0406  0.6899
 8081TIP3    H145658   4.647   2.599   6.307 -0.5618 -2.1335 -0.3687
 8081TIP3    H245659   4.706   2.567   6.443 -2.0054 -0.6654  0.6480
 8082TIP3   OH245660   5.206   2.672   5.633 -0.2057 -0.0746 -0.1110
 8082TIP3    H145661   5.158   2.663   5.550 -0.7873 -1.4082  0.3401
 8082TIP3    H245662   5.265   2.597   5.635  0.3873  0.3955  0.3190
 8083TIP3   OH245663   2.239   6.049  13.024  0.1896  0.4403 -0.1142
 8083TIP3    H145664   2.270   5.963  13.051  0.5971  0.3981 -0.6856
 8083TIP3    H245665   2.144   6.041  13.023  0.1955  0.2377  0.5996
 8084TIP3   OH245666   2.081   4.189   2.916  0.1417 -0.2869  0.5405
 8084TIP3    H145667   2.072   4.138   2.835  0.5362  0.5889 -0.0800
 8084TIP3    H245668   2.083   4.124   2.986 -0.3668 -1.0559 -0.1413
 8085TIP3   OH245669   2.637   1.420  11.681  0.6743  0.2317 -0.4261
 8085TIP3    H145670   2.732   1.414  11.691  0.6556 -1.0923 -0.8523
 8085TIP3    H245671   2.619   1.383  11.595 -0.2153  0.6819 -0.4497
 8086TIP3   OH245672   2.442   3.443   1.815  0.0937  0.9128 -0.1299
 8086TIP3    H145673   2.419   3.460   1.906  1.5200 -0.2611  0.5033
 8086TIP3    H245674   2.445   3.529   1.774 -0.7495  1.4414  0.8822
 8087TIP3   OH245675   3.989   2.405   1.919 -0.3044 -0.4654  0.0381
 8087TIP3    H145676   4.026   2.472   1.862 -3.3887  0.6335 -0.8635
 8087TIP3    H245677   4.005   2.323   1.872 -0.5273  0.1529 -1.1693
 8088TIP3   OH245678   2.398   2.209   1.850 -0.0284 -0.7791  0.0946
 8088TIP3    H145679   2.431   2.123   1.876  0.8626 -0.0433  1.5222
 8088TIP3    H245680   2.396   2.260   1.931 -2.6423 -0.0844 -0.2848
 8089TIP3   OH245681   5.160   4.762  13.452 -0.4236  0.2283  0.0918
 8089TIP3    H145682   5.232   4.802  13.501 -0.2213 -0.7856  0.6568
 8089TIP3    H245683   5.136   4.827  13.387  0.5328  0.8718  0.3607
 8090TIP3   OH245684   4.918   0.309   6.118 -0.4516 -0.4437 -0.0239
 8090TIP3    H145685   4.832   0.351   6.115  0.5633  1.7059 -1.0280
 8090TIP3    H245686   4.902   0.226   6.163 -2.4063  1.4510  3.1586
 8091TIP3   OH245687   2.779   6.305   0.744  0.2940  0.2210  0.1139
 8091TIP3    H145688   2.692   6.336   0.719 -0.2975  0.1466  1.9703
 8091TIP3    H245689   2.765   6.218   0.780  1.3295 -0.3287 -0.7580
 8092TIP3   OH245690   4.266   5.431   2.730  0.5436  0.0349 -0.1171
 8092TIP3    H145691   4.345   5.387   2.761 -0.8005 -0.9941  2.1545
 8092TIP3    H245692   4.194   5.373   2.756 -1.1028  2.0495  0.1148
 8093TIP3   OH245693   5.527   6.243  14.547 -0.4580 -0.0159 -0.2545
 8093TIP3    H145694   5.471   6.219  14.473  0.1409  0.4714 -0.8809
 8093TIP3    H245695   5.610   6.269  14.506  0.1402 -0.4807  0.6376
 8094TIP3   OH245696   1.309   2.498   0.956  0.5454  0.5702  0.2694
 8094TIP3    H145697   1.393   2.514   0.913  1.0506 -0.6108  0.7554
 8094TIP3    H245698   1.302   2.566   1.022 -0.0876  2.2144 -1.4143
 8095TIP3   OH245699   1.177   3.237  12.688  0.0579  0.1107 -0.4989
 8095TIP3    H145700   1.087   3.266  12.700 -0.2048 -0.6445 -0.6047
 8095TIP3    H245701   1.170   3.157  12.635  0.8083  0.2272 -0.7847
 8096TIP3   OH245702   6.340   0.002  15.170  0.5857  0.0282 -0.7752
 8096TIP3    H145703   6.272  -0.045  15.219  1.1290 -0.7541 -0.7472
 8096TIP3    H245704   6.383   0.056  15.236  0.7754 -0.3973 -0.5419
 8097TIP3   OH245705   5.171   2.062  14.238  0.1817 -0.2342  0.2286
 8097TIP3    H145706   5.198   1.992  14.179 -0.7790 -0.5418  0.1430
 8097TIP3    H245707   5.118   2.019  14.305 -0.4836  0.4038  0.1308
 8098TIP3   OH245708   4.787   3.765  14.093  0.4463 -0.6022  0.3499
 8098TIP3    H145709   4.845   3.725  14.028  0.8306  1.6989 -0.8435
 8098TIP3    H245710   4.842   3.778  14.170  1.5397  1.3729 -0.7037
 8099TIP3   OH245711   5.034   2.434   4.874  0.1792  0.2573  0.2845
 8099TIP3    H145712   5.058   2.418   4.965 -1.6588  0.0148  0.7636
 8099TIP3    H245713   4.972   2.508   4.878  0.1477  0.3006 -0.7756
 8100TIP3   OH245714   3.055   5.453   0.488  0.0291  0.4579  0.4345
 8100TIP3    H145715   2.989   5.466   0.419  0.4253  1.8926  0.2818
 8100TIP3    H245716   3.066   5.359   0.493 -1.6762  0.1949  0.1155
 8101TIP3   OH245717   0.619   6.557  15.257  0.4128  0.0959  0.3822
 8101TIP3    H145718   0.677   6.623  15.220  1.2507 -0.1830  1.1665
 8101TIP3    H245719   0.673   6.479  15.265 -0.4250 -0.5505 -0.0495
 8102TIP3   OH245720   4.776   5.639   4.737 -0.1450 -0.6621  0.4099
 8102TIP3    H145721   4.846   5.589   4.780 -0.2910  0.2748  1.8379
 8102TIP3    H245722   4.706   5.576   4.722  0.4057 -1.2784  0.4114
 8103TIP3   OH245723   5.177   4.692  12.423 -0.4189 -0.3408  1.1115
 8103TIP3    H145724   5.144   4.722  12.508  1.4354  0.6337  1.5317
 8103TIP3    H245725   5.263   4.732  12.415 -0.7324 -0.0476 -1.4660
 8104TIP3   OH245726   1.141   0.489   1.460  0.0951  0.5427  0.0949
 8104TIP3    H145727   1.124   0.564   1.403  0.5042 -0.1834 -1.0114
 8104TIP3    H245728   1.175   0.422   1.401 -1.8422 -1.1175  0.7453
 8105TIP3   OH245729   3.955   1.343   5.068 -0.1183  0.0881  0.0186
 8105TIP3    H145730   3.987   1.254   5.084 -0.8076 -0.2688 -0.5593
 8105TIP3    H245731   3.997   1.395   5.136 -0.0397 -0.7489  0.6319
 8106TIP3   OH245732   2.424   4.438   5.115 -0.1250  0.1063  0.0247
 8106TIP3    H145733   2.491   4.370   5.108 -0.3886 -0.2416  0.6979
 8106TIP3    H245734   2.426   4.463   5.208 -2.1293 -1.1899  0.4876
 8107TIP3   OH245735   0.725   2.796  15.537  0.9110 -0.5814 -0.2764
 8107TIP3    H145736   0.722   2.856  15.612  0.3125  1.0782 -1.5545
 8107TIP3    H245737   0.759   2.850  15.465  0.7096 -1.9024 -1.3999
 8108TIP3   OH245738   0.017   4.476   5.675  0.0284 -0.4331  0.0839
 8108TIP3    H145739   0.048   4.487   5.585  2.6216 -0.8729  0.8277
 8108TIP3    H245740   0.029   4.562   5.715  1.0752 -0.7841  0.5715
 8109TIP3   OH245741   5.169   2.345  12.372 -0.0338 -0.1731 -0.4037
 8109TIP3    H145742   5.152   2.440  12.377 -0.2548 -0.2573  0.9996
 8109TIP3    H245743   5.237   2.336  12.305 -0.0939  0.9659 -0.6411
 8110TIP3   OH245744   0.351   4.571   5.559  0.2429  0.3435 -1.1371
 8110TIP3    H145745   0.445   4.558   5.572  0.3717  0.5304 -1.8300
 8110TIP3    H245746   0.312   4.484   5.574  0.4065  0.4634  0.0788
 8111TIP3   OH245747   1.860   5.617   5.659 -0.3334  0.1618 -0.3237
 8111TIP3    H145748   1.864   5.667   5.740  0.5077  1.9956 -1.4260
 8111TIP3    H245749   1.883   5.527   5.684 -0.6155  0.5676  1.5127
 8112TIP3   OH245750   6.400   1.747  15.968  0.3035  0.0336  0.2624
 8112TIP3    H145751   6.495   1.751  15.972  0.4041 -0.6085 -1.0121
 8112TIP3    H245752   6.372   1.839  15.972  1.2287  0.6489 -3.7839
 8113TIP3   OH245753   4.650   0.322  15.419 -0.2988 -0.1704  0.5752
 8113TIP3    H145754   4.712   0.250  15.413 -0.9974 -0.7111 -0.5054
 8113TIP3    H245755   4.566   0.283  15.396 -0.6307  1.0501 -0.4051
 8114TIP3   OH245756   3.816   0.178  16.036  0.0563 -0.3700  0.7178
 8114TIP3    H145757   3.830   0.108  15.972 -2.3938 -1.2672  1.0652
 8114TIP3    H245758   3.820   0.134  16.121  0.0975  0.2279  1.0333
 8115TIP3   OH245759   1.809   3.552   5.880  0.0818  0.0162  0.9912
 8115TIP3    H145760   1.759   3.593   5.951 -0.9485 -1.7330  1.3190
 8115TIP3    H245761   1.766   3.584   5.800 -0.0345  0.3915  1.1980
 8116TIP3   OH245762   6.042   4.200   6.449  0.5612  0.1134  0.3641
 8116TIP3    H145763   6.117   4.235   6.497 -0.1281  1.2444  0.6520
 8116TIP3    H245764   5.972   4.263   6.465  0.0488  0.0295 -1.3704
 8117TIP3   OH245765   5.797   3.318  11.571  0.3795  0.0429 -1.0873
 8117TIP3    H145766   5.734   3.339  11.640  0.9406  0.4271 -0.6868
 8117TIP3    H245767   5.862   3.261  11.614  1.5698  1.4976 -0.8765
 8118TIP3   OH245768   2.634   2.816   5.381 -0.1789 -0.2782 -0.3862
 8118TIP3    H145769   2.716   2.766   5.391 -0.8743 -1.0653  2.0362
 8118TIP3    H245770   2.604   2.830   5.470 -1.8024  1.5796 -1.1590
 8119TIP3   OH245771   1.642   5.637  10.731  0.0414 -0.3105 -0.2523
 8119TIP3    H145772   1.714   5.675  10.680  0.0433 -0.3850 -0.3062
 8119TIP3    H245773   1.572   5.701  10.725  0.0737 -0.2773 -0.2723
 8120TIP3   OH245774   1.238   4.516  16.958 -0.1648  0.5990  0.4628
 8120TIP3    H145775   1.243   4.561  16.874  1.6853  0.1248  0.2796
 8120TIP3    H245776   1.245   4.423  16.937 -0.5539  0.4221  1.0802
 8121TIP3   OH245777   2.699   1.109  12.212  0.1262 -0.4746 -0.3686
 8121TIP3    H145778   2.611   1.087  12.180  0.8701 -0.5146 -2.6078
 8121TIP3    H245779   2.690   1.194  12.253 -0.8002 -0.0181 -1.4686
 8122TIP3   OH245780   2.382   2.321  11.826  0.2084  0.8724  0.0409
 8122TIP3    H145781   2.456   2.381  11.828 -0.7537  2.1089 -0.0195
 8122TIP3    H245782   2.342   2.335  11.740 -0.5695  0.8408  0.3846
 8123TIP3   OH245783   4.239   6.187  15.456 -0.8843 -0.1086 -0.5279
 8123TIP3    H145784   4.320   6.185  15.405 -0.4333 -0.1851  0.1786
 8123TIP3    H245785   4.182   6.125  15.412  0.7192 -2.8831  1.0289
 8124TIP3   OH245786   6.681   5.938  14.614 -0.9850 -0.1324  0.8847
 8124TIP3    H145787   6.686   5.941  14.518  1.2541  1.7504  0.9759
 8124TIP3    H245788   6.616   6.004  14.637 -0.5548  0.3807  0.6656
 8125TIP3   OH245789   6.109   3.393  11.915 -0.9453 -0.0885  0.0862
 8125TIP3    H145790   6.178   3.327  11.917  0.2143  0.8729 -2.8134
 8125TIP3    H245791   6.127   3.449  11.990 -0.2659 -1.4261  0.9531
 8126TIP3   OH245792   1.820   2.137   2.128 -0.7293  0.1668 -0.0716
 8126TIP3    H145793   1.769   2.206   2.171 -1.0566  0.9018 -1.5577
 8126TIP3    H245794   1.772   2.119   2.047 -0.2127 -1.2626 -0.0955
 8127TIP3   OH245795   4.628   1.024   0.974  0.3947 -0.2531  0.3607
 8127TIP3    H145796   4.614   1.108   1.017  0.6258 -0.0831  0.1154
 8127TIP3    H245797   4.554   1.016   0.913  0.2573 -0.3282  0.5373
 8128TIP3   OH245798   5.954   3.124  14.061  0.5559 -0.2766 -0.2043
 8128TIP3    H145799   5.984   3.043  14.019 -0.2988 -1.7097  1.7669
 8128TIP3    H245800   5.863   3.105  14.087 -0.2237  1.9291 -1.1044
 8129TIP3   OH245801   1.431   0.866  11.914  0.2023 -0.0052 -0.3805
 8129TIP3    H145802   1.382   0.947  11.928 -1.5358 -0.8467 -1.2759
 8129TIP3    H245803   1.442   0.861  11.819  2.5109  0.3697 -0.2140
 8130TIP3   OH245804   6.733   0.041   3.305  0.2514  0.2256 -0.0707
 8130TIP3    H145805   6.774   0.037   3.391  1.1406  0.7696 -0.4583
 8130TIP3    H245806   6.805   0.054   3.244 -0.3587 -0.2521 -0.9187
 8131TIP3   OH245807   2.733   6.010  15.093  0.1982 -0.0635 -0.7149
 8131TIP3    H145808   2.680   5.988  15.170  0.8089  1.1497  0.1013
 8131TIP3    H245809   2.749   5.927  15.050  1.4178 -1.0951  1.5275
 8132TIP3   OH245810   3.511   5.129  14.583  0.3321 -0.0301 -0.1193
 8132TIP3    H145811   3.421   5.119  14.552  0.7748  0.2126 -1.5413
 8132TIP3    H245812   3.564   5.129  14.504  1.5779  0.0463  0.6856
 8133TIP3   OH245813   0.296   0.005  15.150  0.2144 -0.1365 -0.7132
 8133TIP3    H145814   0.364  -0.016  15.086 -0.0170  1.5290 -1.5657
 8133TIP3    H245815   0.259   0.088  15.119 -2.1062 -0.9099 -0.1896
 8134TIP3   OH245816   5.662   6.142   3.122  0.4069  0.3328 -0.3266
 8134TIP3    H145817   5.690   6.167   3.210  2.4852  0.9160 -1.0918
 8134TIP3    H245818   5.606   6.214   3.094 -0.8540 -0.1875  0.7358
 8135TIP3   OH245819   6.653   3.108   0.589  0.3988 -0.5601 -0.1739
 8135TIP3    H145820   6.734   3.153   0.612  1.2580 -3.1447  2.5346
 8135TIP3    H245821   6.680   3.039   0.529 -0.2229 -0.1127 -0.9976
 8136TIP3   OH245822   3.962   4.224   3.853  0.3219 -0.0029 -0.1080
 8136TIP3    H145823   3.881   4.274   3.861  1.2387  1.4770  0.2783
 8136TIP3    H245824   3.956   4.182   3.767 -1.4703 -1.0932  0.5162
 8137TIP3   OH245825   2.181   3.446   0.662  0.3350 -0.2578 -0.7535
 8137TIP3    H145826   2.124   3.493   0.601  1.5745 -1.2447 -2.8259
 8137TIP3    H245827   2.269   3.461   0.627  1.1312 -0.6343  1.0148
 8138TIP3   OH245828   4.632   5.627  10.316 -0.2499  0.1967  0.1893
 8138TIP3    H145829   4.572   5.631  10.242 -0.0575 -1.4213 -0.0995
 8138TIP3    H245830   4.589   5.570  10.379  2.2324 -3.9072 -1.3864
 8139TIP3   OH245831   0.772   5.280   6.744  0.4707  0.0855  0.8460
 8139TIP3    H145832   0.699   5.271   6.805  1.1278  0.5119  1.7167
 8139TIP3    H245833   0.770   5.372   6.718 -0.8922 -0.4511 -1.2096
 8140TIP3   OH245834   5.903   2.979   1.395 -0.1323 -0.0131 -0.4488
 8140TIP3    H145835   5.910   2.982   1.490 -0.1751 -1.3280 -0.3784
 8140TIP3    H245836   5.876   3.067   1.370  0.2097  0.4455  0.7190
 8141TIP3   OH245837   2.690   1.109   4.747  0.1030 -0.3132  0.3637
 8141TIP3    H145838   2.704   1.114   4.842 -1.6840  0.8858  0.6148
 8141TIP3    H245839   2.601   1.142   4.734  0.8867  1.1333 -1.9136
 8142TIP3   OH245840   6.575   4.693  11.446  0.1086 -0.0622 -0.2779
 8142TIP3    H145841   6.649   4.649  11.404 -0.1861 -0.2677 -0.5814
 8142TIP3    H245842   6.607   4.715  11.534  1.0098  1.0893 -0.8600
 8143TIP3   OH245843   5.159   0.183   2.944  0.2897 -0.0677  0.8791
 8143TIP3    H145844   5.162   0.279   2.944  1.0065 -0.0439 -1.2307
 8143TIP3    H245845   5.079   0.161   2.896  1.3808 -0.4666 -0.8558
 8144TIP3   OH245846   6.602   6.328   2.085  0.5153  0.0273  0.3128
 8144TIP3    H145847   6.680   6.317   2.030  0.3786  1.2854 -0.1621
 8144TIP3    H245848   6.622   6.404   2.139 -0.8888  1.2061 -0.7436
 8145TIP3   OH245849   3.751   1.651   2.996 -0.1033 -0.2611 -0.9061
 8145TIP3    H145850   3.780   1.565   2.967 -1.5947 -0.7572 -0.9770
 8145TIP3    H245851   3.657   1.652   2.980 -0.6590  0.2474  1.8727
 8146TIP3   OH245852   1.324   4.763   5.929  0.0667 -1.2498  0.1565
 8146TIP3    H145853   1.268   4.839   5.915  1.5449  0.1600  1.4578
 8146TIP3    H245854   1.313   4.710   5.850 -3.1807 -1.1739  0.4161
 8147TIP3   OH245855   4.079   3.021   1.526 -0.0634 -0.9296  0.2468
 8147TIP3    H145856   4.077   2.927   1.544 -0.7277 -1.6675 -2.9463
 8147TIP3    H245857   4.055   3.062   1.608 -0.7426 -3.5940  1.4926
 8148TIP3   OH245858   6.221   2.450  17.084 -0.2004  0.2112 -0.1885
 8148TIP3    H145859   6.234   2.538  17.049 -2.5169  0.3047 -0.9165
 8148TIP3    H245860   6.220   2.462  17.179  1.6525  0.6008 -0.1737
 8149TIP3   OH245861   2.607   2.574  11.119 -0.2017  0.1565 -0.0679
 8149TIP3    H145862   2.638   2.542  11.204  1.2503  1.4232 -0.0646
 8149TIP3    H245863   2.525   2.618  11.139  0.1712  0.5283  0.7187
 8150TIP3   OH245864   4.429   0.553   5.824 -0.4891 -0.4607 -0.9128
 8150TIP3    H145865   4.517   0.527   5.798  0.7684  2.9704 -0.5907
 8150TIP3    H245866   4.435   0.566   5.919 -1.6245 -0.9721 -0.7454
 8151TIP3   OH245867   3.562   4.754  15.998 -0.0182 -0.1416  0.5477
 8151TIP3    H145868   3.506   4.763  16.075  2.0971 -2.0400  2.4324
 8151TIP3    H245869   3.581   4.661  15.993 -1.5245 -0.4279 -3.4736
 8152TIP3   OH245870   4.098   0.133   4.962  0.4121  0.2316 -0.1046
 8152TIP3    H145871   4.035   0.063   4.976 -1.5906  1.5945 -1.6680
 8152TIP3    H245872   4.183   0.088   4.958 -0.6751 -1.9641 -0.1425
 8153TIP3   OH245873   5.736   0.229  13.859 -0.3965 -0.0326  0.2655
 8153TIP3    H145874   5.716   0.177  13.781  2.2578 -0.2253 -0.3759
 8153TIP3    H245875   5.689   0.312  13.844 -2.3935 -1.1377 -0.0146
 8154TIP3   OH245876   5.925   1.292  16.499  0.2229  0.3889  0.0846
 8154TIP3    H145877   5.934   1.223  16.565 -0.8534 -0.9206 -1.0487
 8154TIP3    H245878   5.854   1.348  16.532  0.1353  0.1239  0.3572
 8155TIP3   OH245879   3.896   6.355   2.138 -0.5662 -0.2510 -0.0249
 8155TIP3    H145880   3.877   6.442   2.102  0.2683  0.1197  0.4109
 8155TIP3    H245881   3.868   6.295   2.069 -1.6134  0.3332 -0.1331
 8156TIP3   OH245882   3.054   1.432  12.748  0.3937 -0.1157 -0.2463
 8156TIP3    H145883   3.126   1.378  12.714  0.6748  0.1904 -0.1472
 8156TIP3    H245884   3.029   1.488  12.674  1.1133  0.6625  0.0827
 8157TIP3   OH245885   5.036   0.697  12.000  0.7783  0.0106  0.1762
 8157TIP3    H145886   5.037   0.624  12.063  2.6060 -2.1682 -2.1622
 8157TIP3    H245887   5.107   0.754  12.028  1.6269 -0.9785  0.1012
 8158TIP3   OH245888   1.434   4.085   0.637  0.5330 -0.1374 -1.0247
 8158TIP3    H145889   1.375   4.156   0.665  2.3387  0.3998  1.9386
 8158TIP3    H245890   1.477   4.119   0.559  0.4718  1.5800 -0.3588
 8159TIP3   OH245891   5.826   1.150  12.331  0.4629  0.2557 -0.3748
 8159TIP3    H145892   5.772   1.112  12.262  0.6370 -1.2604  0.2888
 8159TIP3    H245893   5.875   1.076  12.367  1.1260  1.1858  0.7094
 8160TIP3   OH245894   5.327   1.420  13.034 -0.2002 -0.2089 -0.0380
 8160TIP3    H145895   5.387   1.373  13.092 -1.3555 -1.1576  0.4520
 8160TIP3    H245896   5.242   1.413  13.078 -0.8653  0.1775 -1.2246
 8161TIP3   OH245897   0.671   1.029   2.954 -0.1643  0.1392  0.0144
 8161TIP3    H145898   0.619   1.097   2.911  0.4901 -0.0333 -1.0887
 8161TIP3    H245899   0.758   1.068   2.962  0.2979 -0.6677 -0.9169
 8162TIP3   OH245900   1.603   6.709  13.446  0.7590 -0.5463  0.6643
 8162TIP3    H145901   1.535   6.686  13.383  0.2892 -0.3824  1.1049
 8162TIP3    H245902   1.684   6.672  13.409  0.2288 -1.8461  0.7498
 8163TIP3   OH245903   3.740   0.697  14.749 -0.1037 -0.3083  0.0680
 8163TIP3    H145904   3.831   0.705  14.777 -0.2582 -0.0332  0.4943
 8163TIP3    H245905   3.693   0.667  14.826 -0.9262  2.6374  0.8333
 8164TIP3   OH245906   5.882   2.928  16.383  0.3219  0.3641  0.2581
 8164TIP3    H145907   5.977   2.934  16.392  0.6752 -1.6577 -1.3567
 8164TIP3    H245908   5.854   2.874  16.457  0.7464 -0.7997 -0.4011
 8165TIP3   OH245909   1.840   0.145  12.873  0.5670 -0.1791 -0.3213
 8165TIP3    H145910   1.780   0.174  12.804  0.9452 -0.8088 -0.9319
 8165TIP3    H245911   1.854   0.222  12.927 -0.9983 -0.0870 -0.0073
 8166TIP3   OH245912   2.810   5.630   3.750 -0.0454 -0.1321  0.7436
 8166TIP3    H145913   2.723   5.592   3.754 -0.2353  0.1617 -0.3767
 8166TIP3    H245914   2.795   5.724   3.742  0.3482 -0.1453 -0.3295
 8167TIP3   OH245915   3.598   5.225  14.054  0.1819 -0.0543  0.3954
 8167TIP3    H145916   3.669   5.238  14.116 -0.0201 -0.4014  0.7065
 8167TIP3    H245917   3.524   5.197  14.109  0.0096 -0.3866 -0.0031
 8168TIP3   OH245918   6.687   1.284  15.340 -0.0649 -0.8087 -0.4151
 8168TIP3    H145919   6.723   1.354  15.286  1.5425 -0.3108  1.2099
 8168TIP3    H245920   6.613   1.325  15.386  0.7177 -0.2292  0.3442
 8169TIP3   OH245921   4.642   2.888  11.550 -0.4091 -0.1829  0.8877
 8169TIP3    H145922   4.584   2.831  11.601  0.0960 -0.7616  0.8152
 8169TIP3    H245923   4.673   2.834  11.478 -2.1228  0.9814 -0.8209
 8170TIP3   OH245924   5.853   5.532  14.663 -0.0081 -0.0561 -0.1490
 8170TIP3    H145925   5.886   5.592  14.730 -0.3111  0.2647 -0.2792
 8170TIP3    H245926   5.792   5.585  14.612  0.0624 -0.3534 -0.5508
 8171TIP3   OH245927   4.541   6.297   1.931 -0.5327  1.0009  0.0593
 8171TIP3    H145928   4.595   6.340   1.998 -0.2617 -1.0391  1.2335
 8171TIP3    H245929   4.453   6.296   1.968 -0.7214  1.3676 -0.3758
 8172TIP3   OH245930   3.850   0.343   2.579  0.0935  0.3255  0.6628
 8172TIP3    H145931   3.842   0.257   2.539  2.3881  0.1596  0.4514
 8172TIP3    H245932   3.817   0.404   2.513 -3.1483 -0.4026  1.4328
 8173TIP3   OH245933   6.740   1.725   4.472  0.4649 -0.8547  0.2127
 8173TIP3    H145934   6.696   1.650   4.430 -2.6026  1.1952 -0.5991
 8173TIP3    H245935   6.723   1.798   4.413  0.8275  1.0537  2.3427
 8174TIP3   OH245936   0.209   5.432  12.413  0.2031 -0.4191 -0.0101
 8174TIP3    H145937   0.267   5.506  12.433 -0.9962  1.1810 -2.0552
 8174TIP3    H245938   0.268   5.360  12.390  1.3893  0.3117  0.6821
 8175TIP3   OH245939   6.695   1.579  13.298 -0.0601  0.2141  0.3429
 8175TIP3    H145940   6.623   1.547  13.245  0.8563 -0.3757 -0.5916
 8175TIP3    H245941   6.655   1.643  13.357 -1.0714  1.2560 -1.3597
 8176TIP3   OH245942   2.179   1.475   4.082  0.1065 -0.0813  0.2137
 8176TIP3    H145943   2.203   1.398   4.132  0.5225  2.2461  3.9714
 8176TIP3    H245944   2.216   1.548   4.130 -0.4649  2.5675 -2.9861
 8177TIP3   OH245945   2.837   6.355   3.044  0.2041  0.3272 -0.4695
 8177TIP3    H145946   2.911   6.414   3.062 -0.6241  1.1988  0.1904
 8177TIP3    H245947   2.838   6.343   2.949  0.7920  0.8615 -0.5369
 8178TIP3   OH245948   1.912   1.499   4.059  0.5941  0.2519 -0.5516
 8178TIP3    H145949   1.898   1.484   3.966  0.3941 -1.6714 -0.2549
 8178TIP3    H245950   2.007   1.494   4.070  0.5427 -0.9290 -0.4778
 8179TIP3   OH245951   1.893   1.435  15.961  0.0453  0.1509 -0.4694
 8179TIP3    H145952   1.829   1.374  15.925 -2.0409  0.9066  1.6705
 8179TIP3    H245953   1.955   1.380  16.008 -1.8774 -0.4717  1.5420
 8180TIP3   OH245954   1.312   5.875   0.241  0.0625 -0.1044  0.3755
 8180TIP3    H145955   1.342   5.912   0.158  0.4757  1.4448  1.1646
 8180TIP3    H245956   1.368   5.799   0.256 -1.1407 -1.4615 -1.5574
 8181TIP3   OH245957   2.225   0.904  16.314  0.7297  0.0726 -0.1324
 8181TIP3    H145958   2.179   0.902  16.230 -1.5226 -1.9961  1.0158
 8181TIP3    H245959   2.244   0.996  16.329 -2.3363  0.9840 -1.1261
 8182TIP3   OH245960   4.748   4.558  11.832 -0.1239 -0.1767  0.0767
 8182TIP3    H145961   4.778   4.469  11.811  0.1851  0.1889 -1.0906
 8182TIP3    H245962   4.666   4.567  11.783  1.2874  1.1743 -2.1747
 8183TIP3   OH245963   6.580   0.938  13.862 -0.1433  0.3189  0.2330
 8183TIP3    H145964   6.502   0.884  13.866  1.0497 -1.3804  2.5598
 8183TIP3    H245965   6.628   0.905  13.786 -1.1458  0.6895 -0.5905
 8184TIP3   OH245966   4.859   3.075   4.649  1.1226  0.0232  0.2849
 8184TIP3    H145967   4.846   3.157   4.696  0.9688 -0.5393  1.2540
 8184TIP3    H245968   4.954   3.061   4.652  1.3421  0.9583 -1.2942
 8185TIP3   OH245969   4.602   4.499  15.849  0.0090 -0.0177 -0.3258
 8185TIP3    H145970   4.693   4.477  15.828  0.3967  0.7139  0.4978
 8185TIP3    H245971   4.581   4.445  15.925 -0.0875  0.1471 -0.2342
 8186TIP3   OH245972   1.223   5.542   4.216 -0.9526  0.7823 -0.4028
 8186TIP3    H145973   1.279   5.464   4.222 -1.6833  0.2698 -0.1372
 8186TIP3    H245974   1.268   5.607   4.270 -2.4597 -0.7627  3.0569
 8187TIP3   OH245975   3.796   4.222   2.236 -0.1027 -0.5572  0.2401
 8187TIP3    H145976   3.705   4.249   2.222 -0.0764 -0.3904  0.3883
 8187TIP3    H245977   3.813   4.240   2.329 -0.4794 -2.2548  0.6693
 8188TIP3   OH245978   4.839   5.196  13.435 -0.1074 -0.7013 -0.4220
 8188TIP3    H145979   4.773   5.245  13.484  0.0438  0.4937 -1.3632
 8188TIP3    H245980   4.855   5.118  13.488 -1.2403 -0.3262  0.5224
 8189TIP3   OH245981   4.080   3.775  11.567  0.8737  0.3649 -0.2699
 8189TIP3    H145982   4.086   3.766  11.472  0.3514  0.3219 -0.2989
 8189TIP3    H245983   4.168   3.802  11.594  0.2177  3.7895 -1.1167
 8190TIP3   OH245984   2.503   3.199   2.731 -0.3710  0.5536 -0.1148
 8190TIP3    H145985   2.411   3.173   2.736  0.0837 -1.2216 -0.2825
 8190TIP3    H245986   2.546   3.150   2.801  0.4195  1.6050  0.1742
 8191TIP3   OH245987   5.039   0.945   3.116  1.1057 -0.5835 -0.7655
 8191TIP3    H145988   4.949   0.932   3.089 -0.9673  3.1214  3.1205
 8191TIP3    H245989   5.068   1.021   3.066  1.4338 -0.6802 -0.7261
 8192TIP3   OH245990   2.120   0.962   3.856 -0.2525 -0.1159  0.0843
 8192TIP3    H145991   2.144   0.874   3.885  1.6181  0.3927  0.2106
 8192TIP3    H245992   2.041   0.949   3.803  0.0034 -1.8653  0.0719
 8193TIP3   OH245993   2.156   2.627   4.321  0.7549  0.2468  0.4987
 8193TIP3    H145994   2.104   2.707   4.329 -0.0358 -0.0972 -0.8334
 8193TIP3    H245995   2.178   2.603   4.411 -0.2273  1.1716  1.0007
 8194TIP3   OH245996   1.896   0.415  15.764  0.1606 -0.1172 -0.2498
 8194TIP3    H145997   1.843   0.493  15.783 -1.3793 -0.2751 -3.2923
 8194TIP3    H245998   1.835   0.342  15.776  1.2390 -0.8170  1.3100
 8195TIP3   OH245999   6.063   2.036  14.845  0.3417 -0.4503  0.3879
 8195TIP3    H146000   6.146   2.070  14.812 -0.5999 -0.1621 -1.8620
 8195TIP3    H246001   6.053   1.950  14.802 -0.2778 -0.7245  1.0531
 8196TIP3   OH246002   2.338   6.505  16.391  0.3148  0.5323 -0.8907
 8196TIP3    H146003   2.397   6.507  16.467  0.5882  1.1978 -1.1094
 8196TIP3    H246004   2.368   6.578  16.336 -0.3760  0.5404 -1.2625
 8197TIP3   OH246005   5.734   6.008  12.049 -0.1062  0.6090 -0.0420
 8197TIP3    H146006   5.686   6.087  12.073  0.7233  1.9484 -2.4556
 8197TIP3    H246007   5.795   6.036  11.981  1.1407 -1.8717 -0.0787
 8198TIP3   OH246008   5.832   4.248  11.985  0.0358 -0.5275 -0.4211
 8198TIP3    H146009   5.775   4.283  11.917  0.0803  0.1857 -0.1066
 8198TIP3    H246010   5.772   4.220  12.054  0.0614  0.6269  0.0962
 8199TIP3   OH246011   5.349   0.740  12.639 -0.0371  0.2651 -0.1827
 8199TIP3    H146012   5.274   0.715  12.693  0.4533  1.9743  1.4020
 8199TIP3    H246013   5.424   0.698  12.681  0.0849 -0.1789 -0.8393
 8200TIP3   OH246014   1.459   0.996  17.107  0.2432 -0.8243  0.3286
 8200TIP3    H146015   1.515   0.934  17.060 -0.5658 -2.3192  1.2586
 8200TIP3    H246016   1.415   0.943  17.173  1.8213  1.2298  3.3067
 8201TIP3   OH246017   3.317   0.216   4.693 -0.5389 -0.0134  0.4119
 8201TIP3    H146018   3.269   0.298   4.692 -1.3629 -0.4481  1.5230
 8201TIP3    H246019   3.406   0.240   4.720 -0.5079  0.6159 -0.2257
 8202TIP3   OH246020   5.825   4.152   2.758  0.2071  0.4168  0.2866
 8202TIP3    H146021   5.836   4.227   2.700 -0.5402  1.8042  1.8223
 8202TIP3    H246022   5.798   4.081   2.701 -1.5912  1.9965 -0.9760
 8203TIP3   OH246023   3.698   4.919  13.610  0.0892  0.0748 -0.3487
 8203TIP3    H146024   3.670   4.830  13.629 -0.7941 -0.0124 -1.8744
 8203TIP3    H246025   3.785   4.909  13.571 -0.2847 -0.1934 -1.1324
 8204TIP3   OH246026   4.307   5.044  14.507 -0.4467 -0.0095  0.0753
 8204TIP3    H146027   4.380   5.067  14.450 -0.3868 -0.2737  0.0410
 8204TIP3    H246028   4.346   5.033  14.594 -0.6486  1.0700  0.3144
 8205TIP3   OH246029   1.518   4.203   0.354  0.2733  0.5278 -0.2018
 8205TIP3    H146030   1.610   4.226   0.340  0.1375  1.0778 -0.2164
 8205TIP3    H246031   1.471   4.287   0.350 -0.0223  0.4945  1.6332
 8206TIP3   OH246032   5.195   5.626  13.939 -0.3970  0.0356 -0.4425
 8206TIP3    H146033   5.171   5.718  13.928 -0.3089 -0.0247 -1.1945
 8206TIP3    H246034   5.215   5.617  14.032 -0.1014  0.8523 -0.4255
 8207TIP3   OH246035   5.166   2.472   2.970 -0.0964  0.3515 -0.4787
 8207TIP3    H146036   5.210   2.533   3.029  2.4686 -0.3453 -1.5449
 8207TIP3    H246037   5.184   2.386   3.007  0.3540 -0.0050 -1.5049
 8208TIP3   OH246038   3.471   3.117   1.911  0.0385  0.1438  0.2022
 8208TIP3    H146039   3.512   3.084   1.990 -1.3526 -0.4974  0.6991
 8208TIP3    H246040   3.543   3.151   1.858  1.2167 -1.1771  0.8962
 8209TIP3   OH246041   3.497   1.030  10.540 -0.2430 -0.4399  0.0701
 8209TIP3    H146042   3.556   1.009  10.612  0.6036 -1.0907 -0.7901
 8209TIP3    H246043   3.521   1.119  10.514  1.5990 -1.2825 -1.3809
 8210TIP3   OH246044   3.603   5.388   4.403 -0.3563 -0.5078  0.4580
 8210TIP3    H146045   3.577   5.464   4.456  0.5950 -0.0747  0.3268
 8210TIP3    H246046   3.550   5.316   4.436 -1.5206  0.2862  0.3743
 8211TIP3   OH246047   2.888   4.492   2.367 -0.0196 -0.6200 -0.3136
 8211TIP3    H146048   2.923   4.579   2.353 -3.3642  0.9836  0.2265
 8211TIP3    H246049   2.912   4.443   2.289  2.1422  0.6580 -0.5199
 8212TIP3   OH246050   1.981   4.964   1.877  0.1783 -0.5005 -0.5046
 8212TIP3    H146051   2.012   5.044   1.920  2.2325 -2.1676  1.3895
 8212TIP3    H246052   1.912   4.932   1.936 -0.6169 -0.1757 -1.2421
 8213TIP3   OH246053   3.555   3.110   4.044 -0.1471 -0.3685 -0.0011
 8213TIP3    H146054   3.583   3.026   4.008  2.1315  0.8396 -1.2964
 8213TIP3    H246055   3.637   3.151   4.073 -1.4240  0.6171  2.4671
 8214TIP3   OH246056   1.092   4.490   1.898 -0.0006 -0.1161 -0.8467
 8214TIP3    H146057   1.081   4.518   1.989 -0.2375 -2.7881  0.0642
 8214TIP3    H246058   1.187   4.484   1.886  0.1071  2.0824 -1.4751
 8215TIP3   OH246059   5.815   6.638  12.048 -0.2960 -1.3464  0.2964
 8215TIP3    H146060   5.846   6.605  11.963 -0.9135 -1.2713  0.0338
 8215TIP3    H246061   5.880   6.606  12.111  0.1234 -1.4797 -0.1902
 8216TIP3   OH246062   6.104   4.663   4.839 -0.5850  0.7863 -0.2790
 8216TIP3    H146063   6.168   4.594   4.820 -1.6313 -0.0463 -0.8463
 8216TIP3    H246064   6.133   4.738   4.787  1.0810  1.1190  1.0309
 8217TIP3   OH246065   4.323   1.648  16.569 -0.1335  0.2867  0.0892
 8217TIP3    H146066   4.267   1.665  16.644 -1.7014  1.3900 -1.2481
 8217TIP3    H246067   4.323   1.731  16.520  2.5254  0.2700 -0.0934
 8218TIP3   OH246068   3.745   2.702   3.632  0.0372  0.7030  0.4122
 8218TIP3    H146069   3.826   2.752   3.628  0.5768 -0.1234  0.8655
 8218TIP3    H246070   3.686   2.748   3.572  0.9808  1.0494 -0.2711
 8219TIP3   OH246071   4.059   0.018   3.799 -0.3653 -0.4587  0.5011
 8219TIP3    H146072   3.978   0.008   3.748  0.5684 -2.5413 -0.7285
 8219TIP3    H246073   4.048  -0.043   3.872 -0.1932 -0.2354  0.7130
 8220TIP3   OH246074   2.315   4.254  15.442  0.4771  0.3424  0.2328
 8220TIP3    H146075   2.379   4.317  15.409 -0.0067  0.2320 -0.9337
 8220TIP3    H246076   2.268   4.224  15.365 -0.0769 -0.5968  0.9172
 8221TIP3   OH246077   5.088   2.212  10.939  0.3386  0.1945 -0.1269
 8221TIP3    H146078   5.108   2.276  10.871 -0.3590  1.3379  0.6979
 8221TIP3    H246079   5.065   2.132  10.892  0.4041  0.8025 -1.2100
 8222TIP3   OH246080   6.460   6.241   1.160 -0.2617  0.3076 -0.0233
 8222TIP3    H146081   6.509   6.165   1.131 -0.8042 -0.2294  0.4584
 8222TIP3    H246082   6.476   6.307   1.092  1.3229  0.2428  0.2385
 8223TIP3   OH246083   1.646   2.756   0.401  0.5386 -0.1155  0.0384
 8223TIP3    H146084   1.722   2.722   0.448  1.0889  1.2294  0.1499
 8223TIP3    H246085   1.584   2.781   0.470 -0.0391 -1.2125 -0.0519
 8224TIP3   OH246086   0.205   0.373   4.776  0.5836  0.5288 -0.2145
 8224TIP3    H146087   0.280   0.322   4.747 -0.4498  0.0933 -2.3807
 8224TIP3    H246088   0.148   0.378   4.698 -0.1060  3.6256  0.3398
 8225TIP3   OH246089   0.853   6.219  12.947  0.1927  0.1533  0.3604
 8225TIP3    H146090   0.876   6.126  12.936 -2.1137 -0.3777 -0.4050
 8225TIP3    H246091   0.871   6.259  12.862 -2.1083 -0.4004 -0.4459
 8226TIP3   OH246092   2.721   5.108   0.823 -0.8626  0.0529 -0.1726
 8226TIP3    H146093   2.790   5.170   0.848 -0.7533  0.1753 -0.7583
 8226TIP3    H246094   2.764   5.022   0.828  0.1316  0.2855 -2.9569
 8227TIP3   OH246095   5.109   5.686  13.223  0.5792  0.1615 -0.1273
 8227TIP3    H146096   5.128   5.693  13.130 -2.9408  2.3071 -0.8596
 8227TIP3    H246097   5.030   5.632  13.227  0.2616  0.6946  1.5216
 8228TIP3   OH246098   2.212   0.072  13.811  0.1854  0.0655 -0.0012
 8228TIP3    H146099   2.233   0.101  13.722 -2.9442  2.2233 -0.2102
 8228TIP3    H246100   2.266   0.127  13.868 -1.7063  2.7106 -0.5588
 8229TIP3   OH246101   0.645   0.177  15.738  0.0996  0.0417 -0.1493
 8229TIP3    H146102   0.571   0.171  15.677  0.0667  0.1929 -0.1242
 8229TIP3    H246103   0.715   0.128  15.694  0.5309  1.3785 -1.0044
 8230TIP3   OH246104   2.790   0.600   3.080 -0.0217 -0.2405  0.0886
 8230TIP3    H146105   2.817   0.616   2.990  1.1905  1.4520  0.7027
 8230TIP3    H246106   2.705   0.644   3.087  0.3806  0.5512  0.0539
 8231TIP3   OH246107   1.897   2.843  14.101 -0.1551 -0.0481 -0.3033
 8231TIP3    H146108   1.928   2.804  14.183  1.4220 -1.9746 -1.7153
 8231TIP3    H246109   1.975   2.886  14.064 -0.6686  0.1849 -1.1337
 8232TIP3   OH246110   1.767   1.621   4.765 -0.5673  0.1977  0.3611
 8232TIP3    H146111   1.678   1.634   4.733 -0.0080 -0.3822 -1.5827
 8232TIP3    H246112   1.809   1.706   4.755 -0.9091  0.4955  1.3668
 8233TIP3   OH246113   4.936   1.523  12.467  0.0868 -0.2185 -1.0216
 8233TIP3    H146114   4.902   1.442  12.504  0.1088  0.0623 -0.3676
 8233TIP3    H246115   4.931   1.586  12.539  0.7388  0.1745 -1.3082
 8234TIP3   OH246116   5.587   4.351   5.601  0.0255  1.0766 -0.1572
 8234TIP3    H146117   5.541   4.353   5.685 -0.5014  2.0341 -0.4535
 8234TIP3    H246118   5.519   4.338   5.536  0.7297 -3.3076 -0.3109
 8235TIP3   OH246119   2.418   0.803  12.267  0.2529 -0.1431 -0.4994
 8235TIP3    H146120   2.324   0.798  12.249  0.5652 -0.6256 -2.1198
 8235TIP3    H246121   2.453   0.860  12.199  0.8073  2.2325  1.6388
 8236TIP3   OH246122   1.069   1.426   1.906  0.2673 -0.9463 -0.0431
 8236TIP3    H146123   1.002   1.365   1.937  1.2523 -1.8810  0.3068
 8236TIP3    H246124   1.027   1.473   1.834 -0.7766 -1.4897  0.1921
 8237TIP3   OH246125   5.078   2.474  13.543  0.8501 -0.5132 -0.1485
 8237TIP3    H146126   4.998   2.526  13.546  0.4334 -1.2024  1.5375
 8237TIP3    H246127   5.057   2.394  13.590  2.5892 -0.6026  0.5603
 8238TIP3   OH246128   5.687   1.258  11.393 -0.2348  0.0350  0.6214
 8238TIP3    H146129   5.605   1.209  11.389  0.3872 -0.9586 -0.6170
 8238TIP3    H246130   5.726   1.232  11.477 -0.6574 -0.3633  0.6976
 8239TIP3   OH246131   6.280   6.624   6.456  0.4722  0.1021  0.2014
 8239TIP3    H146132   6.268   6.540   6.412 -0.5361  0.6628 -0.6613
 8239TIP3    H246133   6.359   6.613   6.509  0.5360 -1.2754 -0.1387
 8240TIP3   OH246134   2.424   5.179   4.066  0.1960  0.0909  0.1663
 8240TIP3    H146135   2.423   5.131   4.149  0.9234  1.1426  0.7980
 8240TIP3    H246136   2.365   5.129   4.009  0.3146 -1.0946  1.0503
 8241TIP3   OH246137   5.854   6.731   1.872 -0.2937  0.2223  0.2731
 8241TIP3    H146138   5.942   6.766   1.888 -0.6554  0.2641  2.4864
 8241TIP3    H246139   5.822   6.780   1.796  0.8551  1.6254  0.6464
 8242TIP3   OH246140   1.539   1.746   4.643  0.2709  0.1806 -0.8224
 8242TIP3    H146141   1.482   1.682   4.686  0.8124  0.7791  0.8564
 8242TIP3    H246142   1.483   1.823   4.630  0.5479  0.6332  0.4846
 8243TIP3   OH246143   5.580   0.161   0.626  0.5994 -0.0662  0.8104
 8243TIP3    H146144   5.552   0.187   0.538 -0.0966  0.5750  1.2108
 8243TIP3    H246145   5.615   0.072   0.615 -1.0474 -0.6637  0.1803
 8244TIP3   OH246146   4.242   3.245   2.648 -0.1456  0.2721 -0.3296
 8244TIP3    H146147   4.317   3.215   2.596  0.4221  1.1873 -0.0616
 8244TIP3    H246148   4.245   3.341   2.640 -1.7694  0.2914 -0.9693
 8245TIP3   OH246149   5.048   5.089   0.320  0.2684  0.6378  0.4016
 8245TIP3    H146150   5.050   5.026   0.248  1.2104  1.2934 -0.1723
 8245TIP3    H246151   4.988   5.157   0.290  0.9453  1.0977  0.0484
 8246TIP3   OH246152   1.493   0.344  13.610  0.8602 -0.3281 -0.0492
 8246TIP3    H146153   1.445   0.375  13.687  1.2336  0.1981 -0.0251
 8246TIP3    H246154   1.562   0.408  13.597  0.0458  0.2816 -1.5764
 8247TIP3   OH246155   4.800   3.489  15.287 -0.1716  0.2897 -0.7034
 8247TIP3    H146156   4.740   3.563  15.291  2.1745  2.4547 -2.4532
 8247TIP3    H246157   4.778   3.436  15.364 -2.6634  2.1926  0.0143
 8248TIP3   OH246158   3.531   0.975  15.864 -0.2053 -0.3148 -0.1186
 8248TIP3    H146159   3.612   0.963  15.815  0.2198 -0.8115  0.6859
 8248TIP3    H246160   3.509   0.888  15.898  0.2644  0.2179  1.6984
 8249TIP3   OH246161   2.676   0.210  13.811 -0.1245  0.5318 -0.1215
 8249TIP3    H146162   2.648   0.125  13.845  1.1672  1.2745  3.1302
 8249TIP3    H246163   2.596   0.261  13.801 -0.7354 -0.4536 -0.3589
 8250TIP3   OH246164   4.067   4.258   2.125  0.0129  0.0438 -0.3449
 8250TIP3    H146165   4.094   4.232   2.213 -0.4931  1.0130  0.1149
 8250TIP3    H246166   3.972   4.255   2.127 -0.0469  1.2488 -0.4704
 8251TIP3   OH246167   3.255   3.904   6.312  0.1054 -0.1846 -0.2632
 8251TIP3    H146168   3.207   3.851   6.375 -1.6660  1.1031 -0.4579
 8251TIP3    H246169   3.192   3.920   6.241  1.8691 -1.1624 -2.1585
 8252TIP3   OH246170   6.708   3.012  10.569 -0.2050 -0.0415 -0.3663
 8252TIP3    H146171   6.685   2.926  10.605 -0.6735 -0.8638 -2.4888
 8252TIP3    H246172   6.803   3.009  10.559  0.0093  0.4094  1.1942
 8253TIP3   OH246173   3.075   2.436   1.452 -0.4485 -0.2434 -0.2532
 8253TIP3    H146174   3.169   2.424   1.457 -0.3241  1.0120  2.0786
 8253TIP3    H246175   3.062   2.503   1.384  0.4860  0.5936  0.3699
 8254TIP3   OH246176   6.225   3.412  16.129  0.1286 -0.4395 -0.6354
 8254TIP3    H146177   6.253   3.409  16.038 -1.3875  0.6896 -1.1900
 8254TIP3    H246178   6.174   3.494  16.136  1.6326  0.4109  1.6499
 8255TIP3   OH246179   2.630   4.917  13.077 -0.4796 -0.0937 -0.5053
 8255TIP3    H146180   2.601   4.954  13.161 -0.1452 -0.5699 -0.1760
 8255TIP3    H246181   2.679   4.988  13.035  1.8092 -0.7001  0.9580
 8256TIP3   OH246182   2.949   4.383  16.140  0.0237 -0.8050 -0.5114
 8256TIP3    H146183   2.865   4.339  16.133 -0.8659  0.5118  1.0757
 8256TIP3    H246184   3.014   4.314  16.128 -1.2844 -2.1058 -0.3805
 8257TIP3   OH246185   1.168   2.076   4.600  0.5354 -0.1137 -0.3420
 8257TIP3    H146186   1.138   2.047   4.514 -0.3996 -0.5094  0.1023
 8257TIP3    H246187   1.097   2.051   4.660 -0.4583  3.1781  0.0682
 8258TIP3   OH246188   3.579   0.764  13.600 -0.1979  0.0557 -0.1513
 8258TIP3    H146189   3.489   0.771  13.569  0.4667  0.4096 -2.0943
 8258TIP3    H246190   3.580   0.815  13.682 -0.8877  3.5112 -2.0920
 8259TIP3   OH246191   2.321   1.380   3.813  0.5407 -0.1823  0.0279
 8259TIP3    H146192   2.352   1.335   3.891  1.6917  1.1838  0.4105
 8259TIP3    H246193   2.383   1.452   3.801  0.1680 -0.1339 -1.9313
 8260TIP3   OH246194   2.156   3.366   2.035 -0.7216  0.2111  0.1371
 8260TIP3    H146195   2.161   3.454   2.073 -0.0909  0.6581 -0.9321
 8260TIP3    H246196   2.075   3.329   2.070  0.5902 -0.0348  3.1715
 8261TIP3   OH246197   6.765   2.268   5.548 -0.3153 -0.4443  0.4012
 8261TIP3    H146198   6.816   2.225   5.616 -0.1549 -0.1310  0.4824
 8261TIP3    H246199   6.809   2.352   5.534 -0.7342 -0.2225  0.3856
 8262TIP3   OH246200   1.556   5.360  13.799 -0.0461 -0.3157  0.4298
 8262TIP3    H146201   1.566   5.375  13.893 -1.4855 -2.7843  1.0651
 8262TIP3    H246202   1.484   5.416  13.773 -1.0226 -1.1325  1.2966
 8263TIP3   OH246203   2.374   6.182  16.586  0.2710 -0.1089 -0.1211
 8263TIP3    H146204   2.366   6.230  16.669 -2.3109  0.3485 -0.5543
 8263TIP3    H246205   2.312   6.110  16.594  1.3771 -1.2118 -0.9718
 8264TIP3   OH246206   5.185   4.359  11.321  0.4293  0.1615  0.0626
 8264TIP3    H146207   5.139   4.421  11.264  0.4698 -0.1149 -0.2745
 8264TIP3    H246208   5.256   4.410  11.360  0.2173  0.4294  0.1053
 8265TIP3   OH246209   5.992   1.124  14.191  0.9043  0.4866  0.6395
 8265TIP3    H146210   5.922   1.126  14.257 -0.5307  0.6212 -0.8039
 8265TIP3    H246211   5.947   1.099  14.110  2.1664  2.4570 -0.7509
 8266TIP3   OH246212   3.614   0.337  11.430 -0.3420  0.3940  0.1826
 8266TIP3    H146213   3.564   0.318  11.509 -0.9508 -3.6149 -0.9639
 8266TIP3    H246214   3.550   0.334  11.360  0.4421  2.3850 -0.7109
 8267TIP3   OH246215   4.443   0.684   1.577 -0.1695 -0.6429  0.2891
 8267TIP3    H146216   4.520   0.733   1.548 -0.6791  0.6911  1.1005
 8267TIP3    H246217   4.375   0.705   1.513  0.1243 -1.8283 -0.4340
 8268TIP3   OH246218   1.425   5.365   4.286  0.0459  0.1655 -0.1879
 8268TIP3    H146219   1.489   5.386   4.353 -1.2342  1.8501  0.5533
 8268TIP3    H246220   1.391   5.279   4.311  1.2370 -0.2848 -0.0323
 8269TIP3   OH246221   1.038   1.697   4.538  0.5247  0.1474 -0.4324
 8269TIP3    H146222   1.038   1.642   4.616  0.3950  1.3340  0.4421
 8269TIP3    H246223   0.958   1.674   4.491  0.9951 -1.1302 -0.6512
 8270TIP3   OH246224   1.801   1.204  10.540 -0.3993  0.0682 -0.2054
 8270TIP3    H146225   1.746   1.283  10.541 -0.8646 -0.2467 -0.4716
 8270TIP3    H246226   1.882   1.231  10.498 -0.7057  0.3083 -0.6476
 8271TIP3   OH246227   6.554   2.756  12.786  0.2800 -0.2896  0.1475
 8271TIP3    H146228   6.525   2.824  12.848  0.6058  0.4282 -0.4658
 8271TIP3    H246229   6.649   2.754  12.795  0.1648 -1.9936  1.4917
 8272TIP3   OH246230   1.733   2.457   6.029 -0.2488  0.1678 -0.1241
 8272TIP3    H146231   1.653   2.425   5.987  0.3817 -0.8202 -0.6159
 8272TIP3    H246232   1.751   2.394   6.099 -0.2663  0.7710  0.4361
 8273TIP3   OH246233   6.116   4.564  14.236  0.7663 -0.2925  0.0754
 8273TIP3    H146234   6.182   4.633  14.246 -0.4702  0.9948 -0.3221
 8273TIP3    H246235   6.084   4.573  14.146  0.0773 -0.9237  0.2427
 8274TIP3   OH246236   4.052   4.557   6.443 -0.0778 -0.2719  0.1066
 8274TIP3    H146237   3.969   4.586   6.479 -0.8274 -1.5929 -0.4652
 8274TIP3    H246238   4.079   4.484   6.499  1.7538  1.3863  1.5169
 8275TIP3   OH246239   6.447   6.454   0.041  0.5086  0.5856  0.2634
 8275TIP3    H146240   6.446   6.454  -0.055 -0.5735  1.3041  0.2660
 8275TIP3    H246241   6.427   6.544   0.065  2.2446  0.7647  1.1792
 8276TIP3   OH246242   2.226   5.587   6.156 -0.0638 -0.8746 -0.4390
 8276TIP3    H146243   2.174   5.526   6.207 -0.1461  0.9967  1.9015
 8276TIP3    H246244   2.169   5.615   6.085 -0.3297 -2.7412 -1.0166
 8277TIP3   OH246245   0.286   3.805  11.771  0.2938 -0.0894  0.5057
 8277TIP3    H146246   0.292   3.841  11.860  1.8738 -1.3840  0.9632
 8277TIP3    H246247   0.344   3.860  11.719  1.5479 -0.9953  0.8949
 8278TIP3   OH246248   3.964   5.036   2.081 -0.6584  0.5575  0.3247
 8278TIP3    H146249   3.955   5.010   2.173 -2.4774 -2.2366 -0.5175
 8278TIP3    H246250   3.874   5.049   2.051 -0.3700 -1.4286 -1.7034
 8279TIP3   OH246251   3.628   4.138   6.036  0.2386  0.5580  0.7247
 8279TIP3    H146252   3.540   4.137   6.072 -0.6899 -1.9607 -1.3066
 8279TIP3    H246253   3.686   4.125   6.111 -1.2463  0.5165  1.8870
 8280TIP3   OH246254   0.829   3.047   3.715 -0.5057  0.0798  0.1654
 8280TIP3    H146255   0.790   3.132   3.736  0.6873  0.9076 -0.9113
 8280TIP3    H246256   0.835   3.003   3.800 -1.3772  0.9487  0.7049
 8281TIP3   OH246257   1.009   5.019  14.958 -0.5129 -0.6143 -0.3899
 8281TIP3    H146258   1.078   5.034  15.022  0.1890 -0.5860 -1.1272
 8281TIP3    H246259   0.950   5.094  14.967 -0.4786 -0.6690  0.2869
 8282TIP3   OH246260   5.489   3.345  15.088  0.1542 -0.1204  0.1382
 8282TIP3    H146261   5.467   3.317  15.000 -1.6595  0.5780  0.3307
 8282TIP3    H246262   5.433   3.421  15.104  0.6440 -0.0612  1.7984
 8283TIP3   OH246263   0.173   4.286  16.299 -0.2439  0.0370  0.2414
 8283TIP3    H146264   0.164   4.324  16.212 -0.1596  0.6115  0.4774
 8283TIP3    H246265   0.209   4.357  16.353  0.7540 -0.6333  0.4928
 8284TIP3   OH246266   6.234   4.780   3.202  0.1959 -0.3189  0.5598
 8284TIP3    H146267   6.198   4.819   3.282 -0.4566 -0.6755  0.4486
 8284TIP3    H246268   6.252   4.855   3.145  0.5503 -0.0707  0.9894
 8285TIP3   OH246269   5.903   4.281  16.521 -0.2969 -0.0881  0.0172
 8285TIP3    H146270   5.882   4.368  16.556 -0.3641 -0.3645  0.6841
 8285TIP3    H246271   5.909   4.294  16.427 -1.3152  0.4373  0.0107
 8286TIP3   OH246272   2.652   0.519  13.716 -0.1208  0.4830 -0.4123
 8286TIP3    H146273   2.689   0.586  13.658  2.4524  0.1921  0.7525
 8286TIP3    H246274   2.662   0.556  13.804  1.7688 -1.4820  0.3068
 8287TIP3   OH246275   1.660   4.217  12.847 -0.5243 -0.2855  0.6017
 8287TIP3    H146276   1.664   4.279  12.774 -0.4593  0.3819  1.1689
 8287TIP3    H246277   1.751   4.197  12.866 -0.4627  0.7822  1.5351
 8288TIP3   OH246278   3.721   5.937   5.933  0.5254  0.6141 -0.0096
 8288TIP3    H146279   3.803   5.985   5.926  0.4480  0.7796  0.2251
 8288TIP3    H246280   3.653   6.001   5.911  0.4652  0.4557 -0.2839
 8289TIP3   OH246281   5.336   6.292  13.565 -0.0020  0.2455  0.1951
 8289TIP3    H146282   5.392   6.246  13.502 -0.1979  0.0011  0.1964
 8289TIP3    H246283   5.341   6.239  13.645  0.1939  0.5180  0.3654
 8290TIP3   OH246284   1.422   5.977   2.630  0.0886 -0.0507 -0.4125
 8290TIP3    H146285   1.481   5.939   2.564 -0.2452 -0.3589 -0.5350
 8290TIP3    H246286   1.477   6.041   2.676  0.7130 -0.8066 -0.0812
 8291TIP3   OH246287   0.650   0.973   6.049  0.4519  0.2543  0.1950
 8291TIP3    H146288   0.645   1.039   5.980  0.4964  1.3351  1.1857
 8291TIP3    H246289   0.561   0.939   6.057  0.4934 -0.0272 -0.5311
 8292TIP3   OH246290   1.699   6.609   4.721  0.1978  0.1227  0.2051
 8292TIP3    H146291   1.626   6.670   4.711 -0.3125 -0.8233 -2.5392
 8292TIP3    H246292   1.666   6.543   4.782 -0.8823  0.2205 -0.2594
 8293TIP3   OH246293   0.715   0.549  14.348 -0.3271 -0.6049 -0.2744
 8293TIP3    H146294   0.657   0.502  14.409 -1.7902  1.7913  0.3218
 8293TIP3    H246295   0.774   0.598  14.405 -0.5877  0.3403 -0.8011
 8294TIP3   OH246296   3.532   3.744  16.908 -0.4345 -0.0446  0.0884
 8294TIP3    H146297   3.566   3.740  16.818  0.6467  0.9893  0.4151
 8294TIP3    H246298   3.539   3.836  16.931 -0.1208 -0.3945  1.4505
 8295TIP3   OH246299   4.655   4.426  12.072 -0.2503 -0.6459 -0.0534
 8295TIP3    H146300   4.561   4.414  12.088 -0.1345 -3.2620 -0.8267
 8295TIP3    H246301   4.665   4.407  11.979  0.9734  0.4892 -0.1787
 8296TIP3   OH246302   5.167   3.351   2.538  0.0261  0.0368 -0.1594
 8296TIP3    H146303   5.090   3.364   2.482 -0.4261 -1.5186  0.0404
 8296TIP3    H246304   5.218   3.284   2.493  2.2531  2.3047 -1.2107
 8297TIP3   OH246305   2.523   3.177  11.637 -0.7241  0.1569 -0.1948
 8297TIP3    H146306   2.601   3.208  11.590 -0.1642  1.8689  1.7283
 8297TIP3    H246307   2.451   3.193  11.576  0.3049 -1.0590 -1.8519
 8298TIP3   OH246308   2.309   6.479  14.460 -0.2755  0.5490 -0.2276
 8298TIP3    H146309   2.397   6.461  14.493 -0.3070  0.7658 -0.0257
 8298TIP3    H246310   2.321   6.494  14.366 -0.2397 -0.4831 -0.4028
 8299TIP3   OH246311   5.594   6.600   1.849 -0.2711  0.3316 -0.1934
 8299TIP3    H146312   5.602   6.551   1.768  1.6161  0.4705 -0.1364
 8299TIP3    H246313   5.682   6.635   1.865 -0.1634 -0.9691  2.7034
 8300TIP3   OH246314   3.314   6.317  11.061  0.1612 -0.0706  0.2009
 8300TIP3    H146315   3.359   6.335  11.144  2.3534 -3.1398 -0.1720
 8300TIP3    H246316   3.232   6.275  11.086 -0.3578  1.2164  0.7820
 8301TIP3   OH246317   1.698   5.585  15.371  0.1077  0.7777 -0.2967
 8301TIP3    H146318   1.681   5.673  15.403 -0.2293  0.5745  0.0982
 8301TIP3    H246319   1.666   5.528  15.441  2.3118  0.3540  0.4475
 8302TIP3   OH246320   1.402   4.555  13.516  0.1757 -0.2327 -0.0729
 8302TIP3    H146321   1.353   4.474  13.533  0.5612  0.0199  2.5335
 8302TIP3    H246322   1.347   4.603  13.454 -1.2459 -1.4142  0.2106
 8303TIP3   OH246323   1.677   0.265  17.252  0.2556 -0.1381 -0.0470
 8303TIP3    H146324   1.654   0.319  17.176  0.2784 -1.8208 -1.3080
 8303TIP3    H246325   1.595   0.222  17.276 -0.0479  1.3068  1.7302
 8304TIP3   OH246326   5.934   0.838   0.500 -0.3663 -0.2205 -0.6830
 8304TIP3    H146327   5.986   0.891   0.440 -0.4691  2.0638  1.1012
 8304TIP3    H246328   5.843   0.864   0.484 -0.4189  0.2154  0.2417
 8305TIP3   OH246329   5.175   6.744  15.259  0.3037 -0.7536 -0.1495
 8305TIP3    H146330   5.158   6.834  15.230  2.4127 -0.6598 -1.3072
 8305TIP3    H246331   5.123   6.689  15.201  1.0770 -0.3554 -1.2492
 8306TIP3   OH246332   6.539   5.730   4.540 -0.3557 -0.2535 -0.3565
 8306TIP3    H146333   6.474   5.670   4.504 -1.2051  0.6995 -0.4588
 8306TIP3    H246334   6.618   5.716   4.487 -1.0021 -0.2248 -1.3473
 8307TIP3   OH246335   3.540   3.264  14.215 -0.5986  0.8490  0.6694
 8307TIP3    H146336   3.453   3.260  14.256 -0.1336  0.6381  1.6500
 8307TIP3    H246337   3.585   3.336  14.259  0.4486 -0.3576  1.6648
 8308TIP3   OH246338   0.702   6.635   0.251 -0.0736 -0.3214  0.1734
 8308TIP3    H146339   0.668   6.571   0.314 -1.0917  0.3427  0.3265
 8308TIP3    H246340   0.634   6.702   0.246 -0.1112 -0.4428 -1.7828
 8309TIP3   OH246341   4.085   4.317   2.552  0.2931 -0.2492  0.2536
 8309TIP3    H146342   4.102   4.246   2.491  0.9942  0.9784 -1.0500
 8309TIP3    H246343   4.152   4.383   2.532  1.1668 -0.1843  3.0240
 8310TIP3   OH246344   0.048   3.661  12.977 -0.0820  0.6267  0.1337
 8310TIP3    H146345  -0.035   3.709  12.974 -0.3060  0.2033 -2.3295
 8310TIP3    H246346   0.073   3.664  13.069 -2.5019  1.3123  0.8573
 8311TIP3   OH246347   3.412   1.294   0.345  0.0568 -0.1909  0.0278
 8311TIP3    H146348   3.354   1.303   0.421 -2.4770  0.2177 -1.7971
 8311TIP3    H246349   3.362   1.240   0.284  1.6942  0.0827 -1.6418
 8312TIP3   OH246350   6.351   1.071  13.208 -0.3841 -0.5921 -0.1885
 8312TIP3    H146351   6.283   1.124  13.166 -0.8479  0.2000  1.4669
 8312TIP3    H246352   6.432   1.119  13.192 -0.3661 -0.9316 -1.1751
 8313TIP3   OH246353   1.479   2.129  11.921 -0.1822 -0.0819  0.3468
 8313TIP3    H146354   1.460   2.050  11.870 -0.6406 -0.4258  1.0399
 8313TIP3    H246355   1.474   2.201  11.857  0.0266 -0.5808 -0.2426
 8314TIP3   OH246356   2.215   5.138  10.609 -0.2066 -0.2422 -0.0175
 8314TIP3    H146357   2.150   5.199  10.574 -0.1391 -0.3699 -0.3723
 8314TIP3    H246358   2.295   5.190  10.617 -0.3618 -0.0724  0.4627
 8315TIP3   OH246359   5.761   1.514  11.359 -0.2401 -0.3587 -0.2744
 8315TIP3    H146360   5.707   1.435  11.358 -0.0493 -0.4906 -1.5151
 8315TIP3    H246361   5.820   1.504  11.285  0.0625  0.7646 -0.2040
 8316TIP3   OH246362   2.680   0.205  14.113 -0.5692 -0.4020  0.1642
 8316TIP3    H146363   2.639   0.140  14.057 -0.0161 -0.8807  0.3053
 8316TIP3    H246364   2.609   0.266  14.136 -0.2598  1.6890 -3.6307
 8317TIP3   OH246365   3.524   6.451  15.645  0.0830 -0.0377 -0.6191
 8317TIP3    H146366   3.449   6.451  15.705  0.0105 -1.6874 -0.6650
 8317TIP3    H246367   3.601   6.449  15.703  0.0077 -2.2518 -0.5084
 8318TIP3   OH246368   1.909   6.470   3.292  0.6422  0.1663 -0.1820
 8318TIP3    H146369   1.934   6.561   3.311  0.5052 -0.1650  1.8755
 8318TIP3    H246370   1.842   6.450   3.358  1.2999 -1.6953 -0.0255
 8319TIP3   OH246371   6.651   5.879   1.667  0.0126 -0.0289  0.0951
 8319TIP3    H146372   6.707   5.851   1.595 -1.4213 -2.5752 -0.1495
 8319TIP3    H246373   6.573   5.916   1.625  0.4070  1.2308  0.4143
 8320TIP3   OH246374   2.627   1.944  11.441 -0.3950  0.3159 -0.1136
 8320TIP3    H146375   2.636   1.916  11.532  0.3615 -0.4738 -0.4130
 8320TIP3    H246376   2.547   1.996  11.439 -0.8928 -0.3851  0.8367
 8321TIP3   OH246377   4.514   2.473  12.822 -0.0235  0.2297 -0.7062
 8321TIP3    H146378   4.525   2.567  12.834  2.5788 -0.1284  0.2703
 8321TIP3    H246379   4.471   2.465  12.737 -1.2275  2.2796 -0.3792
 8322TIP3   OH246380   6.502   4.474   1.154 -0.1265  0.0345 -0.0928
 8322TIP3    H146381   6.580   4.521   1.184  0.6780 -0.6281 -1.0862
 8322TIP3    H246382   6.496   4.495   1.061 -0.4066 -0.9229 -0.2967
 8323TIP3   OH246383   4.671   2.394   2.361  0.3769 -0.1129 -0.1753
 8323TIP3    H146384   4.720   2.449   2.299  0.2917 -1.4787 -1.5206
 8323TIP3    H246385   4.581   2.426   2.356  0.8365  1.5776  1.3587
 8324TIP3   OH246386   0.303   0.842   2.743  0.1172  0.1282 -0.3599
 8324TIP3    H146387   0.391   0.854   2.779 -1.1734  2.4273  2.5243
 8324TIP3    H246388   0.260   0.784   2.805 -0.7409  0.0223 -1.0500
 8325TIP3   OH246389   6.149   3.398   0.755  0.2664  0.7014  0.8816
 8325TIP3    H146390   6.213   3.467   0.736  0.4511  0.4080  0.4085
 8325TIP3    H246391   6.196   3.316   0.736 -0.5045  0.5063 -0.3123
 8326TIP3   OH246392   4.828   4.404   2.741  0.4372  0.0670  0.0904
 8326TIP3    H146393   4.828   4.481   2.799 -1.9762  0.9285 -0.9151
 8326TIP3    H246394   4.919   4.374   2.742  1.1122  1.8822  1.8854
 8327TIP3   OH246395   2.327   4.739   4.642  0.0214  0.4429  0.2465
 8327TIP3    H146396   2.265   4.728   4.570  0.7215 -1.4234 -0.1251
 8327TIP3    H246397   2.413   4.743   4.599  0.4042 -0.1518  0.9428
 8328TIP3   OH246398   4.628   3.943  13.937 -0.3359  0.1484 -0.0383
 8328TIP3    H146399   4.699   3.892  13.978 -1.4114 -0.4394  1.1645
 8328TIP3    H246400   4.572   3.969  14.010 -1.0864  1.0699 -0.9074
 8329TIP3   OH246401   1.565   4.303   2.061 -0.3253 -0.5106  0.0965
 8329TIP3    H146402   1.522   4.360   1.997 -1.3072 -1.8207 -0.4599
 8329TIP3    H246403   1.495   4.247   2.093  1.0112 -3.1689 -1.3103
 8330TIP3   OH246404   2.017   3.626  12.380 -0.3235 -0.3619 -0.2687
 8330TIP3    H146405   1.939   3.659  12.426  1.5178 -0.6961  3.5345
 8330TIP3    H246406   2.052   3.702  12.335 -0.1681  1.1929  2.2517
 8331TIP3   OH246407   6.270   1.179  13.849  0.1045 -0.9396  0.0078
 8331TIP3    H146408   6.261   1.263  13.804  1.2864 -1.1767 -0.7019
 8331TIP3    H246409   6.288   1.116  13.779  1.9309 -1.3361  0.7823
 8332TIP3   OH246410   1.071   5.382  15.869  0.2387  0.0593 -0.2689
 8332TIP3    H146411   1.029   5.456  15.911  1.0492 -0.5638  1.7860
 8332TIP3    H246412   0.999   5.334  15.827 -0.4889  1.1866 -0.3466
 8333TIP3   OH246413   2.982   3.755   4.865 -0.0894 -0.2143 -0.2661
 8333TIP3    H146414   3.025   3.811   4.800  2.0540 -0.7027  0.6419
 8333TIP3    H246415   2.991   3.666   4.830 -0.2902 -0.3367 -0.0157
 8334TIP3   OH246416   0.704   0.254   3.402  0.0965  0.3041  0.1425
 8334TIP3    H146417   0.737   0.341   3.427 -1.2182  1.3980 -1.6419
 8334TIP3    H246418   0.733   0.196   3.472  1.9126  1.9810  0.8910
 8335TIP3   OH246419   6.338   5.559   1.017  0.5696 -0.0073 -0.6298
 8335TIP3    H146420   6.373   5.639   1.055 -0.8629  0.7748 -0.9166
 8335TIP3    H246421   6.393   5.544   0.940  0.2586  1.2395 -1.1175
 8336TIP3   OH246422   5.309   4.130  11.239  0.2168  0.0412  0.9946
 8336TIP3    H146423   5.344   4.168  11.158 -0.5134 -1.0011  0.1671
 8336TIP3    H246424   5.251   4.197  11.274 -0.2484  0.1135  0.1119
 8337TIP3   OH246425   2.950   2.581  14.552 -0.6692  0.4272  0.2904
 8337TIP3    H146426   3.033   2.629  14.554 -1.5732  2.0293  1.7989
 8337TIP3    H246427   2.939   2.548  14.641 -0.1455 -2.6041 -0.6651
 8338TIP3   OH246428   3.807   6.634  15.478  0.3358 -0.0425  0.1085
 8338TIP3    H146429   3.826   6.545  15.508 -0.7677 -0.5434 -0.6063
 8338TIP3    H246430   3.714   6.632  15.454 -0.1749  1.7686  1.6688
 8339TIP3   OH246431   6.351   1.671   2.960  0.2758  0.2001  0.1331
 8339TIP3    H146432   6.302   1.746   2.928  0.8233 -0.0333 -1.3769
 8339TIP3    H246433   6.437   1.679   2.918  0.8694 -0.4340  1.1793
 8340TIP3   OH246434   3.666   3.722   6.050 -0.4399 -0.0170  0.0512
 8340TIP3    H146435   3.592   3.769   6.089 -0.3660  0.1126  0.0371
 8340TIP3    H246436   3.637   3.700   5.962 -1.1648 -1.5917  0.6446
 8341TIP3   OH246437   6.308   2.593   3.825 -0.6740 -0.2769 -0.4222
 8341TIP3    H146438   6.373   2.546   3.877  0.8242  0.0658 -1.9124
 8341TIP3    H246439   6.317   2.558   3.737 -0.4786  1.7842 -1.2777
 8342TIP3   OH246440   2.218   3.694   1.124  0.0408  0.6783 -0.1944
 8342TIP3    H146441   2.272   3.709   1.201 -0.4213  0.5357  0.1642
 8342TIP3    H246442   2.150   3.634   1.154  0.3060 -0.0042 -0.9126
 8343TIP3   OH246443   5.408   1.694   5.382 -0.1581  0.2887  0.4339
 8343TIP3    H146444   5.318   1.728   5.385 -0.9342 -1.6426  0.2431
 8343TIP3    H246445   5.424   1.662   5.471  0.3245  0.5428  0.4428
 8344TIP3   OH246446   1.306   2.354  11.446 -1.0758 -0.2469  0.1936
 8344TIP3    H146447   1.222   2.323  11.480 -1.9158  1.6139 -0.0583
 8344TIP3    H246448   1.296   2.349  11.350 -1.5869  1.5510  0.1175
 8345TIP3   OH246449   0.548   1.274  16.694  0.1291  0.1943 -0.3629
 8345TIP3    H146450   0.474   1.312  16.742 -0.0771  1.7068 -1.7668
 8345TIP3    H246451   0.623   1.285  16.752 -0.8301 -2.1407  1.4479
 8346TIP3   OH246452   3.005   4.745  12.833  0.4893  0.3399 -0.1337
 8346TIP3    H146453   2.956   4.764  12.913 -0.6739  2.2493 -1.2478
 8346TIP3    H246454   2.980   4.655  12.811 -1.0414  0.6146  0.3672
 8347TIP3   OH246455   1.130   0.496   5.909 -0.5452  0.0288  0.4175
 8347TIP3    H146456   1.138   0.587   5.882  0.6310 -0.0044  0.5684
 8347TIP3    H246457   1.073   0.456   5.844  0.0989  0.5499 -0.5025
 8348TIP3   OH246458   3.351   0.369   3.777  0.1709 -0.8785  0.2790
 8348TIP3    H146459   3.374   0.278   3.757  2.1086 -0.4278  0.2211
 8348TIP3    H246460   3.426   0.402   3.827 -0.8448  0.4662  0.9611
 8349TIP3   OH246461   0.102   5.373   2.999  0.6821 -0.4754 -0.0254
 8349TIP3    H146462   0.073   5.368   3.090  2.1156 -0.2296  0.4607
 8349TIP3    H246463   0.058   5.451   2.964  0.9134  0.0112  0.7508
 8350TIP3   OH246464   3.486   3.361  16.778 -0.2568 -0.3049  0.0611
 8350TIP3    H146465   3.434   3.376  16.699 -0.7205 -0.3454  0.3530
 8350TIP3    H246466   3.446   3.284  16.819 -0.7633  0.3994  0.9298
 8351TIP3   OH246467   2.626   5.543   3.065  0.2756 -0.5518  0.4744
 8351TIP3    H146468   2.618   5.588   2.981  0.4375 -1.9658 -0.3340
 8351TIP3    H246469   2.580   5.599   3.127  0.1771  0.5323 -0.5507
 8352TIP3   OH246470   6.241   1.453   2.016 -0.3859 -0.5142  0.2649
 8352TIP3    H146471   6.293   1.522   2.057  1.3413 -2.2677  1.1888
 8352TIP3    H246472   6.202   1.405   2.089  1.3706 -2.6516 -0.0614
 8353TIP3   OH246473   5.117   3.650   0.918 -0.1694 -0.6340 -0.6577
 8353TIP3    H146474   5.176   3.659   0.993 -0.5449 -1.0885 -0.3049
 8353TIP3    H246475   5.166   3.687   0.845  0.6541 -1.2300 -0.4216
 8354TIP3   OH246476   2.627   4.450  16.867 -0.0609  0.4970  0.0183
 8354TIP3    H146477   2.709   4.473  16.825 -0.4400 -0.6545 -1.4232
 8354TIP3    H246478   2.569   4.424  16.795 -0.6724 -1.7490  1.2399
 8355TIP3   OH246479   1.057   4.031  13.085 -0.0267  0.0007 -0.4636
 8355TIP3    H146480   1.106   4.011  13.005 -0.0043 -0.0938 -0.4270
 8355TIP3    H246481   0.966   4.009  13.063  0.0872 -0.7297 -0.2224
 8356TIP3   OH246482   0.230   0.373  14.727 -0.2483  0.1719  0.1763
 8356TIP3    H146483   0.158   0.430  14.701 -0.4155 -0.8021 -1.7184
 8356TIP3    H246484   0.245   0.318  14.650  0.9356 -1.2658  1.3753
 8357TIP3   OH246485   2.427   6.155  13.548  0.4288 -0.0186 -0.6185
 8357TIP3    H146486   2.345   6.106  13.549  0.8766 -0.7865  0.7691
 8357TIP3    H246487   2.407   6.234  13.497 -1.1847 -0.1519 -0.2401
 8358TIP3   OH246488   6.013   1.720   3.223  0.0577 -0.5879 -1.3963
 8358TIP3    H146489   5.926   1.708   3.186 -0.6810 -0.2646  0.1582
 8358TIP3    H246490   6.021   1.651   3.289 -0.2294  1.1453  0.5488
 8359TIP3   OH246491   4.147   1.413   1.572  0.7089 -0.7930 -0.2870
 8359TIP3    H146492   4.157   1.374   1.659  1.1896 -1.2162 -0.5223
 8359TIP3    H246493   4.215   1.480   1.568 -2.0657  2.3600  1.2940
 8360TIP3   OH246494   4.703   6.732   0.548 -0.1696  0.4676 -0.7878
 8360TIP3    H146495   4.738   6.686   0.624 -0.4963  0.9963 -0.3093
 8360TIP3    H246496   4.723   6.675   0.473  1.1342  0.4439 -0.4497
 8361TIP3   OH246497   2.667   3.928  17.070 -0.9320 -0.1733  0.0698
 8361TIP3    H146498   2.633   3.844  17.100 -1.9908 -0.5159 -1.9117
 8361TIP3    H246499   2.590   3.983  17.056 -0.3481  0.6515 -0.0316
 8362TIP3   OH246500   6.655   6.565  14.481 -0.3234 -0.0062 -0.1778
 8362TIP3    H146501   6.664   6.470  14.473 -0.1913  0.0776 -1.0995
 8362TIP3    H246502   6.643   6.580  14.575  0.0042 -0.9032  0.0170
 8363TIP3   OH246503   1.005   5.348   1.545  0.2523 -0.2214 -0.1729
 8363TIP3    H146504   0.930   5.288   1.549  0.3254 -0.2894  0.2608
 8363TIP3    H246505   1.012   5.372   1.453  1.0036 -1.8940 -0.5957
 8364TIP3   OH246506   4.245   5.848   6.228 -0.5830 -0.4058  0.5770
 8364TIP3    H146507   4.204   5.919   6.278 -0.3416 -0.0842  0.3288
 8364TIP3    H246508   4.338   5.869   6.229 -0.7549  0.8413 -1.8236
 8365TIP3   OH246509   0.263   5.208  14.686 -0.0705 -0.1651 -0.3584
 8365TIP3    H146510   0.348   5.191  14.644 -0.2428 -1.6870 -0.1351
 8365TIP3    H246511   0.278   5.189  14.778 -0.8714 -1.3191 -0.4489
 8366TIP3   OH246512   2.207   4.025   1.689  0.6183 -0.0761 -0.5851
 8366TIP3    H146513   2.253   3.941   1.696  2.0569  0.7986  1.4695
 8366TIP3    H246514   2.267   4.081   1.640 -0.4606 -0.2552 -2.2062
 8367TIP3   OH246515   3.425   4.897   1.607  0.9073 -1.5014 -0.1528
 8367TIP3    H146516   3.441   4.951   1.529  0.3912  1.0762  1.4209
 8367TIP3    H246517   3.336   4.919   1.634  0.6534 -3.2210  0.5521
 8368TIP3   OH246518   3.081   4.161   3.794  0.3767  0.2541 -0.2787
 8368TIP3    H146519   3.070   4.078   3.841 -0.8734  0.4676 -0.1660
 8368TIP3    H246520   3.026   4.152   3.716  0.4802  0.8613 -0.4256
 8369TIP3   OH246521   0.420   2.423  12.106 -0.2031  0.4874  0.5245
 8369TIP3    H146522   0.381   2.482  12.170 -0.2313 -0.2748  1.2312
 8369TIP3    H246523   0.513   2.418  12.132  0.1275  1.3729 -0.4341
 8370TIP3   OH246524   3.799   0.202  11.587  0.5186  0.0683  0.1075
 8370TIP3    H146525   3.755   0.244  11.513  0.4540 -0.1039  0.0486
 8370TIP3    H246526   3.728   0.184  11.649  0.8695  2.5667  1.3737
 8371TIP3   OH246527   5.782   5.704  16.132 -0.3194  0.0469 -0.1286
 8371TIP3    H146528   5.851   5.644  16.103 -0.8036 -0.1540 -0.9192
 8371TIP3    H246529   5.827   5.766  16.189 -0.2590 -2.6025  2.9958
 8372TIP3   OH246530   2.242   0.093  15.240 -0.3407  0.3463 -0.1111
 8372TIP3    H146531   2.225   0.012  15.191 -1.0148  0.9527 -0.8900
 8372TIP3    H246532   2.186   0.159  15.199 -0.2237  1.0868  0.8849
 8373TIP3   OH246533   5.459   1.562   1.271 -0.0971 -0.3026  0.3595
 8373TIP3    H146534   5.454   1.473   1.236  0.4859 -0.2778  0.2011
 8373TIP3    H246535   5.385   1.607   1.232 -0.5913 -0.8047  0.6960
 8374TIP3   OH246536   4.746   2.862   1.351 -0.1883 -0.3827 -0.0262
 8374TIP3    H146537   4.730   2.775   1.388  1.0838 -1.1780 -1.2274
 8374TIP3    H246538   4.802   2.905   1.416  2.1034 -1.7991 -0.8948
 8375TIP3   OH246539   5.720   3.178  14.945  0.3607 -0.1378 -0.5329
 8375TIP3    H146540   5.770   3.137  15.015 -0.7298 -0.1163  0.2933
 8375TIP3    H246541   5.743   3.270  14.950  0.3538 -0.1493 -0.2475
 8376TIP3   OH246542   0.698   4.954  13.887 -0.4474  0.4341 -0.3826
 8376TIP3    H146543   0.750   4.953  13.967 -0.4680  1.3014 -0.3519
 8376TIP3    H246544   0.608   4.943  13.918 -0.3238 -0.9903 -0.4311
 8377TIP3   OH246545   3.796   6.432   2.566  0.0040 -0.0239 -0.1022
 8377TIP3    H146546   3.832   6.501   2.511  0.4580  0.8546  1.2723
 8377TIP3    H246547   3.748   6.477   2.635 -0.4028 -1.1000  0.3504
 8378TIP3   OH246548   1.905   6.259   5.359  0.4009 -0.3213  0.6697
 8378TIP3    H146549   1.988   6.294   5.324  1.0398 -2.4781 -0.1519
 8378TIP3    H246550   1.859   6.226   5.282 -0.5499 -0.4874  1.2961
 8379TIP3   OH246551   1.276   0.548   4.589  0.0947 -0.6011  0.5512
 8379TIP3    H146552   1.348   0.589   4.542 -0.2759 -1.5834 -0.9692
 8379TIP3    H246553   1.198   0.593   4.556 -0.1360 -0.9634  0.5960
 8380TIP3   OH246554   0.457   5.465  16.138 -0.4995  0.4277 -0.0859
 8380TIP3    H146555   0.527   5.528  16.122  0.7045 -0.4955  1.3260
 8380TIP3    H246556   0.427   5.484  16.227  0.3476 -1.3650  0.6271
 8381TIP3   OH246557   0.859   0.960  12.454  0.3289 -0.1441  0.5185
 8381TIP3    H146558   0.836   0.907  12.530  0.5176  1.0391  1.4436
 8381TIP3    H246559   0.852   1.051  12.486 -0.3987  0.4044 -1.1147
 8382TIP3   OH246560   1.024   2.763  14.906  0.2812 -0.0166  0.4332
 8382TIP3    H146561   0.946   2.818  14.914  0.3182  0.3405 -1.1779
 8382TIP3    H246562   1.034   2.749  14.812  1.0092 -1.7586  0.7190
 8383TIP3   OH246563   5.581   6.080  16.280 -0.0660 -0.3889  0.7628
 8383TIP3    H146564   5.566   6.010  16.344 -0.1913 -0.5783  0.5269
 8383TIP3    H246565   5.652   6.047  16.224  0.1404 -0.1636  0.8913
 8384TIP3   OH246566   5.466   3.749  15.727 -0.0620 -0.8146  0.2405
 8384TIP3    H146567   5.535   3.816  15.729  0.8435 -1.6861 -0.9864
 8384TIP3    H246568   5.400   3.785  15.668  0.2382 -0.8231 -0.1034
 8385TIP3   OH246569   1.280   4.310  13.495  0.6312 -0.4575  0.1397
 8385TIP3    H146570   1.227   4.332  13.418  2.6777  0.5429 -1.0686
 8385TIP3    H246571   1.260   4.218  13.512 -0.7222 -0.3846 -0.8653
 8386TIP3   OH246572   4.419   4.136   1.547  0.3683 -0.2090 -0.0528
 8386TIP3    H146573   4.435   4.069   1.480 -2.5835 -0.7298 -0.3518
 8386TIP3    H246574   4.476   4.111   1.620  0.4842 -2.1323 -0.7495
 8387TIP3   OH246575   0.800   4.876  12.386  0.2228  0.3008  0.2438
 8387TIP3    H146576   0.739   4.940  12.348  1.2525  0.9209 -0.4027
 8387TIP3    H246577   0.746   4.824  12.445 -1.0926  0.3592 -0.8613
 8388TIP3   OH246578   0.384   5.154   2.180 -0.7176 -0.0155  0.3670
 8388TIP3    H146579   0.435   5.202   2.245 -1.2080 -0.3254  0.9960
 8388TIP3    H246580   0.395   5.062   2.203  0.8000 -0.2975 -1.2608
 8389TIP3   OH246581   5.418   5.253  12.620  0.4906 -0.0810  0.3249
 8389TIP3    H146582   5.341   5.308  12.628 -0.0288 -0.9203  1.3535
 8389TIP3    H246583   5.448   5.266  12.530  0.8312  2.4291  0.7300
 8390TIP3   OH246584   5.265   3.981  16.597 -0.2472 -0.1278  0.0102
 8390TIP3    H146585   5.214   4.031  16.660  0.0885  0.6006 -0.2808
 8390TIP3    H246586   5.308   3.913  16.649  1.1097  1.2895  0.8346
 8391TIP3   OH246587   5.611   3.245  13.907 -0.6045 -0.5778 -0.5853
 8391TIP3    H146588   5.559   3.286  13.976 -0.5393  0.3630 -1.0730
 8391TIP3    H246589   5.660   3.176  13.952  1.9692  2.0742  1.0631
 8392TIP3   OH246590   6.207   4.068   3.951 -0.3693  0.4990 -0.1883
 8392TIP3    H146591   6.230   3.980   3.982 -0.8813 -0.1010 -1.4749
 8392TIP3    H246592   6.206   4.121   4.031 -0.0499 -0.6531  0.6106
 8393TIP3   OH246593   1.014   2.055   3.379  0.1097 -0.4303 -0.3493
 8393TIP3    H146594   1.092   2.078   3.328  0.0400 -0.3590 -0.4249
 8393TIP3    H246595   0.982   1.974   3.339 -1.5818  1.0617 -2.3135
 8394TIP3   OH246596   4.627   5.163  15.689  0.2848 -0.4131  0.2322
 8394TIP3    H146597   4.624   5.246  15.642 -0.3447 -1.1805 -1.1803
 8394TIP3    H246598   4.718   5.134  15.680  1.4796  1.6828  3.7650
 8395TIP3   OH246599   6.778   2.849  15.200 -0.4037 -0.1823 -0.1720
 8395TIP3    H146600   6.798   2.830  15.292  1.7716  2.0281 -0.1012
 8395TIP3    H246601   6.816   2.775  15.152 -0.0082 -0.4929  0.5994
 8396TIP3   OH246602   1.608   0.980  10.529  0.5594  0.0996 -0.0929
 8396TIP3    H146603   1.674   1.050  10.530  0.2471  0.3937  1.1069
 8396TIP3    H246604   1.562   0.989  10.612 -0.6674 -0.4258 -0.6928
 8397TIP3   OH246605   4.102   1.535  13.130  0.1446  0.3519  0.0722
 8397TIP3    H146606   4.024   1.526  13.184  0.7233 -0.7653  0.7572
 8397TIP3    H246607   4.161   1.590  13.181  0.5164 -0.3284  0.3777
 8398TIP3   OH246608   5.590   0.134  14.628  0.0719 -0.5441 -0.4389
 8398TIP3    H146609   5.635   0.186  14.562  0.7636 -0.8788 -0.2406
 8398TIP3    H246610   5.515   0.095  14.582  0.5170 -0.7311 -1.0060
 8399TIP3   OH246611   5.977   2.563   2.350 -0.7510 -0.5998 -0.2420
 8399TIP3    H146612   5.933   2.631   2.402  2.8594  1.8398 -0.0388
 8399TIP3    H246613   5.973   2.596   2.260 -1.1648 -1.4387 -0.5348
 8400TIP3   OH246614   0.953   0.632  17.186  0.2983  0.3056 -0.1817
 8400TIP3    H146615   0.983   0.565  17.247 -0.9576  0.4073  0.5820
 8400TIP3    H246616   1.033   0.671  17.152  1.0313 -0.2252  0.8777
 8401TIP3   OH246617   6.178   4.595  14.555 -0.3493  1.0709  0.1549
 8401TIP3    H146618   6.163   4.527  14.489 -1.1262 -0.7834  2.1283
 8401TIP3    H246619   6.256   4.567  14.602 -1.5828  0.6103  2.0325
 8402TIP3   OH246620   2.379   2.316   4.094 -0.1328  0.3366  0.7241
 8402TIP3    H146621   2.294   2.350   4.121 -0.1414 -0.0839  1.2344
 8402TIP3    H246622   2.403   2.370   4.019 -0.4423  1.0438  1.1202
 8403TIP3   OH246623   3.600   2.844   6.856  0.0399  0.5248 -0.1713
 8403TIP3    H146624   3.677   2.838   6.913 -0.1982  2.1612  0.3752
 8403TIP3    H246625   3.587   2.754   6.825  1.0756 -0.1412  1.1660
 8404TIP3   OH246626   3.130   6.633   0.202 -0.6116  0.3351  0.0379
 8404TIP3    H146627   3.138   6.641   0.297 -0.4920  0.3123  0.0298
 8404TIP3    H246628   3.036   6.628   0.186 -0.6038 -0.4859  0.2163
 8405TIP3   OH246629   2.580   6.712   1.000 -0.5998  0.4521  0.8182
 8405TIP3    H146630   2.501   6.737   0.953 -0.4979 -0.5958  0.0436
 8405TIP3    H246631   2.551   6.642   1.060 -0.4467  0.7690  1.2703
 8406TIP3   OH246632   5.559   6.235  16.026  0.1848 -0.1017 -0.0090
 8406TIP3    H146633   5.535   6.163  16.085  2.4385 -1.8871 -1.1053
 8406TIP3    H246634   5.653   6.247  16.040  0.5202  0.3368 -2.2366
 8407TIP3   OH246635   0.221   4.562   0.649  0.2449 -0.0142  0.1290
 8407TIP3    H146636   0.311   4.543   0.622  0.0531 -0.7887  0.0204
 8407TIP3    H246637   0.209   4.655   0.628  0.8324 -0.0467 -0.3817
 8408TIP3   OH246638   6.764   5.023  15.168  0.0393  0.2002 -0.1377
 8408TIP3    H146639   6.702   4.959  15.134 -0.7131  1.3840 -1.0963
 8408TIP3    H246640   6.712   5.102  15.185  0.4697 -0.1209  3.4098
 8409TIP3   OH246641   6.061   1.311  11.638 -0.0520 -0.7505 -0.1726
 8409TIP3    H146642   6.076   1.383  11.700  1.6592 -0.9466 -0.3206
 8409TIP3    H246643   6.144   1.264  11.635 -0.0046 -0.6466 -2.7285
 8410TIP3   OH246644   1.399   3.268   5.655  0.2389  0.4561  0.3313
 8410TIP3    H146645   1.339   3.202   5.687  0.5208 -0.3492 -0.7533
 8410TIP3    H246646   1.441   3.303   5.734  0.3408 -0.9086  0.9063
 8411TIP3   OH246647   2.761   6.304   0.328 -0.5050  0.3721  0.0716
 8411TIP3    H146648   2.671   6.271   0.335 -0.4922  0.5695  1.7473
 8411TIP3    H246649   2.813   6.243   0.380  0.3283  0.3008 -0.8253
 8412TIP3   OH246650   1.681   0.807  12.025 -0.5123  0.3745 -0.6436
 8412TIP3    H146651   1.606   0.861  12.000 -1.3319 -1.7598 -3.3375
 8412TIP3    H246652   1.753   0.840  11.970 -0.0316  0.9692  0.3120
 8413TIP3   OH246653   1.800   2.972   2.542 -0.2351 -0.4484  0.1656
 8413TIP3    H146654   1.734   3.000   2.606 -0.4569 -0.0292 -0.2466
 8413TIP3    H246655   1.869   2.932   2.596 -0.0036  0.6874  0.7641
 8414TIP3   OH246656   0.548   2.480  11.346  0.8779 -0.1858  0.4176
 8414TIP3    H146657   0.555   2.508  11.254 -0.0372 -1.5595 -0.1062
 8414TIP3    H246658   0.458   2.499  11.370  0.8571 -0.6675  0.7398
 8415TIP3   OH246659   5.695   1.930   4.562  0.4080  0.7183  0.0319
 8415TIP3    H146660   5.721   1.994   4.496  0.5338  1.2688  0.6026
 8415TIP3    H246661   5.756   1.945   4.635 -0.8952  1.4038  1.0276
 8416TIP3   OH246662   5.261   4.383   4.764 -0.2345  0.0747 -0.0328
 8416TIP3    H146663   5.315   4.329   4.706 -0.8401  0.2266 -0.7614
 8416TIP3    H246664   5.323   4.424   4.824  0.2844 -1.0299  0.2017
 8417TIP3   OH246665   5.174   5.115  11.887 -0.1208 -0.5968 -0.2260
 8417TIP3    H146666   5.258   5.090  11.925 -0.0176 -1.7556 -1.1798
 8417TIP3    H246667   5.135   5.175  11.951  0.0237 -2.5001  1.7297
 8418TIP3   OH246668   1.821   0.989   4.447  0.2374  0.7024 -0.0216
 8418TIP3    H146669   1.902   1.040   4.441  0.1587  0.7921 -0.3667
 8418TIP3    H246670   1.848   0.898   4.433  0.4271  0.5950  0.9276
 8419TIP3   OH246671   2.550   2.864   3.842  0.2277  0.2668 -0.3359
 8419TIP3    H146672   2.561   2.860   3.747  1.8085  0.4389 -0.1851
 8419TIP3    H246673   2.637   2.886   3.875 -0.3856  0.5776  1.1321
 8420TIP3   OH246674   3.565   4.386  15.344 -0.6340 -0.0454 -0.3486
 8420TIP3    H146675   3.648   4.429  15.365 -0.6008 -0.4830  0.4722
 8420TIP3    H246676   3.510   4.405  15.420 -1.9549  1.8431 -1.6728
 8421TIP3   OH246677   0.207   6.651  13.741 -0.3598 -0.6687  0.2437
 8421TIP3    H146678   0.220   6.736  13.699  0.9565 -1.3818 -0.9154
 8421TIP3    H246679   0.199   6.590  13.667  0.6627 -1.7925  1.0228
 8422TIP3   OH246680   4.851   1.609   1.734 -0.1466 -0.0814 -0.0300
 8422TIP3    H146681   4.781   1.545   1.740  0.3537 -0.6414 -0.0930
 8422TIP3    H246682   4.900   1.584   1.656  0.3547  0.0605  0.2307
 8423TIP3   OH246683   1.805   5.945  11.734  0.2953 -0.4949 -0.4074
 8423TIP3    H146684   1.839   5.980  11.816 -0.2094  0.1273 -0.4583
 8423TIP3    H246685   1.838   5.855  11.731  1.6074 -0.0332 -0.2760
 8424TIP3   OH246686   0.154   2.395  12.428 -0.1367  0.0094 -0.7394
 8424TIP3    H146687   0.226   2.443  12.388  0.4585  0.1650  0.4745
 8424TIP3    H246688   0.193   2.351  12.504 -1.7090  1.9226  1.3271
 8425TIP3   OH246689   4.074   6.499   5.142  0.1149  0.6126 -0.2047
 8425TIP3    H146690   4.085   6.532   5.053 -2.3902  0.5410 -0.6298
 8425TIP3    H246691   4.019   6.421   5.132  0.4303  0.1529  1.3505
 8426TIP3   OH246692   3.374   2.636  11.452  0.2643  0.1617 -0.5195
 8426TIP3    H146693   3.415   2.651  11.367 -0.2289  1.5279 -0.5382
 8426TIP3    H246694   3.303   2.575  11.435  0.5299 -0.0175 -0.9893
 8427TIP3   OH246695   3.139   5.084   1.207 -0.1566  0.2433 -0.1541
 8427TIP3    H146696   3.173   5.159   1.255  1.3856 -0.0230 -0.7514
 8427TIP3    H246697   3.087   5.122   1.136  1.6985  0.8530 -1.2599
 8428TIP3   OH246698   5.579   5.840   2.674  0.2208  0.0857  0.1949
 8428TIP3    H146699   5.668   5.829   2.707  0.2586  0.8789  0.3982
 8428TIP3    H246700   5.536   5.894   2.740 -0.1047  0.5577 -0.3925
 8429TIP3   OH246701   1.373   3.795   3.306 -0.8825 -0.4487  0.2312
 8429TIP3    H146702   1.299   3.819   3.363 -0.9943 -0.9935  0.3249
 8429TIP3    H246703   1.345   3.713   3.265 -0.3215 -0.6643  0.2786
 8430TIP3   OH246704   1.124   1.320   3.063  0.5003  0.2630 -0.8176
 8430TIP3    H146705   1.214   1.289   3.075  0.2999  0.0309  0.1674
 8430TIP3    H246706   1.134   1.404   3.017  1.2964  0.7876  0.2684
 8431TIP3   OH246707   6.411   1.424   4.197  0.1344 -0.3601 -0.3694
 8431TIP3    H146708   6.347   1.479   4.152  0.3068  1.4487  1.4320
 8431TIP3    H246709   6.362   1.387   4.271  0.5925 -0.7928 -0.2819
 8432TIP3   OH246710   1.276   3.368  17.311  0.3098  0.5634  0.2662
 8432TIP3    H146711   1.284   3.274  17.327  0.2670  0.9040  2.7209
 8432TIP3    H246712   1.323   3.409  17.384 -0.1473  2.4652 -0.4330
 8433TIP3   OH246713   5.782   4.193  13.047  0.2837 -0.3255 -0.0741
 8433TIP3    H146714   5.723   4.186  13.122 -1.5705 -3.2102 -1.6089
 8433TIP3    H246715   5.754   4.273  13.002  0.1783  0.4253  1.2688
 8434TIP3   OH246716   0.868   5.053  17.259 -0.5749  0.1744 -0.1653
 8434TIP3    H146717   0.895   5.142  17.284 -0.9400  0.0634  0.6368
 8434TIP3    H246718   0.883   5.050  17.164  0.5056  0.7126 -0.0325
 8435TIP3   OH246719   4.392   2.540  14.041  0.0554 -0.2988 -0.0663
 8435TIP3    H146720   4.378   2.591  14.120 -0.8759 -0.5995 -0.0205
 8435TIP3    H246721   4.468   2.581  13.999 -0.8067  1.3093 -0.1652
 8436TIP3   OH246722   5.779   2.084  16.958  0.3975 -0.1025 -0.5140
 8436TIP3    H146723   5.864   2.074  17.000 -0.3679 -0.8798  0.9199
 8436TIP3    H246724   5.755   1.996  16.930 -0.2074  0.0058 -0.3496
 8437TIP3   OH246725   4.004   1.897  15.216 -0.0025 -0.6105  0.0966
 8437TIP3    H146726   3.951   1.977  15.220  0.9139  0.1054 -1.4719
 8437TIP3    H246727   3.947   1.833  15.173 -0.0463 -0.2202 -0.4325
 8438TIP3   OH246728   2.831   5.845  13.639  0.5774  0.3971 -0.2464
 8438TIP3    H146729   2.917   5.850  13.597  0.6751  1.0859  0.0163
 8438TIP3    H246730   2.849   5.865  13.731 -0.0209  1.7100 -0.4024
 8439TIP3   OH246731   5.376   1.757  12.777  0.8147 -0.5580  0.3353
 8439TIP3    H146732   5.304   1.752  12.840  0.6886 -1.7291  0.1290
 8439TIP3    H246733   5.355   1.833  12.723  1.1362  0.7314  1.9340
 8440TIP3   OH246734   2.001   5.272   0.162 -0.3616  0.2919 -0.4759
 8440TIP3    H146735   2.075   5.211   0.163  0.6267  1.2944 -3.0491
 8440TIP3    H246736   1.936   5.231   0.105 -0.7340  0.5302 -0.2311
 8441TIP3   OH246737   2.781   6.057  11.287  0.1796  0.9547 -0.1131
 8441TIP3    H146738   2.842   6.052  11.214  0.7391 -0.5563  0.4309
 8441TIP3    H246739   2.741   6.144  11.278 -0.5563  0.4541 -2.8369
 8442TIP3   OH246740   1.930   5.328   0.428  0.0361  0.0618 -0.1064
 8442TIP3    H146741   1.928   5.285   0.342  0.8132 -0.0791 -0.0596
 8442TIP3    H246742   2.002   5.390   0.423  1.2054 -1.1452  0.9869
 8443TIP3   OH246743   2.784   6.114   5.594  0.5056  0.3485  0.3510
 8443TIP3    H146744   2.737   6.169   5.531 -0.9497 -1.2606 -0.0448
 8443TIP3    H246745   2.811   6.175   5.663 -2.0300  1.4410  0.5007
 8444TIP3   OH246746   0.620   0.962  16.790 -0.1926  0.0356 -0.0069
 8444TIP3    H146747   0.562   0.890  16.815  0.5273 -0.1376  1.2655
 8444TIP3    H246748   0.568   1.041  16.807 -0.8399 -0.1443 -1.0257
 8445TIP3   OH246749   1.770   5.323  13.610  0.1128 -0.4290  0.1960
 8445TIP3    H146750   1.853   5.319  13.657  0.7537  2.1419 -0.5972
 8445TIP3    H246751   1.706   5.347  13.676  0.8844  2.4337  0.0074
 8446TIP3   OH246752   2.632   5.182   0.490 -0.7259 -0.5250  0.3898
 8446TIP3    H146753   2.615   5.195   0.396  1.6694 -0.3020 -0.0819
 8446TIP3    H246754   2.696   5.110   0.492 -0.5696 -0.3651  1.8457
 8447TIP3   OH246755   4.701   6.136  10.330  0.0227  0.0092 -0.5361
 8447TIP3    H146756   4.714   6.043  10.311  1.4281  0.1443 -0.3342
 8447TIP3    H246757   4.753   6.152  10.408 -1.2399  0.7072  0.1923
 8448TIP3   OH246758   0.066   2.595  13.446  0.4130 -0.3502 -0.7839
 8448TIP3    H146759   0.017   2.640  13.378 -1.4861  1.5118  1.6473
 8448TIP3    H246760   0.106   2.665  13.498 -0.9665 -1.4309  1.9315
 8449TIP3   OH246761   1.391   4.286  16.269  0.8123  0.6590  0.4262
 8449TIP3    H146762   1.376   4.237  16.349 -2.8755  0.3022 -0.2974
 8449TIP3    H246763   1.432   4.223  16.209  1.6126  0.3032  1.3238
 8450TIP3   OH246764   6.751   2.857  15.519 -0.2839  0.1789 -0.5620
 8450TIP3    H146765   6.724   2.919  15.588 -0.0677  1.0385 -1.2358
 8450TIP3    H246766   6.832   2.819  15.552 -1.1657 -0.8615  0.5263
 8451TIP3   OH246767   6.694   0.248   3.662 -0.2410 -0.1700  0.1390
 8451TIP3    H146768   6.762   0.213   3.605 -0.2876 -2.6314  1.4446
 8451TIP3    H246769   6.621   0.269   3.604  0.3847 -0.8187 -0.9030
 8452TIP3   OH246770   0.505   0.274  13.866 -0.1821 -0.2714  0.5362
 8452TIP3    H146771   0.463   0.360  13.865 -1.5642 -0.8809  1.6394
 8452TIP3    H246772   0.544   0.264  13.780  0.4772  1.6802  0.5735
 8453TIP3   OH246773   0.309   3.065  11.944 -0.0599  0.1208 -0.1944
 8453TIP3    H146774   0.323   3.042  11.852  3.5029 -0.1958  0.2820
 8453TIP3    H246775   0.299   3.160  11.944  1.3040  0.2962 -0.8591
 8454TIP3   OH246776   6.389   5.962  13.159 -0.1760  0.1953  0.7821
 8454TIP3    H146777   6.364   5.963  13.251 -1.2326  0.8775  0.5056
 8454TIP3    H246778   6.313   5.924  13.114 -0.0598  0.7430  0.0990
 8455TIP3   OH246779   6.575   1.710  13.496  0.4461 -0.1100  0.1266
 8455TIP3    H146780   6.509   1.688  13.562  2.0930 -3.0265  0.9917
 8455TIP3    H246781   6.582   1.805  13.500 -2.1031  0.1031  1.5290
 8456TIP3   OH246782   6.487   1.383   0.588 -0.3684  0.3209 -0.6309
 8456TIP3    H146783   6.417   1.428   0.636 -0.7349 -0.0460 -0.8159
 8456TIP3    H246784   6.450   1.367   0.501  0.8837  2.5582 -1.6852
 8457TIP3   OH246785   5.374   2.155   5.998  0.2680  0.0755  0.1749
 8457TIP3    H146786   5.419   2.223   6.049  1.4615 -0.6859  0.1710
 8457TIP3    H246787   5.301   2.128   6.054 -0.7340  1.9053 -0.1641
 8458TIP3   OH246788   1.271   4.908   6.708  0.4970  0.2990  0.3210
 8458TIP3    H146789   1.307   4.988   6.668  0.1779 -0.2943 -1.2046
 8458TIP3    H246790   1.330   4.839   6.680 -0.4933 -0.3326 -0.2453
 8459TIP3   OH246791   5.928   1.912  14.038 -0.3407  0.2926  0.5715
 8459TIP3    H146792   5.950   1.940  13.949 -0.1719  0.6070  0.7110
 8459TIP3    H246793   5.936   1.816  14.036  1.6670  0.4165  0.7781
 8460TIP3   OH246794   5.055   4.886   0.165 -0.5687  1.0280 -0.4482
 8460TIP3    H146795   5.012   4.801   0.170  1.1510  0.1450 -0.1450
 8460TIP3    H246796   5.122   4.876   0.098 -1.3781  2.6702 -1.5963
 8461TIP3   OH246797   1.175   0.983  16.916  0.3662 -0.5115 -0.1432
 8461TIP3    H146798   1.199   0.929  16.841 -0.9272 -1.4014  0.0460
 8461TIP3    H246799   1.222   1.065  16.903  0.2462 -0.6904 -1.8733
 8462TIP3   OH246800   0.599   0.260  13.580 -0.2578 -0.5259  0.1470
 8462TIP3    H146801   0.650   0.331  13.618 -1.4815  0.7559 -0.5097
 8462TIP3    H246802   0.644   0.241  13.497 -0.4573  0.1473 -0.1234
 8463TIP3   OH246803   6.193   4.596   1.543  0.3391  0.5304 -0.4831
 8463TIP3    H146804   6.173   4.523   1.602  2.3437  0.4768  0.2382
 8463TIP3    H246805   6.177   4.561   1.455  0.5791 -0.5569 -0.1149
 8464TIP3   OH246806   2.666   2.004  14.509 -0.2366  0.3215 -0.0812
 8464TIP3    H146807   2.593   1.965  14.558  0.1910  1.5773  1.6486
 8464TIP3    H246808   2.624   2.056  14.441 -0.9984  1.0530  0.9147
 8465TIP3   OH246809   0.038   2.273   0.701 -0.6747  0.1863 -0.5727
 8465TIP3    H146810   0.056   2.209   0.631 -0.0125  2.4934 -2.6547
 8465TIP3    H246811  -0.053   2.299   0.686 -0.7054  0.2927 -0.2021
 8466TIP3   OH246812   4.414   2.832   0.347 -0.3109 -0.3298 -0.3618
 8466TIP3    H146813   4.351   2.763   0.326 -0.3368  0.1347 -1.9379
 8466TIP3    H246814   4.361   2.903   0.382 -0.3191 -0.9589  0.9669
 8467TIP3   OH246815   0.995   6.366   5.886 -0.6249  0.2241  0.2005
 8467TIP3    H146816   0.923   6.412   5.930 -0.5220 -1.5566  2.4714
 8467TIP3    H246817   0.955   6.285   5.853  0.2334 -0.7259  1.3779
 8468TIP3   OH246818   2.622   5.778   6.332  0.0676  0.6042 -0.0597
 8468TIP3    H146819   2.705   5.786   6.379 -0.7579 -0.7910  1.7626
 8468TIP3    H246820   2.575   5.709   6.378 -2.0097  1.1692 -1.1982
 8469TIP3   OH246821   6.344   6.440   2.235 -0.3575  0.3410  0.1260
 8469TIP3    H146822   6.303   6.449   2.321 -0.6567  0.8076 -0.0640
 8469TIP3    H246823   6.398   6.519   2.226 -0.9320  0.6789 -0.4354
 8470TIP3   OH246824   3.230   0.009  15.056 -0.0937  0.1452  0.0135
 8470TIP3    H146825   3.276  -0.074  15.057  0.2764  0.3527  0.8857
 8470TIP3    H246826   3.247   0.045  14.969 -0.3037 -0.7039 -0.3885
 8471TIP3   OH246827   2.724   0.475  11.049 -0.4168  0.4980  0.3705
 8471TIP3    H146828   2.804   0.450  11.002 -0.2798 -0.0921  0.9015
 8471TIP3    H246829   2.745   0.461  11.141 -1.2613 -0.0319  0.4922
 8472TIP3   OH246830   1.046   6.446  15.202 -0.0774  0.7380  0.0340
 8472TIP3    H146831   0.963   6.425  15.245  0.1687 -1.3004 -0.3943
 8472TIP3    H246832   1.021   6.479  15.116 -0.4693 -1.4723 -0.7539
 8473TIP3   OH246833   1.764   3.580  14.044  0.2897  0.0213  0.3595
 8473TIP3    H146834   1.815   3.524  14.102  0.7682  0.4967  0.4115
 8473TIP3    H246835   1.706   3.628  14.103  0.8462  0.5776  0.4670
 8474TIP3   OH246836   2.295   3.442  13.704 -0.3457  0.2572  0.7224
 8474TIP3    H146837   2.356   3.417  13.773  0.4785  1.6465  0.5363
 8474TIP3    H246838   2.209   3.441  13.746 -0.1942 -1.5123  1.0442
 8475TIP3   OH246839   2.169   5.254  15.393 -0.4304 -0.4532  0.8593
 8475TIP3    H146840   2.091   5.222  15.349 -0.1312 -0.8270  0.6020
 8475TIP3    H246841   2.199   5.327  15.339 -0.4289 -0.5048  0.7904
 8476TIP3   OH246842   2.304   5.207  11.134  0.8782  0.2987  0.4623
 8476TIP3    H146843   2.303   5.297  11.168 -0.3205  0.0463  1.1477
 8476TIP3    H246844   2.332   5.217  11.043  1.1245  1.3193  0.6250
 8477TIP3   OH246845   1.021   3.611   4.437 -0.1566  0.2569  0.1722
 8477TIP3    H146846   0.938   3.654   4.415 -0.0075 -0.3527 -1.7869
 8477TIP3    H246847   1.076   3.682   4.471 -0.9858  0.9764  0.0521
 8478TIP3   OH246848   3.889   5.067   0.167  0.0833 -0.3504 -0.1892
 8478TIP3    H146849   3.800   5.097   0.180 -0.4319 -1.8468 -0.1170
 8478TIP3    H246850   3.912   5.021   0.247  0.2301 -1.5914 -0.9143
 8479TIP3   OH246851   4.485   5.253   2.427  0.3195  0.4795 -0.1261
 8479TIP3    H146852   4.551   5.184   2.431  0.7582  0.9361  0.8918
 8479TIP3    H246853   4.407   5.214   2.468  0.7428  0.7595  0.9792
 8480TIP3   OH246854   4.766   2.149  16.232  0.8341  0.7121  0.2124
 8480TIP3    H146855   4.851   2.164  16.192  0.6199  0.4872 -0.3409
 8480TIP3    H246856   4.735   2.236  16.257  1.4151  0.7552  0.8340
 8481TIP3   OH246857   2.738   4.224  15.618 -0.1835 -0.0839  0.2797
 8481TIP3    H146858   2.828   4.222  15.648  0.1777  1.5276 -0.5829
 8481TIP3    H246859   2.688   4.180  15.687  0.8287  1.8822  2.3707
 8482TIP3   OH246860   4.295   3.323   3.260  0.1617 -0.4936 -0.7860
 8482TIP3    H146861   4.231   3.299   3.193 -0.1587 -1.0479 -0.2940
 8482TIP3    H246862   4.243   3.336   3.340  0.6900 -1.3556 -0.2805
 8483TIP3   OH246863   3.357   5.686   4.943  0.5610 -0.4424  0.1790
 8483TIP3    H146864   3.438   5.735   4.926  1.3473 -1.8287 -0.1980
 8483TIP3    H246865   3.372   5.645   5.029 -1.1165  1.9487  1.7309
 8484TIP3   OH246866   4.646   5.511   6.352  0.2321 -0.0954  0.0408
 8484TIP3    H146867   4.680   5.567   6.422 -0.0621  1.7174 -1.2004
 8484TIP3    H246868   4.564   5.477   6.387 -0.2094  1.2561  0.3955
 8485TIP3   OH246869   4.105   1.308  14.454 -0.2584  0.4373 -0.2001
 8485TIP3    H146870   4.047   1.232  14.440 -0.0255  0.0661  0.7697
 8485TIP3    H246871   4.165   1.305  14.380  0.4175 -0.9692  0.3565
 8486TIP3   OH246872   0.089   2.417  16.246 -0.1905  0.4367 -0.5963
 8486TIP3    H146873   0.092   2.403  16.151  0.0618  1.1293 -0.6999
 8486TIP3    H246874   0.130   2.503  16.258  0.3140  0.0978  0.1961
 8487TIP3   OH246875   1.655   3.475  16.087  0.1895  0.4912 -0.0053
 8487TIP3    H146876   1.733   3.486  16.141  1.3813  1.3800 -1.7975
 8487TIP3    H246877   1.582   3.474  16.150  1.5574  0.4838  1.6569
 8488TIP3   OH246878   0.231   0.948   5.289  0.2237  0.1164 -0.3142
 8488TIP3    H146879   0.318   0.941   5.250  1.8768  2.1432  2.6266
 8488TIP3    H246880   0.203   0.857   5.299  2.2445 -0.6346 -0.8539
 8489TIP3   OH246881   6.225   5.099   1.844 -0.3451 -0.1017  0.5695
 8489TIP3    H146882   6.307   5.052   1.827  0.4722  1.0835  1.1078
 8489TIP3    H246883   6.222   5.108   1.939 -1.2940 -0.4476  0.5800
 8490TIP3   OH246884   2.688   0.914   1.683 -0.2230  0.2353  0.3213
 8490TIP3    H146885   2.643   0.832   1.664  1.6099 -0.5725 -0.8827
 8490TIP3    H246886   2.689   0.920   1.778 -1.1471 -0.6678  0.4072
 8491TIP3   OH246887   0.270   5.557  14.952 -0.0936 -0.1610 -0.5670
 8491TIP3    H146888   0.200   5.617  14.927  0.5203  0.4116 -0.9367
 8491TIP3    H246889   0.224   5.479  14.985 -0.8993  0.0248 -1.2183
 8492TIP3   OH246890   0.234   6.743   3.711  0.1728 -0.3160 -0.3721
 8492TIP3    H146891   0.209   6.683   3.640  0.5576 -1.0377  0.0887
 8492TIP3    H246892   0.219   6.692   3.791  1.5307 -0.1893 -0.0214
 8493TIP3   OH246893   4.259   4.461  16.918  0.1458 -0.0451 -0.2063
 8493TIP3    H146894   4.334   4.515  16.895  0.0541 -0.1803 -0.8309
 8493TIP3    H246895   4.288   4.411  16.994  0.7782 -0.2948 -0.6076
 8494TIP3   OH246896   2.281   6.000   1.948 -0.3026 -0.3859  0.3888
 8494TIP3    H146897   2.242   5.988   2.035  0.7454  0.7124  1.0438
 8494TIP3    H246898   2.339   5.925   1.937  0.4003  0.0352  1.1324
 8495TIP3   OH246899   5.379   1.268   1.281 -0.1601  0.0066 -0.0764
 8495TIP3    H146900   5.441   1.221   1.337 -1.7987 -0.9142  1.0355
 8495TIP3    H246901   5.322   1.199   1.246 -1.0096  0.9037 -0.4975
 8496TIP3   OH246902   5.208   6.175  10.526  0.6041 -0.3291  0.8365
 8496TIP3    H146903   5.257   6.237  10.580  1.7255 -0.5046  0.0439
 8496TIP3    H246904   5.116   6.199  10.539  1.0160  3.9408 -2.1901
 8497TIP3   OH246905   0.923   3.412   1.534 -0.2436 -0.4860  0.6446
 8497TIP3    H146906   0.890   3.501   1.525 -1.2858 -0.3494  4.2692
 8497TIP3    H246907   0.848   3.356   1.514  0.3007 -0.6416 -1.2175
 8498TIP3   OH246908   1.420   1.421   3.708 -0.4687  0.1450  0.3485
 8498TIP3    H146909   1.505   1.408   3.666  0.0557 -1.5421  1.8142
 8498TIP3    H246910   1.416   1.353   3.775 -2.5418  0.8592  1.0135
 8499TIP3   OH246911   5.453   3.234   5.866 -0.1133  0.0601 -0.0619
 8499TIP3    H146912   5.506   3.211   5.943 -0.4728  0.1048  0.2023
 8499TIP3    H246913   5.513   3.223   5.792  0.0315 -0.6667  0.1547
 8500TIP3   OH246914   0.187   3.448   4.549  0.3049 -0.3514  0.1040
 8500TIP3    H146915   0.116   3.390   4.521 -1.7343  1.8963  0.3222
 8500TIP3    H246916   0.253   3.441   4.480 -0.8237 -1.3033 -0.9178
 8501TIP3   OH246917   5.479   4.680   4.663  0.5491  0.1704  0.5873
 8501TIP3    H146918   5.492   4.603   4.719 -0.3799 -1.5156 -1.3662
 8501TIP3    H246919   5.402   4.723   4.700 -1.6448 -2.3296 -0.6651
 8502TIP3   OH246920   4.902   3.071  16.254 -0.6905 -0.2937 -0.3253
 8502TIP3    H146921   4.836   3.121  16.303  1.7209  2.2512  0.5744
 8502TIP3    H246922   4.938   3.133  16.191  0.0650 -1.9706 -1.6461
 8503TIP3   OH246923   5.950   0.154  10.617  0.3519  0.5298 -0.1073
 8503TIP3    H146924   5.999   0.145  10.535 -1.0447 -2.1005 -0.7540
 8503TIP3    H246925   5.859   0.138  10.593  0.0946 -2.2477  2.1501
 8504TIP3   OH246926   4.197   3.686  11.069 -0.3414 -0.1286  0.0016
 8504TIP3    H146927   4.238   3.694  10.982  1.0470 -1.1001  0.5380
 8504TIP3    H246928   4.131   3.618  11.058 -1.2242  0.7951 -0.6379
 8505TIP3   OH246929   3.322   3.007   3.300  0.4033 -0.2995  0.2447
 8505TIP3    H146930   3.407   3.042   3.272  0.0204 -1.0217 -2.0381
 8505TIP3    H246931   3.313   2.924   3.252 -2.9451  1.2710 -2.3031
 8506TIP3   OH246932   1.334   2.960   2.802 -0.0992  0.0912  0.3713
 8506TIP3    H146933   1.343   3.050   2.832 -0.3244 -0.1943  1.3076
 8506TIP3    H246934   1.253   2.959   2.751 -0.0976  0.4079  0.3608
 8507TIP3   OH246935   0.186   6.239   4.112  0.0114 -0.5608  0.5875
 8507TIP3    H146936   0.224   6.314   4.066 -0.6598 -0.6079 -0.0737
 8507TIP3    H246937   0.243   6.165   4.090 -0.5284 -0.6660 -0.5297
 8508TIP3   OH246938   3.273   5.017   2.564 -0.4875 -0.3222  0.2776
 8508TIP3    H146939   3.178   5.009   2.575 -0.9622  2.2590 -1.0343
 8508TIP3    H246940   3.299   5.084   2.627 -0.1501  1.2727 -1.4673
 8509TIP3   OH246941   5.071   0.169  13.306 -0.0537  0.3622 -0.3332
 8509TIP3    H146942   5.151   0.204  13.344  0.3425 -1.0592  0.2126
 8509TIP3    H246943   5.034   0.113  13.374  1.2506 -3.1494 -2.2040
 8510TIP3   OH246944   1.028   3.871  14.789 -0.3092  0.5085 -0.6611
 8510TIP3    H146945   1.046   3.965  14.796  0.0799  0.4769 -1.1702
 8510TIP3    H246946   0.951   3.857  14.844 -0.6882  1.2185 -0.9931
 8511TIP3   OH246947   6.465   1.481  13.169 -0.5081  0.1188  0.0160
 8511TIP3    H146948   6.419   1.426  13.106  1.4790  0.2781 -1.6708
 8511TIP3    H246949   6.404   1.553  13.186 -0.8483  0.4871 -2.3644
 8512TIP3   OH246950   1.933   5.534   2.301  0.1853 -0.4046 -0.3165
 8512TIP3    H146951   1.936   5.455   2.355 -1.9510 -1.1372 -1.1762
 8512TIP3    H246952   1.974   5.601   2.355  2.5665 -2.1534  0.2317
 8513TIP3   OH246953   0.876   3.877  12.365 -0.1569 -0.1661  0.2032
 8513TIP3    H146954   0.968   3.899  12.355 -0.3910  0.0982 -1.7366
 8513TIP3    H246955   0.860   3.885  12.459  1.6846  0.1643  0.5357
 8514TIP3   OH246956   0.051   5.866   0.475 -0.5047  0.1448  0.1001
 8514TIP3    H146957  -0.035   5.904   0.491 -0.5748 -0.2602  0.6961
 8514TIP3    H246958   0.054   5.852   0.380 -1.4842 -0.7547  0.1932
 8515TIP3   OH246959   2.645   4.352  15.034  0.8684 -0.3118 -0.3304
 8515TIP3    H146960   2.684   4.437  15.050  3.2334 -1.8112  3.0856
 8515TIP3    H246961   2.551   4.370  15.027  1.1157  2.4685  1.7480
 8516TIP3   OH246962   2.816   0.222   1.996 -0.2609  0.3242  0.0664
 8516TIP3    H146963   2.847   0.290   1.936  0.6859  0.8918  1.1502
 8516TIP3    H246964   2.748   0.176   1.948  0.4949  0.7340 -1.4449
 8517TIP3   OH246965   3.698   4.077  11.549 -0.3887 -0.2487  0.0125
 8517TIP3    H146966   3.635   4.097  11.618 -0.7628 -1.4684  0.0466
 8517TIP3    H246967   3.717   3.984  11.559 -0.2018 -0.3807 -1.3249
 8518TIP3   OH246968   3.998   5.312   1.724  0.7276 -0.3502 -0.3048
 8518TIP3    H146969   3.968   5.313   1.633 -0.3567 -0.8974  0.0330
 8518TIP3    H246970   4.012   5.404   1.746 -0.0929 -0.1239 -0.6827
 8519TIP3   OH246971   4.404   4.991   4.074 -0.1880  0.1623 -0.8127
 8519TIP3    H146972   4.408   4.970   3.981  1.7862 -1.2088 -0.4745
 8519TIP3    H246973   4.491   4.971   4.107 -1.5350 -2.0840  1.8710
 8520TIP3   OH246974   2.539   1.742  12.211  0.8224 -0.4010 -0.0290
 8520TIP3    H146975   2.494   1.662  12.235 -1.2587  0.7058  0.0243
 8520TIP3    H246976   2.499   1.768  12.128  2.2777  0.0118 -0.6449
 8521TIP3   OH246977   1.768   1.488  11.360  0.0374 -0.9593  0.1299
 8521TIP3    H146978   1.716   1.568  11.364 -0.0839 -0.9106 -1.8254
 8521TIP3    H246979   1.703   1.418  11.360 -0.0887 -0.9072 -1.9752
 8522TIP3   OH246980   6.740   0.377  15.560 -0.0250  0.0688  0.1486
 8522TIP3    H146981   6.662   0.333  15.526  0.0969 -0.0557  0.0262
 8522TIP3    H246982   6.805   0.367  15.491  0.5619 -1.1256  0.8448
 8523TIP3   OH246983   3.214   0.604  14.835 -0.1604  0.6417 -0.0979
 8523TIP3    H146984   3.180   0.526  14.791  0.6548  0.8137 -1.0397
 8523TIP3    H246985   3.137   0.661  14.844 -1.0649 -0.7567  1.7765
 8524TIP3   OH246986   3.424   4.445   5.345  0.1131  0.3924 -0.1888
 8524TIP3    H146987   3.513   4.462   5.374  1.1200 -0.2607 -2.6683
 8524TIP3    H246988   3.430   4.361   5.298 -2.6213 -1.8266  2.9240
 8525TIP3   OH246989   4.337   0.949  15.652 -0.0948 -0.1793 -0.9550
 8525TIP3    H146990   4.425   0.963  15.686  0.3228  1.8590 -2.6258
 8525TIP3    H246991   4.340   0.983  15.563 -2.1265 -1.7099 -1.7015
 8526TIP3   OH246992   2.941   0.309  11.811  0.3502  0.1756 -0.5807
 8526TIP3    H146993   2.852   0.275  11.823  0.0728  1.2640  0.5948
 8526TIP3    H246994   2.997   0.241  11.849 -0.1378  0.4531  0.7203
 8527TIP3   OH246995   6.124   5.571   3.573 -0.6065 -0.1780  0.4532
 8527TIP3    H146996   6.084   5.491   3.537  2.2709 -1.3952 -0.3727
 8527TIP3    H246997   6.131   5.630   3.498 -0.0811 -0.3285  0.3797
 8528TIP3   OH246998   0.206   5.023  11.744  0.0768 -0.9012 -0.0040
 8528TIP3    H146999   0.291   5.004  11.705  0.4570 -0.2427  0.4823
 8528TIP3    H247000   0.224   5.089  11.811 -0.7259 -1.2002  0.5255
 8529TIP3   OH247001   5.360   3.509   5.890  0.3102  0.1969 -0.2487
 8529TIP3    H147002   5.442   3.553   5.915  0.1412  0.2979  0.1317
 8529TIP3    H247003   5.386   3.419   5.874  0.6117  0.3682 -0.7672
 8530TIP3   OH247004   5.696   2.614  11.988  0.3397 -0.1416 -0.3500
 8530TIP3    H147005   5.656   2.693  12.025  2.2457  0.4922  0.5215
 8530TIP3    H247006   5.751   2.646  11.916  1.8526 -0.5183  0.5958
 8531TIP3   OH247007   2.027   2.052   2.932 -0.0317  0.0571 -0.2544
 8531TIP3    H147008   1.968   2.048   2.857  0.3276 -1.8481 -0.4687
 8531TIP3    H247009   1.970   2.073   3.006 -0.6661  0.1718 -0.7663
 8532TIP3   OH247010   1.242   1.188   0.070 -0.3489 -0.4440 -0.5896
 8532TIP3    H147011   1.213   1.135  -0.004  0.6765 -1.5186 -0.2593
 8532TIP3    H247012   1.175   1.176   0.136 -0.2181 -1.1988 -0.5865
 8533TIP3   OH247013   3.982   0.700   0.103  0.3145  0.2231  0.2155
 8533TIP3    H147014   4.025   0.673   0.022  0.8408  1.9190 -0.1223
 8533TIP3    H247015   3.903   0.746   0.074 -0.6406 -1.0011  0.7674
 8534TIP3   OH247016   5.154   0.391  11.172 -0.3704 -0.0888 -0.0193
 8534TIP3    H147017   5.098   0.319  11.139  0.4678 -0.6712 -0.2111
 8534TIP3    H247018   5.234   0.383  11.120  0.4890 -0.2201  1.2909
 8535TIP3   OH247019   5.247   4.490  17.299 -0.3119 -0.2526  0.6101
 8535TIP3    H147020   5.337   4.457  17.302  0.2707  1.1219 -0.5481
 8535TIP3    H247021   5.230   4.507  17.207 -1.9359 -0.8895  0.7621
 8536TIP3   OH247022   1.603   5.490  12.560  0.7297  0.2524  0.1117
 8536TIP3    H147023   1.610   5.494  12.655  1.1113  1.7071  0.0421
 8536TIP3    H247024   1.510   5.505  12.542  0.5356 -0.6849  0.2613
 8537TIP3   OH247025   0.428   4.683   2.101 -0.1533 -0.2540  0.3824
 8537TIP3    H147026   0.341   4.700   2.064 -0.4466  1.2443  1.6697
 8537TIP3    H247027   0.455   4.601   2.061 -0.7376  0.8894 -2.5852
 8538TIP3   OH247028   4.098   1.832  12.757  0.2092  0.0880  0.5550
 8538TIP3    H147029   4.190   1.809  12.762  0.2532  0.4830  1.8003
 8538TIP3    H247030   4.087   1.866  12.668  1.3745  0.5202  0.5592
 8539TIP3   OH247031   2.287   3.068  16.978  0.1423  0.3282  0.1957
 8539TIP3    H147032   2.319   3.093  16.892 -0.9448  1.0564 -0.0162
 8539TIP3    H247033   2.302   3.146  17.032 -1.3646  0.7309  0.0546
 8540TIP3   OH247034   3.458   5.612  17.254 -0.5163 -0.1010 -0.1492
 8540TIP3    H147035   3.424   5.701  17.264 -1.0631 -0.2309 -0.7686
 8540TIP3    H247036   3.379   5.557  17.248 -0.1920 -0.6901  0.6908
 8541TIP3   OH247037   4.473   4.187  15.954  0.1585  0.2263 -0.2683
 8541TIP3    H147038   4.443   4.132  16.027  0.2448 -0.5817 -0.8294
 8541TIP3    H247039   4.463   4.132  15.877 -0.1964  1.1722 -0.9162
 8542TIP3   OH247040   0.152   3.691  15.640 -0.4147 -0.1525 -0.3129
 8542TIP3    H147041   0.232   3.706  15.691  0.7295  0.6252 -2.2342
 8542TIP3    H247042   0.169   3.610  15.593 -1.4882 -0.8986  0.5385
 8543TIP3   OH247043   0.475   3.400   5.688 -0.3723  0.0378 -0.0487
 8543TIP3    H147044   0.514   3.481   5.655 -0.3539  0.0220 -0.0653
 8543TIP3    H247045   0.391   3.428   5.725 -1.1784 -0.1843 -1.6292
 8544TIP3   OH247046   4.703   1.756  15.916 -0.2746 -0.2824 -0.1516
 8544TIP3    H147047   4.633   1.818  15.892 -0.2355 -0.0233  0.3898
 8544TIP3    H247048   4.676   1.674  15.875 -1.9951 -0.7471  1.7459
 8545TIP3   OH247049   0.335   6.245  10.796  0.4163  0.2852  0.1082
 8545TIP3    H147050   0.315   6.334  10.766  0.0050  0.3788  0.6347
 8545TIP3    H247051   0.282   6.234  10.875  0.7958 -0.2753  0.2925
 8546TIP3   OH247052   2.442   1.857  14.593  0.2299 -0.3968  0.3234
 8546TIP3    H147053   2.463   1.770  14.560 -1.3337 -0.4095 -0.8065
 8546TIP3    H247054   2.375   1.842  14.660 -0.5291 -0.0655 -0.3348
 8547TIP3   OH247055   1.091   5.609  10.527 -0.3481 -0.2938 -0.0733
 8547TIP3    H147056   1.175   5.636  10.489 -0.0211  2.0917  2.1019
 8547TIP3    H247057   1.026   5.662  10.482 -0.3537 -0.0014  0.2787
 8548TIP3   OH247058   2.818   3.344   3.282 -0.9301 -0.0517 -0.2115
 8548TIP3    H147059   2.729   3.341   3.317 -1.7451  2.3531 -1.7918
 8548TIP3    H247060   2.808   3.387   3.197  1.6530 -0.5389 -0.8253
 8549TIP3   OH247061   2.242   1.384   3.187  0.4076 -0.1042  0.0242
 8549TIP3    H147062   2.206   1.341   3.265  0.1535  0.0277 -0.0195
 8549TIP3    H247063   2.315   1.328   3.161 -0.7400 -1.2799 -0.8184
 8550TIP3   OH247064   2.836   1.647  12.265  0.0965 -0.6837  0.2798
 8550TIP3    H147065   2.915   1.702  12.269  0.4515 -1.2311  3.4531
 8550TIP3    H247066   2.765   1.709  12.246  1.1351 -0.0755 -1.8779
 8551TIP3   OH247067   6.640   6.413  15.305  0.1316 -0.4270 -0.2647
 8551TIP3    H147068   6.570   6.476  15.286  0.1894 -0.1463  0.4035
 8551TIP3    H247069   6.613   6.373  15.388  0.3988 -0.8502 -0.3808
 8552TIP3   OH247070   1.045   4.894  15.332  0.1579  0.2808 -0.3863
 8552TIP3    H147071   0.966   4.868  15.380 -1.3360 -0.0379 -2.8332
 8552TIP3    H247072   1.034   4.988  15.317  0.3789  0.2894 -0.4958
 8553TIP3   OH247073   2.892   5.643   0.654 -0.3135 -0.6945  0.1535
 8553TIP3    H147074   2.953   5.574   0.631 -1.5501 -1.6722 -0.3238
 8553TIP3    H247075   2.890   5.643   0.750  0.3154 -0.7390  0.1692
 8554TIP3   OH247076   0.496   3.909  12.901  0.2200  0.0590  0.1030
 8554TIP3    H147077   0.424   3.971  12.896  0.0367  0.2307  2.8677
 8554TIP3    H247078   0.567   3.949  12.852 -0.2366  1.9957  0.9376
 8555TIP3   OH247079   5.659   4.626   5.738 -0.2419 -0.1883 -0.0219
 8555TIP3    H147080   5.711   4.552   5.709  0.6079 -0.1486  1.3013
 8555TIP3    H247081   5.650   4.682   5.660  0.1869 -1.0549 -0.7071
 8556TIP3   OH247082   4.929   1.060   1.074 -0.0781 -0.1165 -0.8381
 8556TIP3    H147083   4.922   0.965   1.077 -2.1028 -0.0018 -0.3529
 8556TIP3    H247084   4.842   1.089   1.048 -0.1808  1.6844  1.2638
 8557TIP3   OH247085   2.430   0.475   2.921 -0.1586 -0.1547 -0.0913
 8557TIP3    H147086   2.464   0.469   2.831  2.5889  0.1525  0.8266
 8557TIP3    H247087   2.442   0.387   2.956  0.9870  0.2688  0.6406
 8558TIP3   OH247088   1.528   1.978  15.281 -0.0439  0.0364  0.5257
 8558TIP3    H147089   1.544   1.890  15.248 -1.7261 -0.8682  1.9980
 8558TIP3    H247090   1.462   2.015  15.222 -0.1128 -0.0820  0.5294
 8559TIP3   OH247091   5.974   2.508  11.926  0.0960  0.3739 -0.4761
 8559TIP3    H147092   6.053   2.563  11.926  1.4390 -1.4201 -2.2027
 8559TIP3    H247093   5.924   2.540  11.850 -0.2932  0.7386 -0.0728
 8560TIP3   OH247094   4.643   1.920   5.862 -0.1795  0.2343 -0.3048
 8560TIP3    H147095   4.555   1.958   5.864 -0.3238 -0.1054  1.7223
 8560TIP3    H247096   4.701   1.995   5.847 -0.6493  0.8727  0.9602
 8561TIP3   OH247097   0.285   3.557   6.245 -0.2428  0.2028 -0.0694
 8561TIP3    H147098   0.195   3.560   6.213 -1.2468  0.0162  2.5029
 8561TIP3    H247099   0.280   3.590   6.335  2.0835 -0.8478  0.5293
 8562TIP3   OH247100   6.609   3.311   1.396  0.3067  0.8024  0.0638
 8562TIP3    H147101   6.692   3.356   1.382 -0.7349  2.1617 -2.5483
 8562TIP3    H247102   6.558   3.331   1.317 -1.1065 -3.1253 -0.2318
 8563TIP3   OH247103   6.518   6.159   5.697  0.1027 -0.0386  0.1287
 8563TIP3    H147104   6.446   6.175   5.636 -1.3849 -0.5562  1.6770
 8563TIP3    H247105   6.477   6.157   5.783  1.8178 -1.3851  0.9906
 8564TIP3   OH247106   1.700   6.005   6.209  0.2149  0.4210 -0.1467
 8564TIP3    H147107   1.766   5.971   6.269  0.5244  1.8230  0.3569
 8564TIP3    H247108   1.700   5.944   6.135  1.2390 -0.2339  0.3781
 8565TIP3   OH247109   2.508   0.328  12.324 -0.8623  0.2901 -0.4680
 8565TIP3    H147110   2.513   0.244  12.369  0.6357 -1.3021 -3.3456
 8565TIP3    H247111   2.564   0.386  12.375 -0.2830 -1.0426  0.4632
 8566TIP3   OH247112   3.496   4.074  13.289 -0.0103  0.0848  0.1969
 8566TIP3    H147113   3.455   3.989  13.276  1.1757 -0.1689 -2.6041
 8566TIP3    H247114   3.443   4.134  13.236  2.2192 -0.0087 -2.3599
 8567TIP3   OH247115   5.971   4.354  13.415 -0.6126 -0.5632 -0.1243
 8567TIP3    H147116   5.993   4.389  13.501  0.3059 -0.1720 -0.5141
 8567TIP3    H247117   6.053   4.319  13.381 -0.8945 -0.4137 -0.9813
 8568TIP3   OH247118   0.158   4.810   5.396  0.1676 -0.1443  0.1374
 8568TIP3    H147119   0.106   4.729   5.396  0.5152 -0.3663  0.1576
 8568TIP3    H247120   0.232   4.791   5.338 -0.6341  0.7300 -1.2361
 8569TIP3   OH247121   2.947   4.946   4.540  0.3815 -0.4278 -0.3235
 8569TIP3    H147122   2.971   4.917   4.628 -0.5109 -0.4258 -0.0633
 8569TIP3    H247123   2.982   4.880   4.481  1.8405  0.0704 -0.0538
 8570TIP3   OH247124   5.049   0.302  11.973  0.1759  0.1885 -0.4443
 8570TIP3    H147125   5.037   0.219  12.018 -3.7359  1.3067  0.9850
 8570TIP3    H247126   5.005   0.291  11.888 -0.0396  0.6487 -0.3999
 8571TIP3   OH247127   1.377   4.114  16.483  0.1534  0.1108  0.1668
 8571TIP3    H147128   1.294   4.076  16.514  0.3046  0.7541  1.4360
 8571TIP3    H247129   1.423   4.138  16.564  1.6676 -0.4057 -0.5120
 8572TIP3   OH247130   1.937   6.716   2.804 -0.0015  0.0121  0.4074
 8572TIP3    H147131   1.890   6.650   2.752  0.1328 -0.9185  1.4376
 8572TIP3    H247132   1.953   6.674   2.888  2.4926  0.3868  0.1759
 8573TIP3   OH247133   5.070   1.978  11.690  0.7791  0.7335  0.4228
 8573TIP3    H147134   5.118   1.971  11.607 -0.1809 -1.2370 -0.0159
 8573TIP3    H247135   5.134   1.955  11.757  0.7013 -1.0520 -0.0855
 8574TIP3   OH247136   2.577   6.440  14.892  0.0860  0.0484 -0.1851
 8574TIP3    H147137   2.611   6.529  14.892  0.7599 -0.2046 -0.2544
 8574TIP3    H247138   2.652   6.385  14.917  0.5130 -0.8002 -3.0219
 8575TIP3   OH247139   3.815   2.895  16.013  0.0409 -0.4263  0.2121
 8575TIP3    H147140   3.878   2.924  15.947  1.0290 -0.4415  1.1314
 8575TIP3    H247141   3.732   2.931  15.983  0.6111  0.2647 -0.5987
 8576TIP3   OH247142   5.700   3.947   4.951  0.2150 -0.3343 -0.0073
 8576TIP3    H147143   5.791   3.936   4.980  0.5703  2.8707  0.4178
 8576TIP3    H247144   5.649   3.901   5.018  1.3879  1.0239  1.9218
 8577TIP3   OH247145   6.271   0.125   0.267 -0.5296  0.0556  0.0690
 8577TIP3    H147146   6.244   0.201   0.318  0.5080  1.2335 -1.0532
 8577TIP3    H247147   6.263   0.154   0.176  2.9745  0.0615 -0.3799
 8578TIP3   OH247148   5.604   1.124   4.341  0.3605  0.0842 -0.6371
 8578TIP3    H147149   5.689   1.164   4.329  0.2012  0.0142 -2.4039
 8578TIP3    H247150   5.606   1.047   4.283 -0.2916 -0.9070  0.6096
 8579TIP3   OH247151   5.967   0.012  14.509 -0.2577 -0.1277 -0.2053
 8579TIP3    H147152   5.936   0.069  14.438 -1.8251 -1.1569 -0.3873
 8579TIP3    H247153   5.952  -0.077  14.477  0.8428 -0.6498  0.6478
 8580TIP3   OH247154   2.039   1.420   5.716 -0.4020  0.5335  0.6229
 8580TIP3    H147155   2.006   1.332   5.696 -1.0338  0.4597  1.8906
 8580TIP3    H247156   2.010   1.474   5.642  0.3827 -0.3919 -0.3933
 8581TIP3   OH247157   4.313   1.889   3.887 -0.0889  0.4494  0.2714
 8581TIP3    H147158   4.341   1.800   3.865 -0.4113  0.1754  0.9201
 8581TIP3    H247159   4.357   1.908   3.970  0.1489  0.9806  0.0243
 8582TIP3   OH247160   5.996   3.643  14.432 -0.3464 -0.4668  0.5368
 8582TIP3    H147161   5.950   3.566  14.466  1.2927 -1.6506  0.2671
 8582TIP3    H247162   5.978   3.642  14.338  0.9725 -1.5414  0.2591
 8583TIP3   OH247163   0.718   5.230   0.585  0.4441  0.4476 -0.3607
 8583TIP3    H147164   0.631   5.210   0.550  0.5615 -1.9930  0.5168
 8583TIP3    H247165   0.761   5.145   0.591  1.7682  1.1926  2.1325
 8584TIP3   OH247166   1.622   4.670   0.844  0.3254  0.5672  0.4023
 8584TIP3    H147167   1.669   4.693   0.924  0.0307  0.1451  0.7043
 8584TIP3    H247168   1.572   4.748   0.822 -0.3092  0.3752  1.1501
 8585TIP3   OH247169   0.725   6.268   3.019  0.1361 -0.1425  0.3169
 8585TIP3    H147170   0.735   6.355   2.980  0.4872 -0.6638 -0.8264
 8585TIP3    H247171   0.653   6.228   2.969  1.2653 -1.1972 -0.5301
 8586TIP3   OH247172   5.100   3.321  13.434 -0.1431  0.0315 -0.0163
 8586TIP3    H147173   5.141   3.283  13.356  0.0687 -2.1636  1.1163
 8586TIP3    H247174   5.006   3.305  13.421  0.0485 -2.5191  1.2012
 8587TIP3   OH247175   5.530   5.126   0.030  0.2529  0.0178  0.3666
 8587TIP3    H147176   5.596   5.058   0.015  0.2350 -0.1779  1.1363
 8587TIP3    H247177   5.580   5.203   0.056  0.5225  1.1913 -3.1130
 8588TIP3   OH247178   1.098   5.275   1.257  0.0259  0.3352  0.7114
 8588TIP3    H147179   1.054   5.190   1.254 -0.4468  0.5179  1.9405
 8588TIP3    H247180   1.188   5.257   1.228  0.4882 -0.9560  2.7905
 8589TIP3   OH247181   6.454   2.871   0.604  0.1060  0.2632  0.5882
 8589TIP3    H147182   6.448   2.937   0.535  1.7665  1.3288  1.3952
 8589TIP3    H247183   6.544   2.838   0.597 -0.9128 -2.6376 -0.3710
 8590TIP3   OH247184   0.888   2.765  13.670 -0.1860  0.5254  0.1959
 8590TIP3    H147185   0.923   2.803  13.589 -2.9127  0.5192 -1.1306
 8590TIP3    H247186   0.804   2.809  13.681 -0.2080 -0.0232  2.6637
 8591TIP3   OH247187   2.666   3.278   1.802  0.5439 -0.1672  0.2553
 8591TIP3    H147188   2.610   3.340   1.755  0.2576 -0.6088  0.0077
 8591TIP3    H247189   2.670   3.312   1.892 -0.9679 -0.6700  0.5470
 8592TIP3   OH247190   3.648   2.730  16.177 -0.3491 -0.1714 -0.6651
 8592TIP3    H147191   3.725   2.773  16.140  0.9951 -1.3488  0.6184
 8592TIP3    H247192   3.606   2.798  16.231  0.9433 -0.0313  0.2070
 8593TIP3   OH247193   2.928   1.534  14.564  0.0647  0.3639  0.3282
 8593TIP3    H147194   2.856   1.590  14.592 -0.0271  0.4034  0.0104
 8593TIP3    H247195   2.937   1.550  14.470  0.2290  0.0668  0.2904
 8594TIP3   OH247196   5.821   5.147   2.780  0.0397 -0.6700 -0.1919
 8594TIP3    H147197   5.827   5.221   2.840  0.0273 -0.7922 -0.0387
 8594TIP3    H247198   5.888   5.086   2.810 -0.2617 -0.9235 -0.0315
 8595TIP3   OH247199   6.571   1.858   3.553  0.1704 -0.2967  0.4590
 8595TIP3    H147200   6.525   1.780   3.520 -1.1367  0.6418 -0.0164
 8595TIP3    H247201   6.618   1.891   3.477 -0.7168  0.3663  0.1776
 8596TIP3   OH247202   6.662   2.338  12.324  0.0039  0.5880 -0.2204
 8596TIP3    H147203   6.696   2.312  12.238 -0.1576 -1.2607  0.2399
 8596TIP3    H247204   6.735   2.323  12.384 -1.3630 -3.3150  0.7642
 8597TIP3   OH247205   2.718   1.325  11.179  0.2044  0.0219 -0.4916
 8597TIP3    H147206   2.671   1.388  11.125 -1.4698 -1.5610 -0.9992
 8597TIP3    H247207   2.773   1.277  11.116  0.8252  0.3978 -0.2416
 8598TIP3   OH247208   3.291   5.768   4.524  0.0338  0.0123  0.4560
 8598TIP3    H147209   3.235   5.845   4.529  1.9282  1.6212 -1.1928
 8598TIP3    H247210   3.359   5.784   4.589  0.5483 -0.1574 -0.0334
 8599TIP3   OH247211   1.132   1.458   4.362  0.2696 -0.2875  0.3544
 8599TIP3    H147212   1.052   1.507   4.382  1.0513  1.7604 -1.2563
 8599TIP3    H247213   1.198   1.493   4.421  0.7513  0.3990 -0.5721
 8600TIP3   OH247214   1.457   5.386   4.644 -0.7560  0.1085 -0.4852
 8600TIP3    H147215   1.460   5.453   4.712  0.3015  0.0246 -0.4217
 8600TIP3    H247216   1.531   5.407   4.586  0.1570 -1.4817  0.0272
 8601TIP3   OH247217   3.419   4.342   2.963  0.1786  0.3021 -0.5077
 8601TIP3    H147218   3.355   4.298   2.906  0.2526 -1.0700  0.4181
 8601TIP3    H247219   3.370   4.411   3.006 -0.6926 -0.6778  0.1203
 8602TIP3   OH247220   0.430   3.759   6.133  0.1881  0.5228 -0.1954
 8602TIP3    H147221   0.379   3.682   6.157  1.1913 -0.9088 -2.3901
 8602TIP3    H247222   0.478   3.782   6.213 -2.5222  0.9473  1.4596
 8603TIP3   OH247223   6.559   2.623   2.746  0.3834 -0.0209  0.7727
 8603TIP3    H147224   6.650   2.653   2.746  0.4212 -0.1311  1.0767
 8603TIP3    H247225   6.539   2.605   2.838 -1.2163  3.7727  1.3320
 8604TIP3   OH247226   1.225   4.709   0.780  0.4014  0.2711 -0.6073
 8604TIP3    H147227   1.141   4.690   0.738  0.1094  1.1374 -0.4274
 8604TIP3    H247228   1.205   4.710   0.874  1.1812 -2.3486 -0.3427
 8605TIP3   OH247229   5.085   5.483  12.356 -0.3955  0.0928  0.5458
 8605TIP3    H147230   5.110   5.453  12.444  1.2402  1.5289  0.6357
 8605TIP3    H247231   5.045   5.569  12.371 -0.8929 -0.0246 -0.0588
 8606TIP3   OH247232   1.915   6.050  11.948 -0.6225 -0.1708  0.0159
 8606TIP3    H147233   1.980   5.982  11.966 -1.4610 -1.1257 -0.4678
 8606TIP3    H247234   1.859   6.050  12.026 -1.2686 -0.8074 -0.4381
 8607TIP3   OH247235   3.488   3.251  15.970  0.1298  0.4146  0.2514
 8607TIP3    H147236   3.583   3.253  15.960  0.3911  0.1426  2.2505
 8607TIP3    H247237   3.471   3.305  16.047 -1.2875  0.0061  0.2590
 8608TIP3   OH247238   0.234   6.342  16.434  0.0088  0.0301 -0.1526
 8608TIP3    H147239   0.313   6.313  16.389 -0.3925 -1.6029  0.1110
 8608TIP3    H247240   0.243   6.307  16.523 -1.2744 -0.7257 -0.2903
 8609TIP3   OH247241   3.993   0.444   4.232 -0.2532  0.2148 -0.4190
 8609TIP3    H147242   3.935   0.457   4.307  0.1042  1.5459 -0.3495
 8609TIP3    H247243   4.065   0.506   4.246  0.4272 -0.3585 -1.2620
 8610TIP3   OH247244   6.675   3.373   4.129  0.4936  0.0708 -0.2548
 8610TIP3    H147245   6.654   3.415   4.046  2.1297  0.2297 -0.6124
 8610TIP3    H247246   6.768   3.351   4.122  0.6039 -0.1137  1.4478
 8611TIP3   OH247247   0.629   5.451   2.098 -0.1902 -0.4007  0.1618
 8611TIP3    H147248   0.639   5.372   2.045 -2.0817 -0.0191 -0.8314
 8611TIP3    H247249   0.538   5.448   2.129 -0.5624  1.7957 -0.5832
 8612TIP3   OH247250   0.744   0.995   2.649 -0.4506 -0.2509  0.3416
 8612TIP3    H147251   0.738   0.964   2.740  1.4748  2.4037  1.5053
 8612TIP3    H247252   0.808   0.938   2.608 -1.0644 -1.2538  0.7376
 8613TIP3   OH247253   3.449   2.100   1.021 -0.2380  0.2108 -0.2588
 8613TIP3    H147254   3.446   2.161   1.095  0.2761 -0.6480  0.4914
 8613TIP3    H247255   3.539   2.067   1.021  0.1205  1.0648 -2.0083
 8614TIP3   OH247256   0.662   5.621  15.070  0.2220  0.5281  0.1841
 8614TIP3    H147257   0.646   5.592  15.160  0.9332 -1.3886 -0.2418
 8614TIP3    H247258   0.615   5.557  15.016 -0.3437  1.7600 -0.8101
 8615TIP3   OH247259   4.947   4.436   3.615  0.1768 -0.3485 -0.3748
 8615TIP3    H147260   4.901   4.367   3.662 -1.3859  0.4424 -0.7025
 8615TIP3    H247261   5.037   4.432   3.649 -0.4482 -1.0090  1.3188
 8616TIP3   OH247262   1.512   1.503  13.488 -0.2226 -0.6888  0.2495
 8616TIP3    H147263   1.541   1.412  13.496  1.4043 -0.1558  0.8566
 8616TIP3    H247264   1.574   1.552  13.542  0.6724  1.1403 -2.2721
 8617TIP3   OH247265   5.086   2.754   3.415 -0.5512  0.0916 -0.1414
 8617TIP3    H147266   5.080   2.658   3.421 -1.3002  0.1544  0.2554
 8617TIP3    H247267   4.998   2.782   3.388 -0.3910  0.6783 -0.0711
 8618TIP3   OH247268   3.904   5.416  11.225  0.9268 -0.0634  0.2156
 8618TIP3    H147269   3.853   5.439  11.303  1.2698  1.9422 -0.1110
 8618TIP3    H247270   3.967   5.351  11.256  1.5165  1.1947  1.8087
 8619TIP3   OH247271   4.199   0.114  11.366 -0.4536  0.7401 -0.5405
 8619TIP3    H147272   4.288   0.082  11.358 -0.2905  1.1199 -0.2915
 8619TIP3    H247273   4.192   0.183  11.300 -0.6500  0.5202 -0.7486
 8620TIP3   OH247274   3.460   4.364  16.869 -0.1499 -0.2221 -0.3627
 8620TIP3    H147275   3.513   4.285  16.866 -1.9086 -1.4844  0.0071
 8620TIP3    H247276   3.505   4.426  16.812  1.2872 -1.4692 -0.6335
 8621TIP3   OH247277   6.467   6.019   4.554 -0.1040 -0.1367  0.1726
 8621TIP3    H147278   6.378   6.018   4.589 -0.3063  1.4763 -0.2570
 8621TIP3    H247279   6.495   5.927   4.558 -0.3608 -0.2099  3.8401
 8622TIP3   OH247280   3.308   2.553  15.379 -0.2076 -0.0363  0.4075
 8622TIP3    H147281   3.382   2.522  15.327  0.8644  1.9118  0.6708
 8622TIP3    H247282   3.249   2.593  15.314  0.0163  0.3228  0.4210
 8623TIP3   OH247283   3.988   5.977   6.377  0.7069 -0.8239 -0.0291
 8623TIP3    H147284   4.042   6.026   6.440 -1.0490 -0.9470  1.6674
 8623TIP3    H247285   4.020   5.887   6.383  2.8428 -0.2736 -1.9415
 8624TIP3   OH247286   4.010   5.353   6.530  0.3633  0.4663 -0.8932
 8624TIP3    H147287   3.951   5.428   6.544 -0.4922 -0.4258  0.5569
 8624TIP3    H247288   3.955   5.285   6.492  1.1656  0.5769 -2.3222
 8625TIP3   OH247289   0.039   4.185   0.720 -0.1871  0.1451 -0.3709
 8625TIP3    H147290  -0.048   4.222   0.737  0.5166  1.7597 -0.1654
 8625TIP3    H247291   0.059   4.212   0.630  0.2965  0.1826 -0.2523
 8626TIP3   OH247292   0.799   4.168  16.818  0.1889  0.2187  0.2066
 8626TIP3    H147293   0.820   4.230  16.749  2.0028 -0.3631  0.1792
 8626TIP3    H247294   0.830   4.084  16.785  0.7381 -0.1381  1.5597
 8627TIP3   OH247295   4.971   4.202  17.162  0.2225 -0.3873 -0.0019
 8627TIP3    H147296   5.019   4.189  17.244  0.8575  0.9896 -0.1286
 8627TIP3    H247297   5.022   4.153  17.098  1.8706  1.5219 -0.2455
 8628TIP3   OH247298   2.908   6.405  13.500  0.4471 -0.2693  0.3915
 8628TIP3    H147299   2.975   6.394  13.433  0.2708 -1.5946  0.4065
 8628TIP3    H247300   2.830   6.362  13.464  0.4496 -1.3125  1.5530
 8629TIP3   OH247301   0.860   5.101   4.099  0.1597 -0.0652  0.2337
 8629TIP3    H147302   0.865   5.180   4.045 -0.6990  0.2276  0.5666
 8629TIP3    H247303   0.932   5.110   4.161  0.5963  0.0356 -0.2818
 8630TIP3   OH247304   1.199   4.076   0.267 -0.2597 -0.5097  0.5196
 8630TIP3    H147305   1.142   4.109   0.336 -1.5009  0.9326 -1.1116
 8630TIP3    H247306   1.151   4.002   0.229  0.4924 -1.4044  1.2483
 8631TIP3   OH247307   6.427   3.576  15.030  0.6725  0.0635 -0.3182
 8631TIP3    H147308   6.375   3.649  15.061  0.2621 -0.6881  0.8365
 8631TIP3    H247309   6.445   3.524  15.108  0.9091 -1.0951 -1.1058
 8632TIP3   OH247310   0.483   0.096   4.758 -0.2673 -0.1441 -0.1580
 8632TIP3    H147311   0.421   0.030   4.728 -1.7132  1.1608 -0.1966
 8632TIP3    H247312   0.569   0.058   4.740 -1.0432 -1.5918 -1.0676
 8633TIP3   OH247313   3.709   3.148  13.904  0.1125  1.1164 -0.2850
 8633TIP3    H147314   3.723   3.174  13.995  3.1025  1.3329 -0.7237
 8633TIP3    H247315   3.617   3.169  13.887  0.0579  3.1593  2.0090
 8634TIP3   OH247316   1.260   4.097  11.401  0.5848 -0.1020 -0.1493
 8634TIP3    H147317   1.177   4.093  11.354 -0.4157 -1.5965  1.5839
 8634TIP3    H247318   1.306   4.018  11.374  0.7061 -0.1274  0.1276
 8635TIP3   OH247319   1.560   3.340  16.734 -0.2248  0.4173  0.2333
 8635TIP3    H147320   1.567   3.339  16.829 -0.8633 -0.4167  0.2853
 8635TIP3    H247321   1.650   3.347  16.703  0.4254 -3.1444  0.8881
 8636TIP3   OH247322   2.897   5.657  16.812 -0.5175 -0.2050 -0.1136
 8636TIP3    H147323   2.884   5.731  16.753 -0.1359 -0.3223 -0.3489
 8636TIP3    H247324   2.841   5.676  16.887  0.8642  1.1633  0.6172
 8637TIP3   OH247325   2.647   4.601  12.047 -0.3825  0.5410  0.3364
 8637TIP3    H147326   2.562   4.572  12.080 -0.6561  0.7367 -0.1795
 8637TIP3    H247327   2.638   4.695  12.034  0.3220  0.7727  1.4604
 8638TIP3   OH247328   0.880   1.337  16.513 -0.4234  0.0466  0.1585
 8638TIP3    H147329   0.847   1.247  16.506 -0.4773  0.0999 -0.3615
 8638TIP3    H247330   0.916   1.343  16.601  0.0506 -0.6462  0.0249
 8639TIP3   OH247331   5.745   1.800  13.213  0.5938  0.1367  0.0346
 8639TIP3    H147332   5.713   1.718  13.250 -0.2364 -0.1805 -1.3055
 8639TIP3    H247333   5.804   1.836  13.280  1.8599 -2.0709  0.1864
 8640TIP3   OH247334   6.386   5.823   1.183 -0.3586 -0.0033  0.3215
 8640TIP3    H147335   6.304   5.830   1.134 -1.3043  2.0003  2.0009
 8640TIP3    H247336   6.450   5.869   1.129 -1.2113  1.5199  0.5434
 8641TIP3   OH247337   2.165   3.820   3.144 -0.2843  0.1332  0.3330
 8641TIP3    H147338   2.229   3.771   3.092 -1.5499 -1.5399  0.2797
 8641TIP3    H247339   2.113   3.868   3.079 -0.6928 -0.5088  0.1809
 8642TIP3   OH247340   3.808   3.220   1.087  0.0870  0.3106 -0.0713
 8642TIP3    H147341   3.862   3.178   1.019  0.5115  0.2719  0.2822
 8642TIP3    H247342   3.787   3.150   1.148  0.1940  0.4623  0.1417
 8643TIP3   OH247343   5.711   3.284  14.394 -0.2935  0.3536 -0.0628
 8643TIP3    H147344   5.627   3.240  14.411 -0.1572  0.2019  0.2128
 8643TIP3    H247345   5.713   3.356  14.458  0.2724 -0.2886  0.6542
 8644TIP3   OH247346   2.909   0.224   0.829 -0.1203 -0.1220 -0.2783
 8644TIP3    H147347   2.980   0.227   0.892  0.7481 -1.9602 -1.1035
 8644TIP3    H247348   2.855   0.150   0.855 -3.1190  2.4537  1.6232
 8645TIP3   OH247349   0.956   6.049  14.874 -0.3063 -0.0624  0.3440
 8645TIP3    H147350   0.990   5.967  14.837 -2.1966 -0.5624 -0.3684
 8645TIP3    H247351   1.029   6.111  14.865  0.4666 -1.1118 -1.0173
 8646TIP3   OH247352   2.358   0.001   4.230  0.1921 -0.7191 -0.2533
 8646TIP3    H147353   2.332  -0.074   4.283  0.3253 -1.4976 -1.2606
 8646TIP3    H247354   2.424   0.046   4.283 -1.7909  0.2540  1.5404
 8647TIP3   OH247355   6.725   6.544   4.118 -0.8377  0.3541  0.3158
 8647TIP3    H147356   6.733   6.636   4.141 -1.4071  0.3348  0.6257
 8647TIP3    H247357   6.747   6.497   4.199  1.4637  0.1334 -0.3709
 8648TIP3   OH247358   6.664   5.813  15.680 -0.0315  0.3074 -0.3823
 8648TIP3    H147359   6.595   5.843  15.620 -0.3908  0.3550  0.0531
 8648TIP3    H247360   6.645   5.858  15.762  0.3873  0.1394 -0.1927
 8649TIP3   OH247361   6.744   6.145  13.353 -0.5516 -0.3849 -0.3066
 8649TIP3    H147362   6.725   6.204  13.280 -0.1859 -0.0993 -0.1737
 8649TIP3    H247363   6.764   6.203  13.427  0.9459 -0.6517 -0.4672
 8650TIP3   OH247364   4.483   5.199  13.019  0.3030  0.0515  0.0074
 8650TIP3    H147365   4.527   5.117  12.995  0.5165 -0.7404  2.6827
 8650TIP3    H247366   4.554   5.263  13.028  0.6334 -0.4692  1.4522
 8651TIP3   OH247367   3.491   0.838   3.750 -0.1454 -0.1129 -0.0239
 8651TIP3    H147368   3.461   0.783   3.822  0.1563 -0.2761 -0.0227
 8651TIP3    H247369   3.501   0.925   3.789  0.9485 -0.4010  0.3769
 8652TIP3   OH247370   6.253   3.542   4.162 -0.3088 -0.5838  0.1613
 8652TIP3    H147371   6.267   3.585   4.246 -0.2812 -1.8232  0.8244
 8652TIP3    H247372   6.340   3.534   4.123 -0.3214 -0.0118  0.0126
 8653TIP3   OH247373   3.223   1.026  10.578  0.0807  0.1996 -0.3255
 8653TIP3    H147374   3.203   1.063  10.492  0.6398  1.6037  0.1206
 8653TIP3    H247375   3.319   1.024  10.581  0.0619 -0.5460 -0.0091
 8654TIP3   OH247376   3.524   2.574  12.037  0.2121 -0.0940 -0.3104
 8654TIP3    H147377   3.432   2.589  12.060  0.7116 -0.0924  1.8848
 8654TIP3    H247378   3.540   2.482  12.059  0.9567  0.1510  0.2232
 8655TIP3   OH247379   2.078   2.303   4.834  0.4702  0.2254  0.1067
 8655TIP3    H147380   2.089   2.342   4.921  0.0127  0.8787 -0.1169
 8655TIP3    H247381   2.162   2.317   4.791  1.2230 -1.4407  0.9422
 8656TIP3   OH247382   4.780   2.655  16.447  0.4557  0.0854  0.3799
 8656TIP3    H147383   4.838   2.731  16.434  0.2356 -0.1663 -3.0670
 8656TIP3    H247384   4.831   2.580  16.416 -0.1040 -0.8872  1.7144
 8657TIP3   OH247385   2.097   5.910   4.009 -0.1346 -0.6159 -0.0455
 8657TIP3    H147386   2.055   5.939   3.928  1.5809 -0.1094 -0.8012
 8657TIP3    H247387   2.132   5.990   4.048 -0.2323 -0.9644  0.7984
 8658TIP3   OH247388   1.282   6.536  12.956 -0.5889 -0.4942 -0.2440
 8658TIP3    H147389   1.229   6.460  12.981 -2.0986  0.1642 -1.2616
 8658TIP3    H247390   1.290   6.530  12.861  0.8660 -0.3645 -0.1413
 8659TIP3   OH247391   1.687   3.943   5.217 -0.1615  0.3922  0.3420
 8659TIP3    H147392   1.611   3.988   5.255 -0.1192 -0.3964  1.3894
 8659TIP3    H247393   1.704   3.991   5.136 -1.2750  1.0914  0.4920
 8660TIP3   OH247394   1.944   4.592   5.332 -0.0817 -0.3424 -0.2660
 8660TIP3    H147395   1.905   4.651   5.396 -0.8337  0.0438 -1.0628
 8660TIP3    H247396   1.907   4.506   5.353  0.7373 -0.4864  0.6656
 8661TIP3   OH247397   6.621   1.038  13.429  0.0668 -0.0913  0.1732
 8661TIP3    H147398   6.559   0.966  13.418  0.1053 -0.3644  1.5575
 8661TIP3    H247399   6.566   1.111  13.460 -0.0834  0.7067 -1.8466
 8662TIP3   OH247400   6.252   5.170   6.345  0.0942  0.1461 -0.2454
 8662TIP3    H147401   6.199   5.173   6.266  3.4032 -0.2000 -2.6561
 8662TIP3    H247402   6.314   5.098   6.330  1.5663  0.7828  2.1698
 8663TIP3   OH247403   0.633   5.583  15.327 -0.2440 -0.1863  0.5707
 8663TIP3    H147404   0.722   5.573  15.361  0.4900  0.2246 -1.1124
 8663TIP3    H247405   0.588   5.637  15.392  0.8826 -0.0095  1.2224
 8664TIP3   OH247406   1.398   5.395  15.898 -0.9351 -0.3446 -0.1566
 8664TIP3    H147407   1.364   5.321  15.848  1.4683  0.5399 -3.5040
 8664TIP3    H247408   1.326   5.457  15.903 -1.7441 -1.1785 -1.1462
 8665TIP3   OH247409   5.496   4.272   4.172  0.0156  0.1493 -0.1636
 8665TIP3    H147410   5.402   4.264   4.155  0.2425  1.4155 -2.4162
 8665TIP3    H247411   5.504   4.352   4.224 -0.2097 -0.6775  1.2074
 8666TIP3   OH247412   6.681   5.452  13.923 -0.1856 -0.2203  0.1799
 8666TIP3    H147413   6.716   5.524  13.870  0.5992 -0.2496  0.6354
 8666TIP3    H247414   6.758   5.413  13.963 -0.7614 -0.2009  1.3402
 8667TIP3   OH247415   0.103   3.060  13.868  0.0820 -0.1538  0.1844
 8667TIP3    H147416   0.048   3.002  13.815  1.5901 -2.7038  1.2404
 8667TIP3    H247417   0.041   3.109  13.922 -1.2489 -0.7707 -0.7336
 8668TIP3   OH247418   3.661   0.341  17.247 -0.6911  0.0431  0.2464
 8668TIP3    H147419   3.614   0.372  17.324 -2.6308 -1.1115 -0.3986
 8668TIP3    H247420   3.703   0.419  17.211 -1.7238  1.0342  1.1317
 8669TIP3   OH247421   1.840   2.123   1.667 -0.4841  0.6212  0.4884
 8669TIP3    H147422   1.779   2.106   1.738 -0.0223  0.6110  0.8854
 8669TIP3    H247423   1.831   2.217   1.649 -1.4747  0.4043 -0.2626
 8670TIP3   OH247424   3.857   1.561  17.255  0.2360  0.8543 -0.0621
 8670TIP3    H147425   3.846   1.635  17.314 -1.0344  0.3080  0.4255
 8670TIP3    H247426   3.792   1.575  17.186  0.8803  0.8565 -0.6840
 8671TIP3   OH247427   6.743   3.266  15.868 -0.4986 -0.6115  0.0679
 8671TIP3    H147428   6.776   3.355  15.868 -2.2035  0.0697 -0.2531
 8671TIP3    H247429   6.783   3.225  15.792 -0.5637  0.2389 -0.4369
 8672TIP3   OH247430   5.110   4.726  14.326 -0.0506  0.5000  0.2938
 8672TIP3    H147431   5.177   4.717  14.394  1.3623  0.5916 -1.0376
 8672TIP3    H247432   5.147   4.789  14.264 -2.4664  2.5949  0.7851
 8673TIP3   OH247433   1.072   1.070  16.629 -0.1200  0.0822  0.5693
 8673TIP3    H147434   1.099   1.153  16.668 -1.1787 -0.0437  1.6127
 8673TIP3    H247435   0.998   1.042  16.681  0.0857 -1.4308  0.0896
 8674TIP3   OH247436   4.675   2.723   0.462 -0.0836 -0.0950  0.3310
 8674TIP3    H147437   4.617   2.661   0.506 -1.3572  0.6856 -0.2016
 8674TIP3    H247438   4.616   2.783   0.416  1.1545  0.4789 -0.5701
 8675TIP3   OH247439   6.168   5.255   6.599  0.3208  0.5707  0.0920
 8675TIP3    H147440   6.072   5.259   6.588  0.1477 -0.5454  1.1097
 8675TIP3    H247441   6.200   5.231   6.512 -0.2690  1.3940 -0.3781
 8676TIP3   OH247442   3.249   1.864  12.295 -0.4858 -0.0986 -0.1787
 8676TIP3    H147443   3.288   1.860  12.207 -1.6755 -0.0216 -0.7259
 8676TIP3    H247444   3.294   1.796  12.344  3.0096  2.3298  0.3618
 8677TIP3   OH247445   2.225   3.062   5.764 -1.1479 -0.4124 -0.3999
 8677TIP3    H147446   2.282   3.134   5.794 -0.9436 -0.0986 -1.4859
 8677TIP3    H247447   2.228   2.998   5.835 -1.1697  0.5606  0.5023
 8678TIP3   OH247448   2.712   3.443   2.068  0.1894 -0.3764 -0.1330
 8678TIP3    H147449   2.704   3.365   2.123  0.0272  1.4021  2.5574
 8678TIP3    H247450   2.762   3.505   2.122  1.2141  1.0442 -2.5793
 8679TIP3   OH247451   4.231   4.992  17.209 -0.2355 -0.1870 -0.2584
 8679TIP3    H147452   4.275   4.908  17.195  0.0124 -0.0492 -0.2961
 8679TIP3    H247453   4.138   4.973  17.193 -0.3781 -0.7892  1.1712
 8680TIP3   OH247454   3.664   4.845  16.291  0.1335 -0.1894 -0.0804
 8680TIP3    H147455   3.726   4.918  16.298  0.2331 -0.2698 -0.1126
 8680TIP3    H247456   3.580   4.886  16.270  0.4064 -0.1560 -1.1934
 8681TIP3   OH247457   6.573   5.669  16.407  0.3773 -0.0862 -0.2913
 8681TIP3    H147458   6.542   5.580  16.424 -1.3851  0.3170 -1.1857
 8681TIP3    H247459   6.651   5.678  16.462  1.6694 -2.7609 -1.4979
 8682TIP3   OH247460   1.858   5.174   5.056  0.6719 -0.1087 -0.3894
 8682TIP3    H147461   1.812   5.139   4.979 -1.0597 -1.4755  1.1833
 8682TIP3    H247462   1.942   5.128   5.057  1.2117  0.7428 -2.0294
 8683TIP3   OH247463   2.961   3.170   1.367  0.7213 -0.3451  0.2453
 8683TIP3    H147464   2.888   3.199   1.313 -1.1889 -2.6824  1.4178
 8683TIP3    H247465   2.939   3.200   1.455  1.0664 -1.2784  0.6570
 8684TIP3   OH247466   6.562   5.097  14.478 -0.0313  0.2653  0.4005
 8684TIP3    H147467   6.605   5.041  14.413  0.0810  0.6435  0.1503
 8684TIP3    H247468   6.477   5.119  14.439 -0.8179 -1.1409  1.2342
 8685TIP3   OH247469   0.149   3.327  13.638 -0.3315 -0.3345 -0.1781
 8685TIP3    H147470   0.196   3.246  13.620  2.8366  0.9447  1.6168
 8685TIP3    H247471   0.122   3.359  13.552 -1.6770 -3.1965 -0.9242
 8686TIP3   OH247472   3.745   0.869   4.341  0.0182  0.2957 -0.5284
 8686TIP3    H147473   3.808   0.886   4.411  0.4121  0.9432 -1.0271
 8686TIP3    H247474   3.686   0.803   4.377  1.1760 -0.5738 -0.1668
 8687TIP3   OH247475   4.460   0.717   4.092  0.3803 -0.6482  0.1699
 8687TIP3    H147476   4.555   0.716   4.098  0.5882  1.4300 -1.4428
 8687TIP3    H247477   4.439   0.651   4.026  0.6069 -1.6713  1.0995
 8688TIP3   OH247478   4.437   3.751   0.424 -0.9185 -0.1296 -0.1945
 8688TIP3    H147479   4.506   3.810   0.394 -0.6934 -0.4824 -0.3781
 8688TIP3    H247480   4.393   3.799   0.494 -0.3329  0.0041  0.0861
 8689TIP3   OH247481   0.923   0.151   3.642 -0.0180 -0.8804 -0.4998
 8689TIP3    H147482   1.015   0.126   3.636  0.2478 -0.3325  0.7871
 8689TIP3    H247483   0.891   0.106   3.720 -0.7201 -0.7162 -0.6846
 8690TIP3   OH247484   1.479   3.630   4.255  0.9465  0.1232 -0.1822
 8690TIP3    H147485   1.456   3.697   4.319  0.4666 -1.2815  1.1885
 8690TIP3    H247486   1.572   3.612   4.271  0.4746 -1.2561  1.1621
 8691TIP3   OH247487   1.956   2.873  12.998 -0.1540  0.7138  0.4645
 8691TIP3    H147488   1.959   2.786  12.957 -2.0973  1.4174 -1.3888
 8691TIP3    H247489   2.047   2.893  13.020  0.5361 -1.1561 -0.4554
 8692TIP3   OH247490   1.177   4.577   4.279  0.0204  0.3906  0.2109
 8692TIP3    H147491   1.208   4.487   4.273 -1.2787 -0.0742  0.0308
 8692TIP3    H247492   1.255   4.629   4.295  1.3617 -0.2993 -3.3447
 8693TIP3   OH247493   2.607   0.842   5.784  0.9685  0.1221 -0.5792
 8693TIP3    H147494   2.694   0.849   5.821  0.4701 -0.8763  0.8903
 8693TIP3    H247495   2.593   0.747   5.772  0.0729  0.2578 -0.7345
 8694TIP3   OH247496   2.161   3.759  16.181 -1.2160 -0.4948 -0.0113
 8694TIP3    H147497   2.219   3.784  16.253  1.5315 -1.2310 -1.8271
 8694TIP3    H247498   2.154   3.663  16.188 -0.6378 -0.6154 -0.8646
 8695TIP3   OH247499   6.117   0.145  13.197  0.3032 -0.0750 -0.2345
 8695TIP3    H147500   6.193   0.185  13.240 -1.4946  3.5239 -0.0607
 8695TIP3    H247501   6.095   0.205  13.126 -0.7820 -2.4751 -2.0731
 8696TIP3   OH247502   5.100   3.987  14.932  0.2178 -0.7487  0.1477
 8696TIP3    H147503   5.085   3.923  15.001 -2.6989 -0.9599 -0.5505
 8696TIP3    H247504   5.075   4.071  14.972 -2.2686 -0.9694 -0.7416
 8697TIP3   OH247505   6.020   0.972  11.478  0.2708 -0.3546  0.3866
 8697TIP3    H147506   6.011   1.035  11.406 -1.4566 -1.3396 -0.3470
 8697TIP3    H247507   6.077   1.015  11.541  1.8436  0.5639 -1.5494
 8698TIP3   OH247508   4.255   3.369   2.215 -0.0806  0.0065  0.4341
 8698TIP3    H147509   4.164   3.373   2.246 -0.0427 -0.4477  0.6117
 8698TIP3    H247510   4.250   3.399   2.124 -0.2752  0.8218  0.7059
 8699TIP3   OH247511   1.290   1.044  16.301 -0.6324 -0.3640 -0.4371
 8699TIP3    H147512   1.362   0.983  16.316 -1.2458 -0.7770  1.0566
 8699TIP3    H247513   1.299   1.071  16.210  1.7797  0.0866 -0.1175
 8700TIP3   OH247514   2.701   4.463  11.255 -0.0780  0.4661  0.5729
 8700TIP3    H147515   2.684   4.385  11.308  1.4501  0.0950  0.5853
 8700TIP3    H247516   2.698   4.432  11.165  2.1947 -0.0629  0.6023
 8701TIP3   OH247517   1.840   4.029  12.590 -0.0278 -0.2828 -0.1987
 8701TIP3    H147518   1.904   3.994  12.528 -0.8704  0.3526 -1.4744
 8701TIP3    H247519   1.768   3.965  12.590 -1.1530  0.8985 -1.8318
 8702TIP3   OH247520   1.722   0.080  15.505  0.6888 -0.2060  0.1878
 8702TIP3    H147521   1.724  -0.016  15.508  1.3363 -0.2376 -0.6177
 8702TIP3    H247522   1.799   0.103  15.451  0.8417  0.7842  0.8124
 8703TIP3   OH247523   2.729   0.441  16.883 -0.0123 -0.2739  0.6307
 8703TIP3    H147524   2.777   0.365  16.915  1.7804 -0.4699 -2.1359
 8703TIP3    H247525   2.766   0.515  16.931  2.2563 -0.5914 -0.4563
 8704TIP3   OH247526   4.800   3.187   3.610  0.2389  0.1319 -0.6190
 8704TIP3    H147527   4.747   3.260   3.643  0.6031  0.2603 -0.3151
 8704TIP3    H247528   4.887   3.225   3.597  0.3850 -0.2039 -0.6301
 8705TIP3   OH247529   3.135   2.369  15.742 -0.1610  0.8238  0.1324
 8705TIP3    H147530   3.229   2.358  15.755 -0.1069 -1.2745 -1.5321
 8705TIP3    H247531   3.097   2.360  15.829  1.0529 -0.1526  0.5830
 8706TIP3   OH247532   5.923   6.106   3.065  0.6930 -0.6044 -0.3198
 8706TIP3    H147533   5.827   6.104   3.061  0.6837 -0.1744 -0.4230
 8706TIP3    H247534   5.948   6.165   2.993  1.0088 -0.3356  0.0058
 8707TIP3   OH247535   5.768   0.123   2.202 -0.5424  0.0390 -0.2082
 8707TIP3    H147536   5.719   0.120   2.120  0.9058 -0.0611 -1.1164
 8707TIP3    H247537   5.856   0.153   2.177 -0.4965  1.5662  1.5451
 8708TIP3   OH247538   1.409   3.155   4.471 -0.1164  0.3364  0.1028
 8708TIP3    H147539   1.464   3.224   4.506 -0.5572  0.3890  0.7072
 8708TIP3    H247540   1.464   3.109   4.408  0.6096  0.3951  0.6855
 8709TIP3   OH247541   2.887   2.404   3.526 -0.5123  0.2919 -0.2276
 8709TIP3    H147542   2.924   2.491   3.543  1.1794  0.0209 -2.0820
 8709TIP3    H247543   2.951   2.343   3.565 -2.0341 -0.1686  1.6857
 8710TIP3   OH247544   1.757   4.317   0.498 -0.2170  0.1902 -0.0493
 8710TIP3    H147545   1.761   4.398   0.548 -0.3249 -0.3832  0.9055
 8710TIP3    H247546   1.767   4.345   0.407  0.8008  1.1753  0.3384
 8711TIP3   OH247547   1.450   2.001  13.703  0.0611  0.3905 -0.7107
 8711TIP3    H147548   1.444   2.082  13.752  1.4984  1.4733 -2.1918
 8711TIP3    H247549   1.447   2.028  13.611  0.5468 -1.2216 -1.2375
 8712TIP3   OH247550   2.956   2.181  15.938 -0.1174  0.3809  0.4738
 8712TIP3    H147551   3.010   2.127  15.880 -1.0759  2.7410 -2.9881
 8712TIP3    H247552   2.866   2.161  15.912 -0.6803  0.6226  2.1257
 8713TIP3   OH247553   0.552   1.984   4.273 -0.2560  0.3467  0.2626
 8713TIP3    H147554   0.506   1.926   4.334 -0.0774 -0.4820 -0.3732
 8713TIP3    H247555   0.621   1.929   4.235  1.9484  1.7794  1.8939
 8714TIP3   OH247556   3.743   5.293   0.231 -0.0933  0.0638  0.0882
 8714TIP3    H147557   3.715   5.384   0.234 -1.4818 -0.2463 -1.4817
 8714TIP3    H247558   3.781   5.276   0.317 -0.4601  1.9048  0.6562
 8715TIP3   OH247559   0.290   6.454  11.909  0.6945 -0.2217 -0.9822
 8715TIP3    H147560   0.339   6.442  11.827  1.3066  0.8570 -0.7885
 8715TIP3    H247561   0.207   6.409  11.893  0.5810  0.4172 -2.4060
 8716TIP3   OH247562   6.052   4.319   3.931  0.1171  0.0563 -0.0349
 8716TIP3    H147563   6.042   4.226   3.950  1.9613 -0.4100 -1.1110
 8716TIP3    H247564   5.988   4.337   3.862 -0.2083 -0.4152  0.1392
 8717TIP3   OH247565   3.215   0.039  13.490  0.2620 -0.4585  0.6147
 8717TIP3    H147566   3.237   0.091  13.567  0.8032 -0.6495  0.5951
 8717TIP3    H247567   3.192   0.103  13.423  1.0546 -0.2383  0.5486
 8718TIP3   OH247568   1.425   6.238  16.465 -0.5345  0.3271 -0.0831
 8718TIP3    H147569   1.454   6.187  16.541 -1.2117  1.0413  0.6827
 8718TIP3    H247570   1.488   6.217  16.396  0.4136  0.0744  0.8337
 8719TIP3   OH247571   6.354   0.067   4.870  0.4267  0.3658 -0.6151
 8719TIP3    H147572   6.292   0.139   4.885  0.1139  0.2268 -1.2123
 8719TIP3    H247573   6.307   0.006   4.813  0.4133 -0.6920  0.4950
 8720TIP3   OH247574   6.641   0.259  12.952  0.2273 -0.5244 -0.2684
 8720TIP3    H147575   6.599   0.207  13.020  1.4006 -0.8100  0.2715
 8720TIP3    H247576   6.731   0.228  12.951  0.7591  0.9324 -0.4949
 8721TIP3   OH247577   1.361   5.760  10.726  0.1302  0.5643  0.4210
 8721TIP3    H147578   1.307   5.835  10.751  0.6230  1.2334 -0.4407
 8721TIP3    H247579   1.325   5.733  10.641  0.1964  0.0617  0.5529
 8722TIP3   OH247580   5.297   2.023  13.656  0.5286  0.8087  0.0675
 8722TIP3    H147581   5.324   2.108  13.619  2.4168 -0.2150 -1.0781
 8722TIP3    H247582   5.240   2.046  13.729  1.3810  3.1001  0.1096
 8723TIP3   OH247583   4.017   2.241  12.996  0.1980 -0.6239 -0.1281
 8723TIP3    H147584   4.048   2.295  13.069  1.2689 -0.4652 -0.6892
 8723TIP3    H247585   4.090   2.184  12.976  0.4214  0.2387 -1.9445
 8724TIP3   OH247586   5.331   5.105   5.579 -0.1635 -0.1331  0.1655
 8724TIP3    H147587   5.418   5.070   5.596  0.6740  0.9546 -1.6122
 8724TIP3    H247588   5.330   5.191   5.621  0.1841  0.4861 -1.0462
 8725TIP3   OH247589   2.113   5.745   3.632 -0.1112  0.4595 -0.5407
 8725TIP3    H147590   2.144   5.681   3.696  1.2270  1.4994 -0.1042
 8725TIP3    H247591   2.049   5.697   3.580 -1.7357 -0.2651  1.9312
 8726TIP3   OH247592   6.652   1.579  14.226  0.2168  0.1379  0.7906
 8726TIP3    H147593   6.697   1.510  14.275 -2.1628 -2.1647  0.0436
 8726TIP3    H247594   6.693   1.578  14.140 -0.2335 -0.9374  0.5612
 8727TIP3   OH247595   0.084   0.099  13.048  0.3110 -0.4308  0.0832
 8727TIP3    H147596   0.080   0.156  13.125  1.5474  2.4129 -1.7918
 8727TIP3    H247597   0.157   0.040  13.064 -0.1836 -0.6735  1.5442
 8728TIP3   OH247598   2.656   4.238  14.433  0.2653 -0.3910  0.4566
 8728TIP3    H147599   2.725   4.256  14.369 -0.1350 -0.0972  0.0976
 8728TIP3    H247600   2.651   4.143  14.438  0.5967 -0.4137  0.3769
 8729TIP3   OH247601   3.358   2.607  12.681  0.3085  0.0298 -0.2840
 8729TIP3    H147602   3.369   2.697  12.713 -1.5520  0.0235  0.4994
 8729TIP3    H247603   3.424   2.597  12.613  1.1213  1.7038  0.2163
 8730TIP3   OH247604   2.298   5.332  10.855 -0.1414  0.1158  0.3535
 8730TIP3    H147605   2.287   5.240  10.831  0.0925 -0.2777  1.7008
 8730TIP3    H247606   2.209   5.364  10.870 -0.2048  0.0535  0.1211
 8731TIP3   OH247607   1.827   1.638   5.801  0.1363 -0.5250  0.0914
 8731TIP3    H147608   1.890   1.622   5.872  0.3266 -0.5723 -0.0871
 8731TIP3    H247609   1.879   1.679   5.732 -0.6349  2.5904  1.1869
 8732TIP3   OH247610   3.304   0.916   5.976 -0.3827  0.0582 -0.1720
 8732TIP3    H147611   3.252   0.967   6.037 -2.3736  0.5031 -2.1137
 8732TIP3    H247612   3.380   0.971   5.956  1.3002 -0.7959  3.0520
 8733TIP3   OH247613   5.718   3.667  16.646 -0.4983  0.2900 -0.1407
 8733TIP3    H147614   5.765   3.585  16.660 -0.8174  0.1597  0.1947
 8733TIP3    H247615   5.774   3.734  16.686 -0.8136  0.0762  0.6945
 8734TIP3   OH247616   1.458   0.027   2.566  0.3368  0.1875  0.2185
 8734TIP3    H147617   1.493   0.065   2.646  0.7171  1.2234 -0.4196
 8734TIP3    H247618   1.384  -0.026   2.594  1.3783 -0.6975  1.4209
 8735TIP3   OH247619   3.405   1.161  11.703  0.6430 -0.1739 -0.2257
 8735TIP3    H147620   3.377   1.249  11.678 -2.0053  0.5621  4.1740
 8735TIP3    H247621   3.485   1.175  11.754  1.6404 -0.6970 -1.5979
 8736TIP3   OH247622   2.169   1.086  11.266 -0.1299 -0.6933 -0.5419
 8736TIP3    H147623   2.248   1.136  11.286 -0.2290 -0.8864  0.3788
 8736TIP3    H247624   2.179   1.060  11.175  0.6866 -0.3941 -0.5428
 8737TIP3   OH247625   0.857   1.675   1.296  0.1022  0.2469 -0.1163
 8737TIP3    H147626   0.795   1.623   1.347  0.3695  0.4211  0.3900
 8737TIP3    H247627   0.819   1.678   1.208  0.1787 -0.9732 -0.2119
 8738TIP3   OH247628   2.320   2.450   6.162 -0.1305  0.1327  0.3233
 8738TIP3    H147629   2.307   2.517   6.229 -0.4398  1.5802 -1.1234
 8738TIP3    H247630   2.242   2.395   6.169 -0.2338  0.3483  1.0328
 8739TIP3   OH247631   4.090   2.586  11.511  0.2734  0.1309  0.0364
 8739TIP3    H147632   4.179   2.579  11.477  0.5733 -0.3887  0.9139
 8739TIP3    H247633   4.095   2.654  11.578 -0.4872  1.7261 -1.4629
 8740TIP3   OH247634   1.638   0.446   3.825 -0.2134  0.0587  0.3852
 8740TIP3    H147635   1.568   0.450   3.891  1.3932  0.9423  2.1486
 8740TIP3    H247636   1.713   0.411   3.873  0.4097 -1.5656 -1.6432
 8741TIP3   OH247637   2.965   1.871  13.913 -0.2725 -0.2868 -0.0828
 8741TIP3    H147638   3.019   1.795  13.891 -0.3598 -0.0915 -1.0294
 8741TIP3    H247639   2.889   1.864  13.856 -1.8853 -1.1886  2.0440
 8742TIP3   OH247640   4.752   6.145   1.130 -0.1064  0.2138 -0.5469
 8742TIP3    H147641   4.765   6.112   1.041  1.6785 -0.2509 -0.1569
 8742TIP3    H247642   4.834   6.125   1.175 -1.2221 -0.1867  1.4134
 8743TIP3   OH247643   1.992   4.938   0.148  0.4996  0.5576 -0.1121
 8743TIP3    H147644   1.943   4.859   0.127  1.5698 -0.4590  1.0456
 8743TIP3    H247645   1.958   5.004   0.088 -2.1854 -0.1136  0.5462
 8744TIP3   OH247646   3.497   2.241   2.829  0.3014  0.4884  0.4804
 8744TIP3    H147647   3.497   2.305   2.901 -1.7238  0.1230  0.8763
 8744TIP3    H247648   3.412   2.253   2.787  1.3445  0.5189 -1.7621
 8745TIP3   OH247649   1.421   6.102   4.828 -0.4691  0.3829 -0.4913
 8745TIP3    H147650   1.327   6.099   4.809 -0.3729 -0.1357 -0.8958
 8745TIP3    H247651   1.462   6.067   4.750  0.0529  0.4005 -0.2256
 8746TIP3   OH247652   3.182   0.650  13.972 -0.2665 -0.6262  0.1364
 8746TIP3    H147653   3.224   0.637  13.887 -0.0914  1.2720 -0.1060
 8746TIP3    H247654   3.254   0.670  14.031 -0.7199  4.1726 -0.5831
 8747TIP3   OH247655   2.491   3.076   6.003 -0.7839 -0.3719 -0.4585
 8747TIP3    H147656   2.402   3.042   5.996 -2.0791  1.9284  2.6703
 8747TIP3    H247657   2.536   3.014   6.060 -1.5001  0.2153  0.7926
 8748TIP3   OH247658   2.538   6.349  17.057 -0.2706 -0.2655  1.4324
 8748TIP3    H147659   2.609   6.403  17.092  1.1261 -0.8143 -0.4057
 8748TIP3    H247660   2.557   6.261  17.088  0.2396 -0.5261  0.4074
 8749TIP3   OH247661   4.181   4.789  16.528  0.0202  0.2434  0.5378
 8749TIP3    H147662   4.200   4.727  16.458 -0.7168 -0.5564  1.0355
 8749TIP3    H247663   4.213   4.873  16.494 -1.3544  0.1083 -1.2380
 8750TIP3   OH247664   5.539   2.869  14.558 -0.1552 -0.2197  0.1681
 8750TIP3    H147665   5.525   2.776  14.576 -1.2313 -0.2904 -0.9278
 8750TIP3    H247666   5.462   2.912  14.595 -0.6898 -0.0113 -1.1284
 8751TIP3   OH247667   0.823   1.832  12.682 -0.1527 -0.3363 -0.0063
 8751TIP3    H147668   0.839   1.858  12.591 -0.4040  1.3130  0.3861
 8751TIP3    H247669   0.782   1.746  12.675 -0.1715 -0.2417 -1.4617
 8752TIP3   OH247670   1.539   2.063   5.199 -0.2326  0.1748  0.2626
 8752TIP3    H147671   1.509   2.152   5.184  1.8117  0.7914 -0.5251
 8752TIP3    H247672   1.499   2.037   5.282 -0.9406  1.7697  0.4453
 8753TIP3   OH247673   0.491   1.734  11.158  0.2325  0.3741  0.6815
 8753TIP3    H147674   0.454   1.741  11.246 -0.6808  1.6776  0.2274
 8753TIP3    H247675   0.577   1.693  11.171 -0.4389 -0.7080  2.0069
 8754TIP3   OH247676   5.511   0.984   5.005  0.0516 -0.7663  0.5293
 8754TIP3    H147677   5.468   0.979   4.920 -1.1027 -2.1003  1.1440
 8754TIP3    H247678   5.604   0.971   4.986 -0.2649 -1.7562 -0.4703
 8755TIP3   OH247679   1.118   0.153  11.827  0.5573 -0.0265  0.7971
 8755TIP3    H147680   1.023   0.144  11.820  0.4336  0.0619  2.2089
 8755TIP3    H247681   1.147   0.075  11.874  1.2507 -0.2528  0.0335
 8756TIP3   OH247682   6.184   3.656   2.650  0.2378 -0.2691 -0.0214
 8756TIP3    H147683   6.102   3.696   2.679  0.6956  0.4333  0.3267
 8756TIP3    H247684   6.158   3.570   2.616 -0.6849  0.0904 -0.2509
 8757TIP3   OH247685   0.455   3.797   5.663  0.0623 -0.9278 -0.2002
 8757TIP3    H147686   0.373   3.846   5.659  1.0542  0.7429 -1.0240
 8757TIP3    H247687   0.483   3.803   5.754  1.1435  1.8204 -0.6299
 8758TIP3   OH247688   3.506   3.585   3.258  0.1641 -0.2735  0.2950
 8758TIP3    H147689   3.423   3.547   3.229  1.1202  0.0120 -3.3180
 8758TIP3    H247690   3.554   3.512   3.296 -0.6797 -1.0706 -0.1344
 8759TIP3   OH247691   1.048   1.709   0.640 -0.1679 -0.8481  0.4237
 8759TIP3    H147692   1.142   1.708   0.621 -0.2607 -1.4717 -0.0519
 8759TIP3    H247693   1.040   1.755   0.723  0.7236 -2.2201  1.3157
 8760TIP3   OH247694   0.721   1.201  12.044 -0.4612  0.0766  0.4197
 8760TIP3    H147695   0.718   1.156  11.959 -0.7255  0.1606  0.3828
 8760TIP3    H247696   0.659   1.153  12.098  0.1089 -0.3104  0.7340
 8761TIP3   OH247697   3.694   0.487  12.739  0.3260 -0.3662 -0.1978
 8761TIP3    H147698   3.619   0.464  12.792 -0.1672  0.1100 -0.6739
 8761TIP3    H247699   3.766   0.499  12.802 -0.2693  0.2890  0.3668
 8762TIP3   OH247700   1.118   1.016  17.198 -0.4968 -0.5992  0.2682
 8762TIP3    H147701   1.155   1.025  17.111 -2.0224  0.2218 -0.3374
 8762TIP3    H247702   1.023   1.009  17.183 -0.6655 -2.1055  1.7599
 8763TIP3   OH247703   4.265   1.936   2.397  0.5324 -0.0334  0.4012
 8763TIP3    H147704   4.327   1.914   2.328  1.2264 -1.4314  1.4333
 8763TIP3    H247705   4.282   2.029   2.415  2.0713 -0.2912  0.4174
 8764TIP3   OH247706   0.779   2.130  15.007 -0.3417  0.1008  0.0220
 8764TIP3    H147707   0.792   2.165  15.095  0.6053  1.6521 -0.6950
 8764TIP3    H247708   0.771   2.208  14.952 -1.9193 -0.8406 -1.1409
 8765TIP3   OH247709   6.702   0.756   0.727 -0.2303 -0.1338 -0.3634
 8765TIP3    H147710   6.701   0.839   0.680 -2.2283 -1.1362 -2.2556
 8765TIP3    H247711   6.789   0.720   0.711  1.2184  2.1400  1.6962
 8766TIP3   OH247712   0.258   5.782  14.634 -0.4398 -0.2620  0.2860
 8766TIP3    H147713   0.167   5.764  14.655 -0.0861 -1.5908  0.7408
 8766TIP3    H247714   0.285   5.848  14.698 -0.8042 -0.5717  0.7605
 8767TIP3   OH247715   1.923   6.382  15.582  0.4365 -0.2577  0.5215
 8767TIP3    H147716   2.011   6.344  15.573  0.2217 -0.3920 -1.4646
 8767TIP3    H247717   1.868   6.328  15.525 -0.5940  0.8557  0.4212
 8768TIP3   OH247718   0.289   5.590   3.011  0.1839 -0.1765  0.0802
 8768TIP3    H147719   0.249   5.509   2.981 -0.6590  0.0547  0.5149
 8768TIP3    H247720   0.224   5.627   3.072  0.1783  1.2269 -0.7356
 8769TIP3   OH247721   1.898   6.407  12.426 -0.0124 -0.3067  0.4602
 8769TIP3    H147722   1.924   6.433  12.338  1.3931 -3.0975 -0.0868
 8769TIP3    H247723   1.932   6.475  12.484  1.9733 -0.0517 -0.9245
 8770TIP3   OH247724   3.593   4.053   0.793 -0.3412 -0.4423  0.0498
 8770TIP3    H147725   3.502   4.054   0.764 -1.2513 -1.1103  2.6178
 8770TIP3    H247726   3.607   3.964   0.826  1.3336 -0.4240 -0.5105
 8771TIP3   OH247727   4.983   5.996  11.215  0.1668 -0.3362 -0.5220
 8771TIP3    H147728   4.932   6.075  11.234  0.7237  0.0350 -0.5694
 8771TIP3    H247729   5.000   6.000  11.121  1.8808  0.5126 -0.2039
 8772TIP3   OH247730   1.606   4.582  12.951 -0.0007  0.1221  0.3292
 8772TIP3    H147731   1.662   4.638  13.005  1.6697 -0.7338 -0.4488
 8772TIP3    H247732   1.627   4.607  12.861  0.1491 -1.1447 -0.0031
 8773TIP3   OH247733   2.516   1.735   4.941 -0.3315 -0.5265 -0.2549
 8773TIP3    H147734   2.467   1.812   4.913  2.1114  1.0611 -0.4362
 8773TIP3    H247735   2.497   1.670   4.874 -0.0541  0.9425 -1.8258
 8774TIP3   OH247736   2.331   0.996   3.356 -0.2665 -0.1765 -0.0819
 8774TIP3    H147737   2.339   1.037   3.442 -0.2248  1.5702 -0.8759
 8774TIP3    H247738   2.381   0.914   3.364 -0.0982  0.0475  1.4760
 8775TIP3   OH247739   0.730   1.795   4.173 -0.6116  0.4169  0.0798
 8775TIP3    H147740   0.767   1.720   4.220 -3.1399  0.3806  2.2618
 8775TIP3    H247741   0.656   1.758   4.125 -0.3814  1.1366 -0.8521
 8776TIP3   OH247742   2.427   5.056  12.873 -0.2401 -0.4188  0.0987
 8776TIP3    H147743   2.411   4.964  12.894 -1.0544 -0.2433  0.2701
 8776TIP3    H247744   2.437   5.057  12.778  3.3302 -1.1956  0.2983
 8777TIP3   OH247745   2.858   3.078  11.965 -0.2362  0.1217  0.9822
 8777TIP3    H147746   2.811   3.105  12.044 -0.5621  1.4313  0.3789
 8777TIP3    H247747   2.849   2.983  11.963 -1.5740  0.1994  1.6969
 8778TIP3   OH247748   2.272   5.041  15.540 -0.2105 -0.1581 -0.0393
 8778TIP3    H147749   2.198   4.980  15.545  0.4465 -0.8926  1.1454
 8778TIP3    H247750   2.243   5.109  15.479 -1.3965 -1.0564 -0.5162
 8779TIP3   OH247751   0.977   1.792  13.831 -0.3580  0.1347  0.4807
 8779TIP3    H147752   0.908   1.847  13.869 -0.5122 -0.5006  1.1388
 8779TIP3    H247753   1.056   1.846  13.835 -0.4429  0.2146  1.3893
 8780TIP3   OH247754   2.810   5.265   2.611  0.0618 -0.1990 -0.1530
 8780TIP3    H147755   2.762   5.284   2.530  0.0454  1.4559  0.2278
 8780TIP3    H247756   2.845   5.349   2.639  0.9161 -0.9274  1.0372
 8781TIP3   OH247757   3.696   1.325  15.095 -0.3879 -0.4462 -0.3749
 8781TIP3    H147758   3.745   1.263  15.042 -0.8705  0.0598 -1.4341
 8781TIP3    H247759   3.746   1.407  15.089 -2.3413  0.6747 -3.1794
 8782TIP3   OH247760   5.194   6.608   3.255 -0.6470 -0.2947 -0.1861
 8782TIP3    H147761   5.107   6.634   3.284 -0.0841  1.1080  0.3522
 8782TIP3    H247762   5.183   6.520   3.219 -1.9525 -0.8839  1.5294
 8783TIP3   OH247763   4.769   2.911  14.571  0.8918  0.9055 -0.2526
 8783TIP3    H147764   4.733   2.839  14.520 -0.0433  0.9032  0.3968
 8783TIP3    H247765   4.708   2.923  14.643  2.8336  0.0247  1.6552
 8784TIP3   OH247766   0.717   2.707  11.498  0.4558 -0.2820 -0.1724
 8784TIP3    H147767   0.770   2.644  11.547  0.8667 -0.4228 -0.7774
 8784TIP3    H247768   0.643   2.656  11.466  0.3571 -0.2668  0.0342
 8785TIP3   OH247769   4.696   6.742  15.101 -0.5263 -0.2654 -0.0357
 8785TIP3    H147770   4.713   6.759  15.194 -1.9751 -1.8687  0.5806
 8785TIP3    H247771   4.783   6.726  15.064  0.1783  1.3806  0.7831
 8786TIP3   OH247772   4.606   0.605   5.119 -0.4463  0.1613 -0.3595
 8786TIP3    H147773   4.604   0.517   5.156 -1.0946  0.2180 -0.2477
 8786TIP3    H247774   4.604   0.663   5.195  2.5694  0.3211 -0.2815
 8787TIP3   OH247775   4.243   4.836   2.387 -0.1435  0.7491  0.5735
 8787TIP3    H147776   4.339   4.842   2.384 -0.1152  0.8071  1.4607
 8787TIP3    H247777   4.224   4.797   2.472 -0.9233  0.9155  0.4785
 8788TIP3   OH247778   4.499   2.651   1.787 -0.0190  0.0407  0.0034
 8788TIP3    H147779   4.536   2.566   1.765 -1.4683 -0.6938  0.3158
 8788TIP3    H247780   4.531   2.669   1.875  1.2412  0.3937 -0.5006
 8789TIP3   OH247781   1.761   2.458  11.737 -0.0437  0.5824 -0.3028
 8789TIP3    H147782   1.780   2.458  11.643 -0.5769  1.2183 -0.4214
 8789TIP3    H247783   1.826   2.516  11.775 -0.5610  1.2689 -0.4491
 8790TIP3   OH247784   5.587   3.245   0.626 -0.2096  0.2355 -0.0435
 8790TIP3    H147785   5.502   3.240   0.671  0.1132  0.9729  0.6598
 8790TIP3    H247786   5.587   3.331   0.585  0.2266  0.2603  0.0074
 8791TIP3   OH247787   6.283   1.415  10.499  0.6887 -0.1701  0.2857
 8791TIP3    H147788   6.310   1.442  10.587  0.5049 -2.5153  1.1306
 8791TIP3    H247789   6.364   1.405  10.450  0.7173  3.6441 -0.7193
 8792TIP3   OH247790   6.328   0.984  14.093  0.4187 -0.0327 -0.1391
 8792TIP3    H147791   6.308   1.042  14.019 -0.1303  1.9070  1.4172
 8792TIP3    H247792   6.359   1.044  14.161  1.4950 -1.8238  1.0073
 8793TIP3   OH247793   2.763   3.783  13.005 -0.5848  0.0664 -0.2194
 8793TIP3    H147794   2.756   3.704  12.952 -1.0030  1.3575 -2.2143
 8793TIP3    H247795   2.783   3.752  13.094 -0.4804 -2.2205 -0.9942
 8794TIP3   OH247796   5.093   3.886   1.303  0.2417  0.5466 -0.4992
 8794TIP3    H147797   5.079   3.968   1.349  0.5000  0.0415  0.5198
 8794TIP3    H247798   5.074   3.906   1.212  2.3981  2.2886 -0.6456
 8795TIP3   OH247799   0.894   4.687   5.336  0.4450  0.2864 -0.9435
 8795TIP3    H147800   0.928   4.630   5.267 -1.1921 -0.2999 -1.3135
 8795TIP3    H247801   0.891   4.774   5.296 -1.2807 -0.1906 -1.9652
 8796TIP3   OH247802   3.543   2.330   0.918  0.3260  0.3121  0.1195
 8796TIP3    H147803   3.616   2.317   0.979  0.7184  0.6201 -0.2809
 8796TIP3    H247804   3.481   2.260   0.940  0.7759 -0.0028  0.4125
 8797TIP3   OH247805   5.640   4.943   2.040  0.3515 -0.4990  0.0193
 8797TIP3    H147806   5.690   5.012   1.996  1.0069 -1.0591 -0.1377
 8797TIP3    H247807   5.564   4.929   1.984  0.5551 -0.3618 -0.2922
 8798TIP3   OH247808   5.757   2.015   6.568  0.3416  0.0937 -0.6503
 8798TIP3    H147809   5.826   1.991   6.507  0.9896 -1.3017  0.5594
 8798TIP3    H247810   5.763   2.111   6.575  3.5187 -0.0813  0.8921
 8799TIP3   OH247811   6.107   6.670  16.210 -0.1320  0.4904 -0.2289
 8799TIP3    H147812   6.102   6.610  16.135  0.8712 -0.3257  0.3290
 8799TIP3    H247813   6.172   6.735  16.183 -0.7593  0.9869 -0.5836
 8800TIP3   OH247814   1.336   4.517  14.334  0.1288  0.0908 -0.2043
 8800TIP3    H147815   1.363   4.476  14.416 -0.5354 -0.5287 -0.2810
 8800TIP3    H247816   1.286   4.594  14.361  1.2183  0.7673 -0.0565
 8801TIP3   OH247817   1.290   4.042  15.361  0.1726  0.2236 -0.3423
 8801TIP3    H147818   1.366   3.987  15.379  0.4927  0.7699 -0.0313
 8801TIP3    H247819   1.319   4.131  15.377 -0.0286  0.6071 -1.8888
 8802TIP3   OH247820   3.200   0.063  11.434  0.2949 -0.5115 -0.4955
 8802TIP3    H147821   3.222   0.099  11.348  1.5782 -0.7456 -0.2856
 8802TIP3    H247822   3.104   0.053  11.432  0.4413 -2.2247 -2.5587
 8803TIP3   OH247823   6.312   4.961  15.032  0.4818  0.0481 -0.3151
 8803TIP3    H147824   6.248   5.030  15.015  0.2790  0.0842  0.5902
 8803TIP3    H247825   6.302   4.901  14.957 -1.3097 -0.4547  0.2776
 8804TIP3   OH247826   4.425   3.287  11.487 -0.1323 -0.1807 -0.0331
 8804TIP3    H147827   4.511   3.304  11.524  0.5085 -2.1143 -0.5265
 8804TIP3    H247828   4.404   3.367  11.438  0.8215  0.7862  1.0761
 8805TIP3   OH247829   2.911   4.253  11.405 -0.0262  0.3548  0.5728
 8805TIP3    H147830   2.844   4.190  11.378 -0.3687  1.3986 -1.2268
 8805TIP3    H247831   2.870   4.303  11.476  0.4116 -1.6641  2.3273
 8806TIP3   OH247832   5.371   3.791  14.134  0.8258  0.6656  0.0405
 8806TIP3    H147833   5.318   3.722  14.175  0.9536  0.7585  0.3631
 8806TIP3    H247834   5.373   3.861  14.199  2.6755  0.0412  0.7180
 8807TIP3   OH247835   0.874   5.885  15.393  0.0350 -0.5495 -0.2712
 8807TIP3    H147836   0.864   5.791  15.411 -0.2691 -0.2038  1.6394
 8807TIP3    H247837   0.818   5.927  15.459  1.5353  1.0120  0.0589
 8808TIP3   OH247838   0.049   4.866   5.032 -0.3315  0.5095 -0.4042
 8808TIP3    H147839   0.074   4.925   5.103  0.4383 -0.3352  0.0527
 8808TIP3    H247840   0.029   4.924   4.958  2.0941  1.3232 -0.5080
 8809TIP3   OH247841   1.745   3.499   4.017 -0.2402  0.3145 -0.3954
 8809TIP3    H147842   1.830   3.469   3.985 -0.1850 -0.5235  0.4671
 8809TIP3    H247843   1.699   3.419   4.040 -0.3235  0.8364  1.4272
 8810TIP3   OH247844   2.852   4.175  14.781  0.0585  0.3476  0.4027
 8810TIP3    H147845   2.858   4.091  14.828 -0.3828  0.2352  0.2664
 8810TIP3    H247846   2.758   4.187  14.767  0.0113  1.4787  1.5255
 8811TIP3   OH247847   6.373   5.259   1.673 -0.6679 -0.7184 -0.1837
 8811TIP3    H147848   6.407   5.336   1.719 -0.6671 -0.6370 -0.3212
 8811TIP3    H247849   6.313   5.218   1.736  0.8992 -1.7817  0.6852
 8812TIP3   OH247850   2.493   2.812  12.302 -0.1267  0.0137  0.8998
 8812TIP3    H147851   2.407   2.777  12.326  0.5782 -0.9249  2.1391
 8812TIP3    H247852   2.511   2.773  12.217 -1.1137  0.5984  0.3910
 8813TIP3   OH247853   3.169   4.171  15.498  0.0935  0.0890 -0.2936
 8813TIP3    H147854   3.202   4.147  15.411  0.1454  1.7282 -0.7729
 8813TIP3    H247855   3.101   4.107  15.517 -0.0942 -0.1524 -1.6684
 8814TIP3   OH247856   3.100   1.509  16.348 -0.0080  0.4684  0.5678
 8814TIP3    H147857   3.165   1.490  16.281 -0.8685  0.3641 -0.2485
 8814TIP3    H247858   3.151   1.518  16.429  1.1015  1.1938 -0.1858
 8815TIP3   OH247859   1.395   0.060   0.563  0.4240  0.3473 -0.1687
 8815TIP3    H147860   1.306   0.065   0.599  0.0528 -2.1549 -0.5919
 8815TIP3    H247861   1.388  -0.001   0.490  2.7394 -0.9199  0.5863
 8816TIP3   OH247862   3.844   5.265  14.669 -0.0680  0.2243 -0.0627
 8816TIP3    H147863   3.825   5.258  14.763 -0.8445  0.6838 -0.1726
 8816TIP3    H247864   3.761   5.242  14.627  0.3996 -0.4018 -0.6505
 8817TIP3   OH247865   6.138   0.707   0.632 -0.1790  0.4686 -0.2891
 8817TIP3    H147866   6.075   0.765   0.587  0.6264  0.2756 -1.7383
 8817TIP3    H247867   6.091   0.624   0.640 -2.0444  1.6790  3.4778
 8818TIP3   OH247868   3.000   2.916   1.252  0.1703  0.0522  0.2111
 8818TIP3    H147869   2.980   2.992   1.306  1.7075  1.2637 -0.8388
 8818TIP3    H247870   2.946   2.928   1.174 -0.0849 -0.3061  0.3293
 8819TIP3   OH247871   2.279   0.567  16.232 -0.3110 -0.0035 -0.2733
 8819TIP3    H147872   2.334   0.506  16.281  0.1548 -0.2692 -1.1105
 8819TIP3    H247873   2.325   0.651  16.238 -0.1323 -0.0879 -0.4483
 8820TIP3   OH247874   1.854   5.588  13.569  0.0853  0.0670  0.9881
 8820TIP3    H147875   1.819   5.502  13.592  0.1924 -0.2937 -0.1257
 8820TIP3    H247876   1.790   5.624  13.507  1.8197 -0.8188 -1.4772
 8821TIP3   OH247877   3.067   2.611   1.677 -0.3777 -0.4403 -0.3609
 8821TIP3    H147878   3.040   2.549   1.610  3.2921 -0.9426 -1.6007
 8821TIP3    H247879   2.998   2.608   1.743 -1.4574 -4.0935 -1.4741
 8822TIP3   OH247880   1.743   1.993  10.975 -0.8720  0.2987  0.2189
 8822TIP3    H147881   1.691   2.058  10.929 -0.9570  1.1636  1.4899
 8822TIP3    H247882   1.778   2.039  11.051  0.8635 -0.5617 -0.0097
 8823TIP3   OH247883   6.719   1.277   3.990  0.4509 -0.3046 -0.9931
 8823TIP3    H147884   6.810   1.273   3.961  1.4787 -0.2656  1.8841
 8823TIP3    H247885   6.696   1.187   4.010 -0.1462 -0.3075 -1.6674
 8824TIP3   OH247886   4.063   5.174   1.339  0.8599 -0.7996  0.3782
 8824TIP3    H147887   4.136   5.176   1.401 -0.9349  2.0699  2.6337
 8824TIP3    H247888   4.090   5.234   1.269  0.7646  0.0976  1.1026
 8825TIP3   OH247889   0.492   3.113  12.689 -0.2883 -0.1308  0.6918
 8825TIP3    H147890   0.412   3.080  12.648 -0.1720  0.1806  0.2036
 8825TIP3    H247891   0.475   3.206  12.704  0.2449  0.0976 -0.0731
 8826TIP3   OH247892   3.587   4.323  15.965  0.7862 -0.2043 -0.4428
 8826TIP3    H147893   3.564   4.342  15.875 -0.5008  3.5035  0.5091
 8826TIP3    H247894   3.657   4.385  15.986 -0.9182  1.0978  1.8475
 8827TIP3   OH247895   3.647   3.468  14.368  0.3972  0.3476 -0.3607
 8827TIP3    H147896   3.573   3.528  14.384 -0.8436 -1.2787  0.2369
 8827TIP3    H247897   3.694   3.466  14.451 -0.0660 -0.1440 -0.1013
 8828TIP3   OH247898   6.001   4.492  16.776 -0.0462  0.6568 -0.0676
 8828TIP3    H147899   5.908   4.506  16.755 -0.0958 -0.7269 -0.8672
 8828TIP3    H247900   6.004   4.403  16.812  1.1023  0.3519 -0.8914
 8829TIP3   OH247901   5.968   5.483   6.465  0.1456  0.3089  0.4100
 8829TIP3    H147902   5.875   5.492   6.489 -0.0407  2.2186 -0.8063
 8829TIP3    H247903   6.014   5.541   6.525  0.1919  1.5592 -0.7911
 8830TIP3   OH247904   4.241   5.816   0.445  0.0739  0.6796 -0.2065
 8830TIP3    H147905   4.162   5.870   0.441 -0.9056 -0.6550  0.3549
 8830TIP3    H247906   4.269   5.805   0.354 -0.5803  0.8905 -0.4329
 8831TIP3   OH247907   1.681   4.633  15.332 -0.2215 -0.4934  0.7734
 8831TIP3    H147908   1.622   4.703  15.359  1.2760  1.9968 -1.7969
 8831TIP3    H247909   1.633   4.586  15.264 -0.4466 -0.5787  0.9914
 8832TIP3   OH247910   4.968   1.235   5.794 -0.6062 -0.2180  0.4488
 8832TIP3    H147911   5.019   1.271   5.866 -0.6931 -0.3478  0.5737
 8832TIP3    H247912   4.968   1.141   5.809 -0.2030 -0.2935  0.0078
 8833TIP3   OH247913   0.150   3.227  15.363  0.2447 -0.1870 -0.9335
 8833TIP3    H147914   0.184   3.217  15.274 -0.2742 -0.2232 -1.1323
 8833TIP3    H247915   0.056   3.234  15.352  0.2488  0.7415 -0.4546
 8834TIP3   OH247916   0.351   5.238  14.946 -0.8098  0.1066 -0.1504
 8834TIP3    H147917   0.368   5.303  15.015 -0.8689  1.0191 -0.9689
 8834TIP3    H247918   0.285   5.180  14.985 -0.3940  0.2362  0.7815
 8835TIP3   OH247919   2.096   1.650  13.039 -0.3594  0.1414 -0.1127
 8835TIP3    H147920   2.035   1.660  13.112 -2.7355  1.4178 -2.1231
 8835TIP3    H247921   2.067   1.571  12.994  0.1589  0.1583 -0.4866
 8836TIP3   OH247922   5.853   5.856  15.618  0.2951  0.3636 -0.2791
 8836TIP3    H147923   5.777   5.846  15.559 -0.2855  0.1766  0.4873
 8836TIP3    H247924   5.845   5.784  15.680  0.8601  0.6075  0.0822
 8837TIP3   OH247925   4.058   0.968   0.015  0.9590  0.3639 -0.1695
 8837TIP3    H147926   4.053   1.046   0.069  2.4606  1.1036 -1.0139
 8837TIP3    H247927   4.032   0.896   0.072 -1.0695  1.5378  0.4478
 8838TIP3   OH247928   3.033   4.353  15.639 -0.3518  0.6805 -0.0959
 8838TIP3    H147929   3.080   4.285  15.589 -0.9388 -0.7437  1.1943
 8838TIP3    H247930   3.069   4.347  15.727 -1.4272  1.0614  0.3875
 8839TIP3   OH247931   6.593   6.242   6.084 -0.1445 -0.2914  0.0741
 8839TIP3    H147932   6.645   6.175   6.129 -0.6210 -1.1191 -0.5832
 8839TIP3    H247933   6.657   6.288   6.030 -0.0773 -1.3818 -0.8211
 8840TIP3   OH247934   2.172   1.501   1.497  0.0201  0.1885 -1.0529
 8840TIP3    H147935   2.093   1.454   1.468  0.8220 -0.8272 -1.6872
 8840TIP3    H247936   2.225   1.510   1.418  0.7706  0.3863 -0.5394
 8841TIP3   OH247937   5.374   5.387   2.102  0.3787 -0.0930  0.1201
 8841TIP3    H147938   5.325   5.306   2.083  0.4805  0.2429 -1.8287
 8841TIP3    H247939   5.464   5.358   2.116  0.7077 -0.2726 -1.9766
 8842TIP3   OH247940   4.037   5.955   4.811  0.6250  0.4324  0.2969
 8842TIP3    H147941   3.998   6.002   4.884  2.9912 -0.4839  2.2933
 8842TIP3    H247942   4.126   5.935   4.840  1.4746 -0.5133 -2.6221
 8843TIP3   OH247943   3.375   0.721   4.610  0.2149 -0.1842 -0.5001
 8843TIP3    H147944   3.346   0.760   4.693 -0.9712 -0.3857 -0.8027
 8843TIP3    H247945   3.306   0.658   4.588  0.2266  0.2621 -1.9068
 8844TIP3   OH247946   5.730   3.754  11.439  0.0914 -0.2462  0.5996
 8844TIP3    H147947   5.769   3.708  11.514  0.3786 -0.6413  0.2113
 8844TIP3    H247948   5.730   3.689  11.369  2.7614  1.0146 -0.7262
 8845TIP3   OH247949   6.448   5.180   4.245 -0.4274 -0.7795 -0.5622
 8845TIP3    H147950   6.473   5.231   4.322  0.1176 -0.8813 -0.6699
 8845TIP3    H247951   6.425   5.093   4.280  2.0465 -1.5678 -0.7231
 8846TIP3   OH247952   4.043   2.529  11.830 -0.0879  0.3044  0.1532
 8846TIP3    H147953   3.990   2.555  11.754 -0.7570  0.2267  0.5885
 8846TIP3    H247954   4.132   2.520  11.795 -0.5758 -0.8373 -0.8837
 8847TIP3   OH247955   2.335   2.816  15.131 -0.7697 -0.1483  0.6046
 8847TIP3    H147956   2.391   2.802  15.054 -2.3226  0.6190 -0.7173
 8847TIP3    H247957   2.397   2.831  15.203  0.7865 -3.1119  0.0235
 8848TIP3   OH247958   4.819   6.769   3.869  0.2775  0.3022  0.5665
 8848TIP3    H147959   4.724   6.762   3.875  0.3529 -0.2073  1.2511
 8848TIP3    H247960   4.852   6.708   3.934  1.0394  2.2105  2.0716
 8849TIP3   OH247961   1.403   4.622   5.652  0.5183 -0.0441 -0.0146
 8849TIP3    H147962   1.353   4.620   5.570  0.6051 -0.2604 -0.0655
 8849TIP3    H247963   1.429   4.530   5.665 -1.5270 -0.4751  1.5150
 8850TIP3   OH247964   3.028   4.198   5.000 -0.4175 -0.0343 -0.4628
 8850TIP3    H147965   2.985   4.124   4.957  0.1445 -0.4220 -0.3742
 8850TIP3    H247966   3.120   4.172   5.005  0.0505  1.3014 -1.7487
 8851TIP3   OH247967   3.440   5.417   3.158 -0.0572 -0.0729 -0.4865
 8851TIP3    H147968   3.431   5.442   3.250 -0.4414  1.2430 -0.8594
 8851TIP3    H247969   3.444   5.321   3.160  2.5096 -0.0503  1.1213
 8852TIP3   OH247970   1.647   6.192  17.096  0.0273  0.5511 -0.6716
 8852TIP3    H147971   1.560   6.203  17.059 -1.4502 -1.4826  1.8048
 8852TIP3    H247972   1.668   6.278  17.133 -1.3957  0.8263 -0.4295
 8853TIP3   OH247973   6.029   0.701   2.878  0.3167 -0.0405 -0.1597
 8853TIP3    H147974   5.950   0.752   2.893  0.7956  0.7874 -0.4277
 8853TIP3    H247975   6.000   0.610   2.889 -0.2105  0.3103  1.8586
 8854TIP3   OH247976   3.208   5.720  15.817  0.1294 -0.3829  0.0561
 8854TIP3    H147977   3.238   5.784  15.752  1.8191  0.5906  1.6759
 8854TIP3    H247978   3.289   5.688  15.858 -0.8095 -1.8578  0.8703
 8855TIP3   OH247979   3.655   5.027  11.530  0.3197 -0.1024 -0.5345
 8855TIP3    H147980   3.708   4.964  11.580 -1.1251 -0.6212  0.4276
 8855TIP3    H247981   3.615   4.975  11.461  0.6718  0.1784 -0.9501
 8856TIP3   OH247982   3.542   1.464   6.151  0.3955  0.2525  0.4358
 8856TIP3    H147983   3.549   1.514   6.232 -0.1201  1.5855 -0.2895
 8856TIP3    H247984   3.448   1.445   6.143  0.4586  0.0277  0.2236
 8857TIP3   OH247985   6.527   1.922  16.572  0.3614  0.7116 -0.6048
 8857TIP3    H147986   6.599   1.892  16.627 -0.1729  0.7113  0.1144
 8857TIP3    H247987   6.455   1.936  16.633 -0.6444 -0.5358 -1.4626
 8858TIP3   OH247988   2.063   4.520  13.688 -0.4710  0.4559  0.5805
 8858TIP3    H147989   2.141   4.514  13.742  0.3381  0.0714 -0.6074
 8858TIP3    H247990   1.992   4.492  13.746  0.5083 -0.9662  1.1362
 8859TIP3   OH247991   3.319   4.478   3.875  0.4149 -0.2410  0.1694
 8859TIP3    H147992   3.401   4.434   3.900  3.9856  4.7715 -0.9681
 8859TIP3    H247993   3.285   4.513   3.958  0.6718 -0.5194  0.3962
 8860TIP3   OH247994   6.737   0.149  11.100 -0.0497  0.0114  0.3064
 8860TIP3    H147995   6.658   0.095  11.100  0.2370 -0.4121  0.6297
 8860TIP3    H247996   6.808   0.088  11.081  0.1735  0.4439 -0.3075
 8861TIP3   OH247997   6.302   0.482  14.520  0.1164  0.0502 -0.0294
 8861TIP3    H147998   6.358   0.552  14.487  1.3811 -0.9840 -0.1723
 8861TIP3    H247999   6.234   0.527  14.571  1.9401  1.3137  1.4358
 8862TIP3   OH248000   5.199   4.042  17.103  0.1112 -0.1425  0.5386
 8862TIP3    H148001   5.229   4.115  17.157  0.0591  1.7746 -1.8592
 8862TIP3    H248002   5.279   4.001  17.071  0.1565 -0.0906  0.5847
 8863TIP3   OH248003   3.681   3.810  13.311  0.1782  0.3187  0.2928
 8863TIP3    H148004   3.605   3.752  13.320  0.0130  0.5310  0.2663
 8863TIP3    H248005   3.714   3.821  13.400  0.0561  0.3897  0.3300
 8864TIP3   OH248006   5.663   5.379   0.050  0.8387  0.3517  0.2053
 8864TIP3    H148007   5.686   5.447   0.112 -0.5257 -0.0561  1.1950
 8864TIP3    H248008   5.627   5.426  -0.025  2.3435  0.8308 -0.2647
 8865TIP3   OH248009   2.763   5.709   5.905 -0.4295  0.3036 -0.3808
 8865TIP3    H148010   2.761   5.732   5.813 -5.0209  0.3821 -0.4694
 8865TIP3    H248011   2.724   5.621   5.909  0.7591 -0.2134  1.4499
 8866TIP3   OH248012   0.921   2.794  16.444  0.4705  0.1674  0.0903
 8866TIP3    H148013   0.832   2.828  16.452 -0.1442 -1.5255  1.0554
 8866TIP3    H248014   0.974   2.847  16.503 -0.0699  0.6539  0.1364
 8867TIP3   OH248015   5.682   1.157   6.464  0.3536 -0.5261  0.6337
 8867TIP3    H148016   5.722   1.112   6.538  3.2834  1.8970  0.7488
 8867TIP3    H248017   5.653   1.241   6.500 -1.7673 -0.7984 -0.2562
 8868TIP3   OH248018   3.885   3.006  12.556 -0.5664  0.6055  0.2740
 8868TIP3    H148019   3.895   2.998  12.461 -0.0672 -0.3081  0.3946
 8868TIP3    H248020   3.805   2.957  12.575  1.4055 -2.7837  0.7603
 8869TIP3   OH248021   3.748   2.990  14.605 -0.1606 -0.1960  0.2812
 8869TIP3    H148022   3.818   2.965  14.664  0.0515 -0.0745  0.0862
 8869TIP3    H248023   3.791   2.999  14.520 -0.1084  1.3365  0.4401
 8870TIP3   OH248024   3.528   1.211  16.034 -0.4566 -0.1521 -0.8685
 8870TIP3    H148025   3.555   1.143  15.972 -1.2836 -0.3413 -1.0292
 8870TIP3    H248026   3.470   1.267  15.983 -1.8168 -0.7761 -0.0551
 8871TIP3   OH248027   0.932   0.232  16.576 -0.1420 -0.2784 -0.0531
 8871TIP3    H148028   0.895   0.278  16.500 -0.2980  1.7020  1.1258
 8871TIP3    H248029   0.856   0.190  16.617 -0.0997 -1.1258 -0.8174
 8872TIP3   OH248030   3.372   5.781   0.170 -0.3043 -0.4773 -0.6075
 8872TIP3    H148031   3.325   5.698   0.183 -0.2038 -0.7837 -2.0228
 8872TIP3    H248032   3.303   5.847   0.167 -0.3145 -0.2882  1.7778
 8873TIP3   OH248033   5.745   6.019  16.053 -0.9992  0.6107 -0.1555
 8873TIP3    H148034   5.710   6.039  15.966 -0.0513  0.4275 -0.6038
 8873TIP3    H248035   5.840   6.018  16.040 -0.8851 -0.5982  0.6233
 8874TIP3   OH248036   6.498   1.857  11.797  0.4370  0.0263 -0.2187
 8874TIP3    H148037   6.578   1.905  11.820 -0.0441  0.9147 -0.3279
 8874TIP3    H248038   6.528   1.782  11.746  1.2023  0.4041 -0.3370
 8875TIP3   OH248039   6.357   5.246  10.597  0.0669 -0.3101  0.4062
 8875TIP3    H148040   6.376   5.279  10.509  0.2785 -2.3521 -0.3683
 8875TIP3    H248041   6.333   5.324  10.647  0.2746  0.9515 -1.3616
 8876TIP3   OH248042   5.844   3.072   0.752  0.5890  0.0393  0.3110
 8876TIP3    H148043   5.777   3.008   0.729 -1.0693  2.2618 -1.5274
 8876TIP3    H248044   5.856   3.124   0.673  2.2502  1.6955  1.5446
 8877TIP3   OH248045   2.873   0.088   6.058  0.8086  0.1310  0.2748
 8877TIP3    H148046   2.847  -0.004   6.064 -2.0357  0.7687 -0.6498
 8877TIP3    H248047   2.879   0.117   6.149 -2.0525 -0.1189  0.6383
 8878TIP3   OH248048   3.821   4.333   6.354 -0.0853 -0.3481 -0.3540
 8878TIP3    H148049   3.825   4.271   6.427 -1.2505 -1.1082 -0.8953
 8878TIP3    H248050   3.781   4.412   6.392  0.1962 -0.3909  0.0387
 8879TIP3   OH248051   1.738   4.215   1.004  0.0047 -0.5574  0.1018
 8879TIP3    H148052   1.767   4.198   0.914  2.2778  1.3644  0.3937
 8879TIP3    H248053   1.783   4.149   1.057 -0.7463 -1.2129 -0.0572
 8880TIP3   OH248054   0.701   4.310   3.741  0.0819  0.0952 -0.1624
 8880TIP3    H148055   0.742   4.270   3.818  1.2094  0.4274 -0.5739
 8880TIP3    H248056   0.747   4.393   3.729 -0.1722  0.1119 -1.1125
 8881TIP3   OH248057   1.919   3.781   3.291 -0.2846  0.6648  0.7974
 8881TIP3    H148058   1.953   3.728   3.220  0.0399 -1.0911  2.1846
 8881TIP3    H248059   1.998   3.813   3.336 -0.4744  2.5075 -0.1077
 8882TIP3   OH248060   4.282   5.758   1.712  0.0804 -0.0426 -0.2009
 8882TIP3    H148061   4.374   5.742   1.692  0.4592  0.5518  1.0093
 8882TIP3    H248062   4.264   5.846   1.678 -0.9413 -1.2809 -3.2724
 8883TIP3   OH248063   0.106   5.268  15.132  0.1742  0.6851  0.4747
 8883TIP3    H148064   0.147   5.266  15.218 -1.7769  0.4401  1.4489
 8883TIP3    H248065   0.092   5.176  15.110  0.4100  0.7559 -0.0057
 8884TIP3   OH248066   1.556   1.585  12.893  0.3214 -0.0830  0.4205
 8884TIP3    H148067   1.596   1.522  12.954  0.9829  0.6196  0.7268
 8884TIP3    H248068   1.531   1.531  12.818 -1.4575 -1.1462  1.7012
 8885TIP3   OH248069   3.221   6.272  15.028 -0.5213 -0.1649 -0.2436
 8885TIP3    H148070   3.207   6.353  15.076 -1.3791 -0.4149 -0.0495
 8885TIP3    H248071   3.240   6.207  15.095  0.7566 -0.0230 -0.4398
 8886TIP3   OH248072   1.749   5.099  14.185  0.2725 -0.1389  0.3922
 8886TIP3    H148073   1.713   5.053  14.109  0.8281 -0.7145  0.4692
 8886TIP3    H248074   1.717   5.050  14.260 -1.2067  1.0826  0.6090
 8887TIP3   OH248075   0.580   4.384   5.321 -0.3783 -0.5721  0.0656
 8887TIP3    H148076   0.598   4.290   5.326 -0.3212 -0.5447  0.3495
 8887TIP3    H248077   0.597   4.417   5.409  2.1505  0.1571 -0.6159
 8888TIP3   OH248078   0.435   6.324   4.507 -0.1814 -0.4128  0.4233
 8888TIP3    H148079   0.443   6.402   4.452 -0.7799 -0.4078  0.3314
 8888TIP3    H248080   0.342   6.300   4.500 -0.0459 -1.0061  0.6228
 8889TIP3   OH248081   4.586   4.898   5.392 -0.4355 -0.2174 -0.2666
 8889TIP3    H148082   4.508   4.863   5.434  0.3004  0.6429  1.9878
 8889TIP3    H248083   4.658   4.849   5.430  0.2710  0.6191 -0.4928
 8890TIP3   OH248084   1.419   4.048  12.461 -0.3637  0.6898 -0.1286
 8890TIP3    H148085   1.481   3.979  12.485  0.0358  0.9140 -0.5061
 8890TIP3    H248086   1.339   4.000  12.436  0.0344  0.3420 -0.7578
 8891TIP3   OH248087   1.118   6.150   1.353 -0.1522 -0.0938  0.1918
 8891TIP3    H148088   1.031   6.150   1.312  0.4397  2.3146 -1.3093
 8891TIP3    H248089   1.119   6.229   1.407  1.0897 -0.0762  0.1679
 8892TIP3   OH248090   3.758   1.406  12.924 -0.3480  0.2130 -0.1806
 8892TIP3    H148091   3.679   1.460  12.929  0.8254  1.9477  0.8590
 8892TIP3    H248092   3.780   1.388  13.016  0.1899 -0.6788 -0.4778
 8893TIP3   OH248093   5.604   3.180   3.588 -0.0103 -0.0501  0.4033
 8893TIP3    H148094   5.594   3.087   3.568  2.5145 -0.2359 -0.3975
 8893TIP3    H248095   5.515   3.215   3.585 -0.7772 -1.9002 -2.0562
 8894TIP3   OH248096   3.386   5.048  12.403 -0.6305 -0.9178 -0.5317
 8894TIP3    H148097   3.454   5.116  12.411 -2.1940  0.4641  2.8657
 8894TIP3    H248098   3.432   4.973  12.365  1.8347  1.1371 -1.9338
 8895TIP3   OH248099   0.771   6.014   2.836  0.0508  0.2500 -0.3141
 8895TIP3    H148100   0.759   6.015   2.742  2.6081 -0.7729 -0.7404
 8895TIP3    H248101   0.818   6.096   2.855  0.1722  0.1257 -0.0584
 8896TIP3   OH248102   1.305   3.308   2.656 -0.2803  0.2945 -0.2225
 8896TIP3    H148103   1.285   3.381   2.597 -0.1033  1.2470  0.8592
 8896TIP3    H248104   1.221   3.287   2.696  0.0140  1.3129  0.9977
 8897TIP3   OH248105   2.685   0.535   5.214  0.4744  0.3893  0.2743
 8897TIP3    H148106   2.679   0.568   5.125 -0.3000 -2.0185 -0.6467
 8897TIP3    H248107   2.755   0.469   5.211 -1.2325 -1.5355  0.7589
 8898TIP3   OH248108   0.358   0.500  15.576  0.0444 -0.1564 -0.2202
 8898TIP3    H148109   0.307   0.540  15.505 -2.5018  0.1933  1.6925
 8898TIP3    H248110   0.303   0.429  15.609  1.7549 -1.1818  0.5991
 8899TIP3   OH248111   1.448   4.144  13.703 -0.0332 -0.4776  0.1097
 8899TIP3    H148112   1.358   4.123  13.678 -0.3208 -0.1934  0.8696
 8899TIP3    H248113   1.439   4.211  13.771  0.8110  0.8417 -1.0232
 8900TIP3   OH248114   4.879   0.288  13.142 -0.0141  0.4618 -0.0769
 8900TIP3    H148115   4.846   0.341  13.214  0.5939 -1.6377  1.8890
 8900TIP3    H248116   4.933   0.221  13.185  0.1822 -1.0359 -2.4793
 8901TIP3   OH248117   3.122   3.244   1.151  0.4283 -0.5068 -0.1764
 8901TIP3    H148118   3.099   3.200   1.069 -1.0133  0.9351 -0.6034
 8901TIP3    H248119   3.079   3.192   1.219 -1.6923  0.3983 -0.7164
 8902TIP3   OH248120   6.283   6.519   0.571 -0.5162  0.1132  0.2746
 8902TIP3    H148121   6.218   6.510   0.501  0.5690  0.2425 -0.7724
 8902TIP3    H248122   6.338   6.441   0.562 -0.4214  0.0831  1.0625
 8903TIP3   OH248123   6.001   3.184  16.066  0.4350 -0.8392  0.5209
 8903TIP3    H148124   6.044   3.156  15.986  1.3327 -0.0421  0.7026
 8903TIP3    H248125   6.073   3.203  16.127 -0.2204 -1.1789  1.4263
 8904TIP3   OH248126   1.170   5.110   2.862  0.1842 -0.4162  0.4971
 8904TIP3    H148127   1.266   5.115   2.857  0.3495 -2.7991  0.2091
 8904TIP3    H248128   1.140   5.140   2.776  0.7999 -1.4955 -0.1113
 8905TIP3   OH248129   1.921   4.448   3.985 -0.6642  0.0025  0.4293
 8905TIP3    H148130   1.913   4.452   3.890  0.7723 -3.4224  0.0099
 8905TIP3    H248131   2.009   4.482   4.002  0.2645 -2.1008  0.1147
 8906TIP3   OH248132   2.638   4.625  17.257  0.5325 -0.1095  0.9400
 8906TIP3    H148133   2.674   4.545  17.218  0.4202 -0.2797  1.1792
 8906TIP3    H248134   2.588   4.666  17.187 -0.3715 -0.8478  1.1399
 8907TIP3   OH248135   5.749   2.801   2.380 -0.0874 -0.2899  0.4025
 8907TIP3    H148136   5.777   2.890   2.360 -1.8776 -0.0593 -1.4062
 8907TIP3    H248137   5.728   2.803   2.474 -2.9881  2.1142 -0.1406
 8908TIP3   OH248138   4.881   3.450   0.239 -0.1609  0.2561 -0.1800
 8908TIP3    H148139   4.901   3.436   0.332 -1.1083 -0.5976 -0.0799
 8908TIP3    H248140   4.863   3.362   0.206 -0.4907  0.6320 -1.0130
 8909TIP3   OH248141   0.114   1.825  11.202  0.2188 -0.2020  0.3822
 8909TIP3    H148142   0.076   1.756  11.256 -1.0895  0.0233 -0.2059
 8909TIP3    H248143   0.170   1.779  11.139  1.3928 -0.4974  1.5838
 8910TIP3   OH248144   2.227   4.218   1.277 -0.5103 -0.1161 -0.7027
 8910TIP3    H148145   2.149   4.163   1.283  0.5417 -1.8841 -2.1929
 8910TIP3    H248146   2.232   4.262   1.362 -1.7968 -1.7989  0.3066
 8911TIP3   OH248147   3.878   5.675  14.824 -0.2915  0.6160  0.5936
 8911TIP3    H148148   3.865   5.581  14.809 -1.5220  1.1008 -1.9616
 8911TIP3    H248149   3.916   5.680  14.912  1.4508 -2.3630  0.1624
 8912TIP3   OH248150   3.258   0.068   5.708  0.0801  0.4992  0.2789
 8912TIP3    H148151   3.281  -0.016   5.749 -0.0998  0.0168 -0.5859
 8912TIP3    H248152   3.163   0.072   5.712  0.0447  0.3375 -0.2918
 8913TIP3   OH248153   5.311   3.416  16.419  0.4329  0.2415 -0.2087
 8913TIP3    H148154   5.333   3.509  16.428 -1.0245  0.4412  1.9672
 8913TIP3    H248155   5.386   3.379  16.372  2.5018  1.9580  1.5136
 8914TIP3   OH248156   0.205   4.841  16.570  0.3377 -0.0342 -0.4020
 8914TIP3    H148157   0.183   4.815  16.480  3.3232  0.2618 -1.3038
 8914TIP3    H248158   0.270   4.777  16.598 -1.9471 -1.3437  2.4009
 8915TIP3   OH248159   0.596   4.964   4.944 -1.0962  0.6497 -0.2347
 8915TIP3    H148160   0.524   5.013   4.983 -0.2122  0.3887  1.8700
 8915TIP3    H248161   0.673   5.018   4.961  0.0098 -1.5943  2.6850
 8916TIP3   OH248162   5.601   3.536  12.348  0.0313 -0.5978  0.3852
 8916TIP3    H148163   5.519   3.521  12.301  0.1948  0.0043 -0.1156
 8916TIP3    H248164   5.583   3.508  12.438 -0.8276 -0.1638  0.3587
 8917TIP3   OH248165   5.078   6.550  12.051  0.1467 -0.0230 -0.7253
 8917TIP3    H148166   5.009   6.510  11.999  1.1348 -0.7145 -1.5583
 8917TIP3    H248167   5.126   6.475  12.088 -0.1282  0.4474  0.6581
 8918TIP3   OH248168   0.266   4.309   5.607  0.1040 -0.5803  0.0328
 8918TIP3    H148169   0.344   4.258   5.584  0.3290  0.8403 -2.7749
 8918TIP3    H248170   0.193   4.258   5.572  0.0185 -0.6320  0.2885
 8919TIP3   OH248171   2.032   2.579   3.058  0.4501  0.5676 -0.0368
 8919TIP3    H148172   2.098   2.646   3.039  0.4966  0.3647 -0.5896
 8919TIP3    H248173   2.065   2.536   3.137  0.4638  1.1343  0.2728
 8920TIP3   OH248174   5.410   1.964   0.558 -0.0777 -0.1010  0.0091
 8920TIP3    H148175   5.359   1.947   0.637 -0.8554  0.5223 -0.3431
 8920TIP3    H248176   5.357   2.026   0.509  0.6647 -0.0496 -0.7409
 8921TIP3   OH248177   2.984   4.848  11.725  0.5318  0.6772 -0.2690
 8921TIP3    H148178   3.010   4.930  11.768  0.3143  0.3769  0.4419
 8921TIP3    H248179   3.041   4.782  11.764 -0.9223  0.0866  0.9595
 8922TIP3   OH248180   1.534   1.377  14.695  0.0946 -0.3724 -0.4621
 8922TIP3    H148181   1.457   1.394  14.641 -0.0166 -0.6240 -0.3814
 8922TIP3    H248182   1.505   1.394  14.785  0.7267  1.6819 -0.5992
 8923TIP3   OH248183   0.009   2.436   5.175 -0.2325  0.6231  0.0095
 8923TIP3    H148184   0.078   2.389   5.129  2.6342 -0.8946  5.0537
 8923TIP3    H248185   0.047   2.522   5.193 -1.4337  1.3299 -0.7409
 8924TIP3   OH248186   1.210   4.820  10.856  0.6345 -0.0532  0.9538
 8924TIP3    H148187   1.202   4.905  10.812 -0.2406 -0.1523  0.8915
 8924TIP3    H248188   1.143   4.766  10.814  0.3576 -0.4011  1.8381
 8925TIP3   OH248189   1.027   4.226   0.949 -0.6900 -0.3409  0.0833
 8925TIP3    H148190   0.987   4.307   0.918 -2.4780 -1.1763  0.1031
 8925TIP3    H248191   0.962   4.159   0.931  1.0606 -1.9195 -0.6334
 8926TIP3   OH248192   1.197   6.243   5.497  0.1896 -0.7002 -0.6686
 8926TIP3    H148193   1.229   6.333   5.495  2.6956 -1.4319  1.0235
 8926TIP3    H248194   1.216   6.209   5.409  2.5910 -0.5346 -0.2900
 8927TIP3   OH248195   6.701   1.563   0.470 -0.1079 -0.0225 -1.0138
 8927TIP3    H148196   6.608   1.556   0.492 -0.0192  0.8736 -0.3392
 8927TIP3    H248197   6.731   1.642   0.515  1.5832 -1.6611  0.9520
 8928TIP3   OH248198   2.183   3.123  12.537  0.1240 -0.2793 -0.6916
 8928TIP3    H148199   2.163   3.036  12.570 -1.0824 -0.7314 -2.4657
 8928TIP3    H248200   2.244   3.109  12.464  1.7503  0.5854  0.4267
 8929TIP3   OH248201   3.048   0.045  15.241 -0.2169 -0.2071 -0.2312
 8929TIP3    H148202   3.068   0.132  15.277  1.9710 -1.9245  3.1787
 8929TIP3    H248203   3.121   0.026  15.182  0.4214 -0.5208  0.6430
 8930TIP3   OH248204   0.079   2.224  13.430 -0.1517  0.3570  0.1280
 8930TIP3    H148205   0.054   2.316  13.444  0.3520  0.7479 -1.3438
 8930TIP3    H248206   0.163   2.215  13.475  0.9031  1.2747 -1.5508
 8931TIP3   OH248207   4.046   1.385  13.456 -0.0517  0.4223 -0.0659
 8931TIP3    H148208   4.024   1.473  13.486  3.7542  1.4995  0.1458
 8931TIP3    H248209   4.058   1.334  13.536 -0.2860  0.2640 -0.1295
 8932TIP3   OH248210   0.252   3.061   3.340  0.2928  0.7868  0.7986
 8932TIP3    H148211   0.339   3.057   3.301  0.1924  0.0112  0.6494
 8932TIP3    H248212   0.227   2.970   3.354 -0.1762  1.0160  1.5552
 8933TIP3   OH248213   2.584   2.409  14.867  0.2485 -0.6465  0.3631
 8933TIP3    H148214   2.592   2.334  14.925 -4.0053 -2.2640 -0.7078
 8933TIP3    H248215   2.578   2.371  14.779 -0.1594  1.1100 -0.4201
 8934TIP3   OH248216   2.420   3.549  11.731 -0.5863 -0.6542  0.1430
 8934TIP3    H148217   2.373   3.554  11.648  0.6479  1.3125 -0.5252
 8934TIP3    H248218   2.503   3.506  11.709 -0.0728  0.2609  0.2308
 8935TIP3   OH248219   3.664   1.583   6.400  0.6038  1.1297  0.8576
 8935TIP3    H148220   3.720   1.651   6.439  0.8884 -0.0760  2.6822
 8935TIP3    H248221   3.724   1.511   6.383  0.1110  0.9243 -0.0336
 8936TIP3   OH248222   0.285   5.099  13.231 -0.5177  0.1092  0.3936
 8936TIP3    H148223   0.208   5.112  13.176  0.9549 -1.9027 -2.4102
 8936TIP3    H248224   0.263   5.024  13.286 -0.8746  0.1036  0.2448
 8937TIP3   OH248225   2.045   1.724  13.668  0.2281  0.2216  0.2373
 8937TIP3    H148226   2.101   1.661  13.622  0.6744 -0.1003  1.2028
 8937TIP3    H248227   2.037   1.797  13.607  1.6449  0.2343  0.0358
 8938TIP3   OH248228   6.710   6.657  13.079  0.5100 -0.1520  0.3414
 8938TIP3    H148229   6.749   6.744  13.087 -1.0612  0.6162 -0.0294
 8938TIP3    H248230   6.616   6.672  13.078  0.2077 -1.7505 -0.8611
 8939TIP3   OH248231   3.282   6.636  16.075 -0.7282 -0.4075 -0.0631
 8939TIP3    H148232   3.328   6.637  15.991  1.0616  2.7670  0.7883
 8939TIP3    H248233   3.194   6.668  16.055  0.7457  4.0886 -0.4592
 8940TIP3   OH248234   2.545   4.005   0.746  0.4320 -0.0221  0.0217
 8940TIP3    H148235   2.498   4.015   0.663  2.8071  0.2366 -1.4099
 8940TIP3    H248236   2.511   4.075   0.802 -0.0406  0.8964 -1.3549
 8941TIP3   OH248237   3.804   0.879  17.310 -0.2659  0.9028  0.0861
 8941TIP3    H148238   3.734   0.935  17.276  0.2861  0.9867 -0.9271
 8941TIP3    H248239   3.882   0.903  17.260  0.7250  1.4347  1.7838
 8942TIP3   OH248240   5.282   1.677  15.373  0.4761 -0.6800  0.2145
 8942TIP3    H148241   5.256   1.586  15.382 -0.1719 -0.5141  0.0896
 8942TIP3    H248242   5.280   1.712  15.462 -0.2612 -0.5315  0.1424
 8943TIP3   OH248243   2.900   2.961  11.458 -0.2095  0.4548 -0.0791
 8943TIP3    H148244   2.897   3.055  11.444 -0.2631  0.2014 -1.9564
 8943TIP3    H248245   2.812   2.930  11.437 -0.2722 -0.0010  0.7853
 8944TIP3   OH248246   4.634   1.834   5.439 -0.0459  0.0944 -0.1405
 8944TIP3    H148247   4.682   1.827   5.521  0.0784  0.0005 -0.2205
 8944TIP3    H248248   4.702   1.834   5.372 -0.2169 -1.8946 -0.3714
 8945TIP3   OH248249   3.212   2.383   4.722 -0.5172 -0.5133 -0.5484
 8945TIP3    H148250   3.149   2.426   4.663 -0.0722  0.1619 -0.5384
 8945TIP3    H248251   3.291   2.372   4.669 -1.2357 -3.2195 -1.2271
 8946TIP3   OH248252   3.759   1.517  16.333 -0.2384  0.0711 -0.3540
 8946TIP3    H148253   3.725   1.433  16.302  0.5764 -0.2021 -0.5449
 8946TIP3    H248254   3.816   1.547  16.261 -2.0077  1.7336 -1.1556
 8947TIP3   OH248255   0.010   1.762   1.864  0.1062 -0.1774 -0.1362
 8947TIP3    H148256   0.103   1.775   1.884 -0.1742  2.7905 -0.3413
 8947TIP3    H248257  -0.006   1.817   1.787 -0.9724 -3.8981 -2.8315
 8948TIP3   OH248258   2.726   1.823   3.801 -0.3295 -0.6001 -0.0441
 8948TIP3    H148259   2.776   1.874   3.736  1.2895 -1.2609  0.6282
 8948TIP3    H248260   2.790   1.800   3.867 -1.4027 -2.1107  0.5146
 8949TIP3   OH248261   6.396   6.545  17.089 -0.6171 -0.4270  0.4762
 8949TIP3    H148262   6.369   6.483  17.021  1.3607 -0.3323 -0.4611
 8949TIP3    H248263   6.478   6.582  17.057  0.3077 -0.2468  2.8309
 8950TIP3   OH248264   3.801   0.494   5.468 -0.7271  0.6635 -0.5924
 8950TIP3    H148265   3.847   0.577   5.455  1.0977 -0.3046 -0.5555
 8950TIP3    H248266   3.793   0.485   5.563  2.4766 -0.9002 -0.3468
 8951TIP3   OH248267   1.543   0.687  12.317 -0.7488  0.2211 -0.2508
 8951TIP3    H148268   1.567   0.732  12.236  2.0524 -0.4145  0.1150
 8951TIP3    H248269   1.529   0.756  12.381  0.4575  0.6703 -0.4526
 8952TIP3   OH248270   0.128   0.618   5.263 -0.6500 -0.7508  0.2698
 8952TIP3    H148271   0.196   0.573   5.314  0.0285 -1.3262 -1.0785
 8952TIP3    H248272   0.134   0.579   5.176 -3.4781 -1.6217  0.3660
 8953TIP3   OH248273   0.181   0.067  16.712 -0.3180 -0.2358 -0.1198
 8953TIP3    H148274   0.123   0.106  16.647  0.8583  0.2373 -0.9132
 8953TIP3    H248275   0.127   0.001  16.755 -2.0517  1.4691  0.5245
 8954TIP3   OH248276   2.560   3.981  14.176 -0.2339 -0.8019  0.2784
 8954TIP3    H148277   2.496   3.910  14.178 -0.4081 -0.7747 -1.8250
 8954TIP3    H248278   2.512   4.054  14.137 -0.1749  0.6623  2.7458
 8955TIP3   OH248279   5.010   1.082  17.318 -0.0073  0.2709 -0.4876
 8955TIP3    H148280   5.034   1.146  17.385 -0.9816  0.6515 -0.4918
 8955TIP3    H248281   4.916   1.067  17.331  0.6043 -3.1993  1.2735
 8956TIP3   OH248282   0.934   2.020  12.211  0.2715 -0.0680 -0.1290
 8956TIP3    H148283   1.022   1.989  12.186 -0.2252 -1.4545 -0.2528
 8956TIP3    H248284   0.907   2.075  12.137  1.1026  0.5249 -0.0060
 8957TIP3   OH248285   3.399   0.105   2.360  0.0659 -0.2721  0.3329
 8957TIP3    H148286   3.308   0.121   2.334  0.4100 -0.8336 -1.2724
 8957TIP3    H248287   3.450   0.167   2.308  0.5864  0.5133  1.7185
 8958TIP3   OH248288   2.661   2.489   3.035 -0.8853 -0.5092  0.2980
 8958TIP3    H148289   2.608   2.484   2.955  1.3087  0.1269 -1.3147
 8958TIP3    H248290   2.679   2.398   3.057 -0.9688 -0.6898 -0.3418
 8959TIP3   OH248291   1.356   3.379   4.214 -0.5032 -0.5466  0.2487
 8959TIP3    H148292   1.376   3.469   4.241 -1.3356 -0.6296  1.1790
 8959TIP3    H248293   1.405   3.368   4.132 -0.6305  0.8642 -0.0556
 8960TIP3   OH248294   4.811   1.996  14.055 -0.2700 -0.2438  0.4064
 8960TIP3    H148295   4.881   1.946  14.096  0.2443 -0.5251 -0.7582
 8960TIP3    H248296   4.810   2.079  14.103  0.7315 -0.3077  0.5755
 8961TIP3   OH248297   3.928   5.417  16.789 -0.2089  0.8717 -0.4761
 8961TIP3    H148298   3.929   5.434  16.883  2.1791  1.8626 -0.6225
 8961TIP3    H248299   3.952   5.325  16.781 -0.5218  0.7572 -0.1145
 8962TIP3   OH248300   0.768   6.095   1.878 -0.1887 -0.6986  0.0887
 8962TIP3    H148301   0.845   6.039   1.870  0.6042  0.5680 -1.9816
 8962TIP3    H248302   0.725   6.089   1.793  0.0975  1.9797 -0.3295
 8963TIP3   OH248303   3.495   4.356   0.167 -0.3419 -0.2278  0.0234
 8963TIP3    H148304   3.523   4.446   0.149  1.7536 -0.1785  2.8583
 8963TIP3    H248305   3.415   4.366   0.219  0.2789  0.0565  0.9442
 8964TIP3   OH248306   3.429   5.210   1.546 -0.0860 -0.1527 -0.1469
 8964TIP3    H148307   3.430   5.246   1.457 -1.0448 -1.4196 -0.7154
 8964TIP3    H248308   3.337   5.206   1.569  0.2075  2.7504  2.0885
 8965TIP3   OH248309   1.700   2.153  12.100 -0.1227 -0.1341  0.7650
 8965TIP3    H148310   1.776   2.161  12.042 -1.2225  0.9384 -0.6021
 8965TIP3    H248311   1.629   2.125  12.042 -1.4449  1.7344  1.4091
 8966TIP3   OH248312   0.290   6.003   6.118 -0.8286  0.0210  0.0248
 8966TIP3    H148313   0.243   6.048   6.048 -0.6030 -0.4817 -0.4546
 8966TIP3    H248314   0.383   6.015   6.096 -0.7589 -0.2857  0.1516
 8967TIP3   OH248315   3.725   0.174  15.013 -0.3329  0.1698  0.1056
 8967TIP3    H148316   3.670   0.198  15.087 -0.6343 -0.7931  0.2076
 8967TIP3    H248317   3.666   0.174  14.937 -0.4118 -0.5465  0.1615
 8968TIP3   OH248318   4.828   4.742  13.753 -0.4460  0.1379  0.1456
 8968TIP3    H148319   4.744   4.732  13.707 -0.1471  0.3169 -0.4425
 8968TIP3    H248320   4.866   4.654  13.751 -0.1977  0.2544 -0.4131
 8969TIP3   OH248321   3.365   4.399  10.680 -0.0014  0.1636  0.2519
 8969TIP3    H148322   3.432   4.371  10.618 -3.4471 -3.1159 -2.5178
 8969TIP3    H248323   3.341   4.319  10.727 -0.6825  1.6191  2.5071
 8970TIP3   OH248324   2.528   6.191  11.885  0.1239 -0.0595  0.2206
 8970TIP3    H148325   2.523   6.283  11.858  2.3977 -0.4306 -1.8656
 8970TIP3    H248326   2.451   6.150  11.846 -1.2917  1.0345  1.7545
 8971TIP3   OH248327   4.164   2.825   5.777 -0.0707 -0.5793 -0.1081
 8971TIP3    H148328   4.101   2.786   5.839 -1.4554 -0.0589 -1.1352
 8971TIP3    H248329   4.201   2.899   5.825 -2.0941  0.6328 -0.2719
 8972TIP3   OH248330   3.716   1.238   5.469 -0.3958 -0.5936  0.2371
 8972TIP3    H148331   3.657   1.230   5.395 -0.2892 -2.1837  0.2995
 8972TIP3    H248332   3.771   1.314   5.448 -0.5827 -0.8207 -1.1446
 8973TIP3   OH248333   6.607   3.120   4.012  0.7170 -0.4256 -0.1216
 8973TIP3    H148334   6.578   3.203   4.050 -0.3892  0.2783 -2.3404
 8973TIP3    H248335   6.702   3.131   4.002  0.7150  0.1902  0.4191
 8974TIP3   OH248336   4.849   0.511   1.292  0.1192  0.0574  0.1545
 8974TIP3    H148337   4.816   0.455   1.362 -0.0326  0.2205  0.2137
 8974TIP3    H248338   4.856   0.454   1.216 -2.4107  0.4931 -0.4876
 8975TIP3   OH248339   1.315   2.604   3.850 -0.1941 -0.1605  0.1082
 8975TIP3    H148340   1.318   2.547   3.928  2.3057  0.6473  0.6846
 8975TIP3    H248341   1.239   2.660   3.865  0.1841 -0.0647  1.9630
 8976TIP3   OH248342   1.295   1.261   2.443 -0.0773 -0.0813  0.4609
 8976TIP3    H148343   1.248   1.345   2.436 -0.8969 -0.6627 -1.5914
 8976TIP3    H248344   1.387   1.285   2.432 -0.2787  0.5658  0.1196
 8977TIP3   OH248345   5.875   1.975  11.529  0.3659  0.6662 -0.2180
 8977TIP3    H148346   5.820   1.983  11.607 -0.2628 -1.5624 -0.3753
 8977TIP3    H248347   5.839   2.040  11.468 -0.9360  0.5180  0.3539
 8978TIP3   OH248348   2.357   5.853   6.139 -0.0166  0.6353 -0.0486
 8978TIP3    H148349   2.267   5.874   6.161 -0.6568 -0.6471 -1.2589
 8978TIP3    H248350   2.382   5.785   6.201 -1.8736 -3.1006 -2.9502
 8979TIP3   OH248351   0.289   6.758  12.504 -0.2723 -0.3272  0.0730
 8979TIP3    H148352   0.293   6.775  12.598  0.2891  1.5031 -0.2478
 8979TIP3    H248353   0.199   6.779  12.479 -0.3860 -0.6871  0.1847
 8980TIP3   OH248354   3.671   3.080   3.681 -0.0102  0.1143  0.2850
 8980TIP3    H148355   3.696   3.008   3.738  2.6547 -1.3311 -2.4001
 8980TIP3    H248356   3.727   3.153   3.709  0.8184 -0.3869 -0.0346
 8981TIP3   OH248357   4.241   5.136  12.016 -0.1848 -0.0183 -0.5544
 8981TIP3    H148358   4.291   5.117  11.937 -0.9356 -0.5528 -0.9192
 8981TIP3    H248359   4.181   5.206  11.990  0.1644  0.4146 -0.2055
 8982TIP3   OH248360   1.320   0.996   4.505 -0.5112 -0.6806 -0.6655
 8982TIP3    H148361   1.411   0.970   4.489 -0.2906 -0.0029 -0.5226
 8982TIP3    H248362   1.326   1.063   4.573 -1.1730 -1.1151 -0.1606
 8983TIP3   OH248363   3.577   1.349   3.000 -0.0635  0.2534 -0.3419
 8983TIP3    H148364   3.543   1.432   3.034 -1.1371  0.4870 -1.9038
 8983TIP3    H248365   3.613   1.371   2.914 -0.0301 -0.8290 -0.6170
 8984TIP3   OH248366   4.336   4.369  13.800 -0.5961  0.1437 -0.4848
 8984TIP3    H148367   4.268   4.371  13.867  1.2733 -2.4666  1.7347
 8984TIP3    H248368   4.316   4.290  13.748  0.1285 -0.0404 -0.4898
 8985TIP3   OH248369   0.615   6.371  11.924  0.0092 -0.4212 -0.5071
 8985TIP3    H148370   0.637   6.358  11.831  0.3822 -2.5325 -0.1726
 8985TIP3    H248371   0.544   6.309  11.941 -0.4029  0.3061  0.5118
 8986TIP3   OH248372   6.568   2.654  15.431  0.2506 -0.1408 -0.2564
 8986TIP3    H148373   6.578   2.576  15.486  0.5015 -0.5587 -0.8863
 8986TIP3    H248374   6.630   2.717  15.466  2.4193 -1.3468 -1.7207
 8987TIP3   OH248375   5.197   6.067  14.831 -0.2054 -0.3022 -0.0889
 8987TIP3    H148376   5.128   6.107  14.778  0.3018  0.9724  0.1930
 8987TIP3    H248377   5.263   6.135  14.840 -0.1272 -0.5871  1.9057
 8988TIP3   OH248378   5.181   5.536   1.902 -0.1515 -0.0974 -0.5764
 8988TIP3    H148379   5.222   5.481   1.968  3.3479  0.2392 -2.2241
 8988TIP3    H248380   5.198   5.625   1.931 -0.1173  0.0540 -1.0495
 8989TIP3   OH248381   5.280   3.132   5.679 -0.5107  0.0283 -0.2281
 8989TIP3    H148382   5.293   3.037   5.691  0.1341 -0.2418 -2.5208
 8989TIP3    H248383   5.313   3.171   5.760 -1.7437 -1.7327  1.2098
 8990TIP3   OH248384   4.890   2.684   1.920  0.7329 -0.1853  0.2650
 8990TIP3    H148385   4.833   2.730   1.858 -1.8883 -1.1011  1.8245
 8990TIP3    H248386   4.975   2.681   1.876  0.0144  2.5089 -1.6100
 8991TIP3   OH248387   0.055   2.071  11.323 -0.5485  0.0512  0.0795
 8991TIP3    H148388  -0.033   2.107  11.335  0.2761  2.9439 -1.4367
 8991TIP3    H248389   0.041   1.983  11.289 -2.8296  0.1848  0.5049
 8992TIP3   OH248390   1.700   2.517  15.771 -0.3289  0.0115 -0.5672
 8992TIP3    H148391   1.657   2.581  15.827 -0.4023 -1.3686  1.0410
 8992TIP3    H248392   1.770   2.480  15.825  1.8133  0.9427 -2.5210
 8993TIP3   OH248393   5.526   3.756   3.339  0.3220 -0.3274  0.8325
 8993TIP3    H148394   5.545   3.806   3.260  1.5013  1.3590  2.1145
 8993TIP3    H248395   5.450   3.703   3.316 -0.2507  1.1775 -0.9725
 8994TIP3   OH248396   5.239   1.827  14.075 -0.5112  0.6095  0.1116
 8994TIP3    H148397   5.283   1.830  13.990 -0.3918 -0.0555  0.1401
 8994TIP3    H248398   5.164   1.768  14.060 -0.1765  0.0502  0.5977
 8995TIP3   OH248399   2.610   2.037   2.312 -0.1941  0.5546  0.7907
 8995TIP3    H148400   2.526   2.059   2.351 -0.5441 -0.5359  0.7018
 8995TIP3    H248401   2.593   1.957   2.262  1.2267 -0.6442  2.1044
 8996TIP3   OH248402   4.820   4.624  16.305  0.6766  0.0363  0.3642
 8996TIP3    H148403   4.802   4.550  16.247 -0.4030  1.9128 -1.8399
 8996TIP3    H248404   4.741   4.633  16.358  0.4733  0.1106  0.0518
 8997TIP3   OH248405   4.082   0.164  13.756  0.0138  0.1406  1.1830
 8997TIP3    H148406   4.105   0.230  13.822  2.2510  1.2103 -0.5209
 8997TIP3    H248407   4.066   0.084  13.806  2.6663  0.6193  3.0093
 8998TIP3   OH248408   1.454   4.655  13.770  0.0029  0.8333  0.0752
 8998TIP3    H148409   1.434   4.629  13.680  1.8177 -1.1247  0.1577
 8998TIP3    H248410   1.499   4.579  13.807  4.3430  3.4362  0.8891
 8999TIP3   OH248411   5.499   6.478   3.636  0.6431 -0.3087 -0.5171
 8999TIP3    H148412   5.471   6.542   3.571  1.1045  0.7467  0.3007
 8999TIP3    H248413   5.536   6.530   3.707  1.0459 -1.4857  0.1641
 9000TIP3   OH248414   6.377   1.565   6.262  0.1047  0.0115 -0.1637
 9000TIP3    H148415   6.412   1.643   6.219 -1.0381  0.5144 -0.1943
 9000TIP3    H248416   6.446   1.499   6.250  0.3660  0.5162 -1.6458
 9001TIP3   OH248417   3.731   0.236   3.915 -0.4512 -0.1217 -0.2074
 9001TIP3    H148418   3.761   0.156   3.872  1.5828 -0.0046  0.8605
 9001TIP3    H248419   3.678   0.205   3.989 -0.1655 -0.4631 -0.1438
 9002TIP3   OH248420   3.531   6.778  12.271  0.2553  0.2026  0.4326
 9002TIP3    H148421   3.475   6.701  12.264  0.4779  0.0773  0.0256
 9002TIP3    H248422   3.567   6.790  12.183 -1.3214  1.9397 -0.0203
 9003TIP3   OH248423   6.760   1.146  14.841  0.7366  0.0203 -0.4536
 9003TIP3    H148424   6.723   1.111  14.922 -0.1592 -0.6112 -1.1143
 9003TIP3    H248425   6.760   1.241  14.853 -1.5798  0.0822 -0.6140
 9004TIP3   OH248426   5.447   0.686  14.173 -0.2277 -0.1583 -0.0159
 9004TIP3    H148427   5.404   0.658  14.254  0.1399  0.7507  0.4972
 9004TIP3    H248428   5.374   0.701  14.112 -0.9398  3.6478  1.5220
 9005TIP3   OH248429   1.702   5.691   4.588 -0.2495 -0.4761  0.2619
 9005TIP3    H148430   1.707   5.748   4.511 -1.5659 -0.8866 -0.1543
 9005TIP3    H248431   1.648   5.740   4.650 -0.2441 -0.6873  0.4352
 9006TIP3   OH248432   3.574   5.685   0.617 -0.8640  0.4275 -0.1716
 9006TIP3    H148433   3.635   5.747   0.658  0.8244 -1.0951 -0.2878
 9006TIP3    H248434   3.540   5.733   0.541  0.7570  1.0783 -0.5334
 9007TIP3   OH248435   2.088   5.759   4.333 -0.1204 -0.0958  1.0610
 9007TIP3    H148436   2.153   5.702   4.375 -1.0163 -1.2368  0.9698
 9007TIP3    H248437   2.023   5.775   4.401 -0.8938 -0.8582  0.5270
 9008TIP3   OH248438   5.804   0.390   3.471  0.2418 -0.1629  0.4223
 9008TIP3    H148439   5.727   0.335   3.457  0.6024 -0.6173  0.1679
 9008TIP3    H248440   5.865   0.363   3.402  1.3515 -1.1332  1.7270
 9009TIP3   OH248441   3.109   0.534  16.334 -0.2343 -0.4609 -0.7508
 9009TIP3    H148442   3.054   0.523  16.411 -0.1930 -0.0358 -0.6613
 9009TIP3    H248443   3.084   0.461  16.277  0.0991 -1.0772 -0.1271
 9010TIP3   OH248444   1.567   5.928   1.371  0.0605  0.0428 -0.4053
 9010TIP3    H148445   1.549   5.943   1.464 -0.0382 -1.2792 -0.1909
 9010TIP3    H248446   1.482   5.936   1.329  0.3451  2.3522 -0.6700
 9011TIP3   OH248447   0.081   6.076   3.773 -0.0965 -0.6300  0.0670
 9011TIP3    H148448   0.163   6.052   3.815  0.6945  0.2185 -0.9290
 9011TIP3    H248449   0.031   6.122   3.841  1.3035  1.0605  0.0339
 9012TIP3   OH248450   0.809   5.164  12.889  0.0439 -0.4193  0.9737
 9012TIP3    H148451   0.758   5.134  12.814 -0.0716  1.6728  0.1545
 9012TIP3    H248452   0.745   5.198  12.951  0.3052  1.2721  0.3792
 9013TIP3   OH248453   0.667   1.378   5.457  0.5854  0.0062  0.3540
 9013TIP3    H148454   0.732   1.338   5.399  1.2208  1.2803  0.1618
 9013TIP3    H248455   0.590   1.392   5.401  0.5420 -0.4431  0.2946
 9014TIP3   OH248456   3.188   3.157   4.133  0.5553  0.2638  0.1086
 9014TIP3    H148457   3.172   3.192   4.045  0.9971 -1.5875 -0.7386
 9014TIP3    H248458   3.101   3.129   4.163  0.5232  0.1793 -0.0599
 9015TIP3   OH248459   5.006   5.400   2.521 -0.0267  0.3860 -0.0221
 9015TIP3    H148460   5.010   5.412   2.426 -2.4297  0.8946 -0.1207
 9015TIP3    H248461   5.075   5.336   2.540  0.0664 -0.2403 -2.1933
 9016TIP3   OH248462   3.111   0.076   3.408 -0.1216 -0.5081 -0.1940
 9016TIP3    H148463   3.120   0.171   3.407  1.0414 -0.5330  2.2324
 9016TIP3    H248464   3.199   0.043   3.389 -0.2570 -1.0988  0.1615
 9017TIP3   OH248465   1.951   5.145   4.404  0.1767  0.1276 -0.1166
 9017TIP3    H148466   1.918   5.214   4.347  1.3537  0.3193 -0.6058
 9017TIP3    H248467   2.010   5.095   4.348  0.9746  0.0185  0.7948
 9018TIP3   OH248468   6.265   5.038  11.183  0.2226 -0.0833  0.3239
 9018TIP3    H148469   6.175   5.067  11.204  0.0312 -0.4869  0.0584
 9018TIP3    H248470   6.297   5.000  11.265 -1.4950 -4.1928 -0.6884
 9019TIP3   OH248471   5.602   6.694   3.802  0.0122 -0.1313 -0.2410
 9019TIP3    H148472   5.558   6.778   3.796 -2.4882 -1.2826  0.6701
 9019TIP3    H248473   5.684   6.713   3.848 -0.8957  1.6549  0.7370
 9020TIP3   OH248474   3.091   4.357  14.445 -0.0334 -0.3247 -0.1658
 9020TIP3    H148475   3.146   4.383  14.519  1.8451 -1.1935 -1.1921
 9020TIP3    H248476   3.042   4.281  14.477  0.3790 -0.3803  0.3542
 9021TIP3   OH248477   5.844   4.545   5.507  0.1344  0.4091  0.2117
 9021TIP3    H148478   5.867   4.606   5.437  1.8647 -1.1206 -0.6300
 9021TIP3    H248479   5.796   4.475   5.463  0.0829  0.0698  0.7940
 9022TIP3   OH248480   5.967   1.520   5.274 -0.6180  0.1469 -0.9497
 9022TIP3    H148481   5.984   1.524   5.368 -1.0018 -0.6911 -0.8352
 9022TIP3    H248482   6.041   1.472   5.238 -0.5996  0.2451 -1.0453
 9023TIP3   OH248483   4.124   0.565   1.038  0.2638 -0.2972  0.3350
 9023TIP3    H148484   4.169   0.650   1.041  0.9992 -0.6108 -0.9453
 9023TIP3    H248485   4.031   0.587   1.033  0.3194  0.3898  1.7459
 9024TIP3   OH248486   3.720   2.788  16.464  0.0186 -0.2980  0.0694
 9024TIP3    H148487   3.678   2.849  16.525 -1.3483 -0.5593 -0.5750
 9024TIP3    H248488   3.810   2.820  16.457 -0.1954  0.6072  1.0814
 9025TIP3   OH248489   2.755   5.279  15.086  0.0274 -0.7552  0.8904
 9025TIP3    H148490   2.844   5.266  15.118 -0.1899 -0.7726  1.5148
 9025TIP3    H248491   2.765   5.334  15.008  0.3804  2.1255  2.8097
 9026TIP3   OH248492   2.835   4.465  14.832 -0.4203 -0.6130 -0.8569
 9026TIP3    H148493   2.841   4.370  14.841  1.8313 -0.7297 -2.6826
 9026TIP3    H248494   2.873   4.499  14.913 -0.3394 -1.2833 -0.6035
 9027TIP3   OH248495   5.291   6.366  11.527  0.0989  0.2228  0.2172
 9027TIP3    H148496   5.219   6.320  11.485  0.2252 -0.8447  1.1369
 9027TIP3    H248497   5.277   6.354  11.621  1.5886 -0.2322  0.4150
 9028TIP3   OH248498   4.984   3.938   1.891  0.0685 -0.3613 -0.2967
 9028TIP3    H148499   4.985   4.032   1.874  1.9470 -0.3290 -0.2386
 9028TIP3    H248500   4.947   3.900   1.811 -2.0841  0.4736  0.2430
 9029TIP3   OH248501   4.905   3.724   6.507 -0.7765  0.1341 -0.0881
 9029TIP3    H148502   4.844   3.797   6.497 -1.7144 -0.8287 -1.7357
 9029TIP3    H248503   4.875   3.658   6.445  1.2032 -0.8929 -0.0525
 9030TIP3   OH248504   5.104   3.376  12.958  0.2943 -0.3554 -0.5949
 9030TIP3    H148505   5.178   3.415  12.910  0.4355  0.8267  0.5338
 9030TIP3    H248506   5.029   3.388  12.900  0.7288 -0.3045 -1.1596
 9031TIP3   OH248507   3.727   5.443   0.730  0.3997  0.0249  0.1147
 9031TIP3    H148508   3.806   5.482   0.767  0.2730 -0.2351  0.6735
 9031TIP3    H248509   3.668   5.517   0.716  1.2323  0.3928 -1.5894
 9032TIP3   OH248510   0.687   5.039   1.863 -0.0372  0.0501 -0.0504
 9032TIP3    H148511   0.715   5.109   1.923 -0.0409 -1.3613  1.6592
 9032TIP3    H248512   0.707   5.074   1.776  2.8926  0.9584  0.8434
 9033TIP3   OH248513   0.568   0.276  13.045 -0.0496  0.1082 -0.0806
 9033TIP3    H148514   0.481   0.266  13.007  0.2689  3.0129 -1.8933
 9033TIP3    H248515   0.613   0.195  13.023 -2.2384 -1.5408  1.0374
 9034TIP3   OH248516   0.863   2.500   0.447 -0.0630 -0.0999  0.3553
 9034TIP3    H148517   0.826   2.460   0.525 -0.4910  0.0383  0.2305
 9034TIP3    H248518   0.936   2.552   0.478  0.6201 -1.1226  0.4977
 9035TIP3   OH248519   3.456   5.327  15.585 -0.0307  0.1125 -0.0013
 9035TIP3    H148520   3.381   5.275  15.554 -1.3473  0.8876  1.7138
 9035TIP3    H248521   3.469   5.298  15.675  1.3395  0.4727 -0.0677
 9036TIP3   OH248522   2.081   3.636  17.265  0.5258 -0.3778 -0.1101
 9036TIP3    H148523   1.992   3.666  17.283  0.9473  1.4925 -0.9147
 9036TIP3    H248524   2.116   3.614  17.351  0.4451  2.3641  0.7130
 9037TIP3   OH248525   1.188   6.565   0.848 -0.3440 -0.4188  0.2293
 9037TIP3    H148526   1.236   6.585   0.928 -4.8181 -1.0326  3.4314
 9037TIP3    H248527   1.200   6.643   0.793  2.1488  0.4352  1.8181
 9038TIP3   OH248528   5.029   4.072  11.802 -0.3118 -0.7708 -0.0765
 9038TIP3    H148529   5.116   4.050  11.768  0.3797  0.6811  0.6758
 9038TIP3    H248530   5.035   4.053  11.896 -1.0925 -1.4327 -0.1451
 9039TIP3   OH248531   1.504   0.727  16.994 -0.3062 -0.4325 -0.5737
 9039TIP3    H148532   1.510   0.664  17.066 -0.5642  0.0299 -0.1351
 9039TIP3    H248533   1.462   0.679  16.923 -2.4899 -0.1743  0.4651
 9040TIP3   OH248534   0.654   4.020  16.992  0.1005 -0.2964 -0.1944
 9040TIP3    H148535   0.693   4.084  16.931 -1.7328  0.5007 -0.5899
 9040TIP3    H248536   0.561   4.021  16.971 -0.2196 -1.8154  1.0235
 9041TIP3   OH248537   5.455   2.909  17.210  0.2724  0.0623 -0.8200
 9041TIP3    H148538   5.497   2.870  17.287  0.0068 -0.9143 -1.1537
 9041TIP3    H248539   5.525   2.912  17.144 -0.0871 -1.4170 -1.3242
 9042TIP3   OH248540   4.069   0.641   4.548 -0.3714  0.0808  0.1230
 9042TIP3    H148541   4.120   0.635   4.467 -0.0120 -1.0121  0.4169
 9042TIP3    H248542   4.135   0.646   4.618 -0.6615  2.4362  0.2920
 9043TIP3   OH248543   1.521   5.071  13.764  0.2598  0.2957  0.0390
 9043TIP3    H148544   1.441   5.076  13.713  1.3121  0.3991 -1.6855
 9043TIP3    H248545   1.548   5.162  13.776  1.0464  0.2269 -0.9965
 9044TIP3   OH248546   1.783   2.675   6.361 -0.1015 -0.3750 -0.2595
 9044TIP3    H148547   1.862   2.621   6.357  0.2505  0.1792 -1.0694
 9044TIP3    H248548   1.789   2.719   6.446  0.4976 -0.2992 -0.3325
 9045TIP3   OH248549   4.763   0.597   3.441 -0.2035 -0.0039  0.1745
 9045TIP3    H148550   4.770   0.611   3.347  0.7595 -0.0968  0.2154
 9045TIP3    H248551   4.804   0.675   3.480 -0.0068 -0.2611  0.4976
 9046TIP3   OH248552   5.952   6.172   1.294  0.0724 -0.2949 -0.0960
 9046TIP3    H148553   6.047   6.171   1.283  0.0959  0.3079  0.0430
 9046TIP3    H248554   5.934   6.097   1.350  0.4518 -0.4996 -0.2439
 9047TIP3   OH248555   0.229   6.064  13.759  0.5989  0.3613 -0.0272
 9047TIP3    H148556   0.142   6.028  13.740  0.7621 -0.1291  0.1464
 9047TIP3    H248557   0.232   6.146  13.711  1.0973 -0.9412 -2.3378
 9048TIP3   OH248558   3.134   2.249   3.120 -0.2129 -0.5786  0.4368
 9048TIP3    H148559   3.227   2.247   3.142  0.0125 -1.1171 -0.4831
 9048TIP3    H248560   3.108   2.340   3.135  0.8299 -0.0593 -0.6838
 9049TIP3   OH248561   6.536   4.095  12.927 -0.0873 -0.1877  0.1207
 9049TIP3    H148562   6.496   4.038  12.862 -1.1540 -0.5107  1.0337
 9049TIP3    H248563   6.499   4.181  12.910  1.3058  0.2124 -1.0755
 9050TIP3   OH248564   0.102   5.457  17.300  0.6994  0.2677 -0.9426
 9050TIP3    H148565   0.051   5.535  17.325  2.2178  1.3043 -0.8982
 9050TIP3    H248566   0.070   5.433  17.214 -0.6045  0.2121 -0.4622
 9051TIP3   OH248567   0.340   1.036  12.941  0.3192 -0.0615  0.1324
 9051TIP3    H148568   0.371   1.088  13.016 -1.2450  1.0305  0.0774
 9051TIP3    H248569   0.390   1.068  12.867  0.5043  0.2387  0.3834
 9052TIP3   OH248570   5.503   0.101  16.645  0.7602 -0.3063 -0.0364
 9052TIP3    H148571   5.457   0.181  16.619  0.1429 -0.6278  0.0411
 9052TIP3    H248572   5.561   0.082  16.572  0.0159 -0.4533 -0.6078
 9053TIP3   OH248573   3.716   3.440  12.058  0.2071  0.3598  0.2364
 9053TIP3    H148574   3.764   3.457  12.139  0.6578  0.5374 -0.0590
 9053TIP3    H248575   3.780   3.459  11.989  0.8176 -2.5750 -0.1444
 9054TIP3   OH248576   4.056   3.501  12.529 -0.5821  0.3205 -0.2891
 9054TIP3    H148577   4.019   3.506  12.618  0.0721 -0.9263  0.0719
 9054TIP3    H248578   4.017   3.423  12.491 -0.4267  0.5389 -0.8999
 9055TIP3   OH248579   5.352   4.252   4.535  0.2804 -0.2753  0.2817
 9055TIP3    H148580   5.290   4.290   4.472  0.3972 -0.9615 -0.2646
 9055TIP3    H248581   5.426   4.312   4.535 -0.0638  0.1541  0.3698
 9056TIP3   OH248582   2.535   3.280   0.539  0.1250 -0.3765 -0.4087
 9056TIP3    H148583   2.442   3.272   0.561 -0.2201  1.3031 -1.0781
 9056TIP3    H248584   2.537   3.338   0.462  1.7301 -0.2213 -0.2925
 9057TIP3   OH248585   4.580   5.519   0.239 -0.4485  0.0592  0.1784
 9057TIP3    H148586   4.569   5.424   0.243  0.6914 -0.0844  0.2603
 9057TIP3    H248587   4.509   5.549   0.183 -2.0217 -0.6053  1.7274
 9058TIP3   OH248588   6.539   6.758  14.325 -0.5178 -0.0149 -0.3526
 9058TIP3    H148589   6.594   6.684  14.351 -1.6821 -1.4900 -1.8428
 9058TIP3    H248590   6.456   6.743  14.372 -0.6021  0.6222 -0.2942
 9059TIP3   OH248591   4.720   1.005  17.065 -0.3515  0.1105  0.2577
 9059TIP3    H148592   4.790   1.054  17.021 -1.6698  0.1953 -1.8819
 9059TIP3    H248593   4.765   0.930  17.104  1.4431  2.0066  2.1085
 9060TIP3   OH248594   6.287   0.581   3.005  0.4096 -0.2721 -0.6307
 9060TIP3    H148595   6.258   0.535   2.926  1.3208 -1.4210 -0.3274
 9060TIP3    H248596   6.233   0.659   3.008 -0.1134 -0.5420 -2.0282
 9061TIP3   OH248597   5.922   1.672  10.628 -0.7447 -0.1023  0.6080
 9061TIP3    H148598   5.909   1.634  10.715  0.0176  0.1870  0.8567
 9061TIP3    H248599   5.952   1.599  10.575 -0.8745 -0.2057  0.6757
 9062TIP3   OH248600   3.531   4.491   2.521 -0.0051  0.7460 -0.3700
 9062TIP3    H148601   3.589   4.424   2.557 -3.9145 -1.6126  2.2906
 9062TIP3    H248602   3.499   4.453   2.439 -1.9551 -0.6475  0.9658
 9063TIP3   OH248603   0.009   6.161  12.193  0.0336 -0.3984 -0.1260
 9063TIP3    H148604   0.043   6.154  12.282 -1.8455  0.7264  0.7396
 9063TIP3    H248605  -0.083   6.134  12.200 -0.0167 -0.7616 -1.8311
 9064TIP3   OH248606   0.970   1.885   5.378 -0.2226 -0.3307 -0.1859
 9064TIP3    H148607   1.001   1.804   5.337 -1.8454 -0.9298 -0.3338
 9064TIP3    H248608   0.979   1.951   5.309 -1.2502 -0.9525 -0.9517
 9065TIP3   OH248609   6.084   4.602   0.309  0.1859 -0.0290 -0.2600
 9065TIP3    H148610   6.029   4.623   0.385 -0.4160 -0.7384 -0.4887
 9065TIP3    H248611   6.163   4.562   0.346  0.7406  1.3495  0.0950
 9066TIP3   OH248612   5.391   0.722   4.428  0.0806 -0.0070  0.4319
 9066TIP3    H148613   5.386   0.636   4.471 -2.0108 -1.0190 -1.6166
 9066TIP3    H248614   5.388   0.702   4.335  0.0318  2.3128 -0.1179
 9067TIP3   OH248615   6.553   2.969  13.853  0.1630 -0.2187 -0.4440
 9067TIP3    H148616   6.461   2.973  13.827  0.1909 -0.6833 -0.6319
 9067TIP3    H248617   6.566   3.045  13.909 -0.7667 -1.0669  0.9771
 9068TIP3   OH248618   2.504   6.667   5.546  0.3724 -0.8003 -0.5403
 9068TIP3    H148619   2.456   6.724   5.485  1.0575 -2.5843 -2.9024
 9068TIP3    H248620   2.437   6.613   5.587 -0.0107 -0.2376 -0.4089
 9069TIP3   OH248621   0.514   6.205  12.207  0.4059 -0.2278 -0.2493
 9069TIP3    H148622   0.605   6.228  12.225  0.7461 -0.8862 -1.0875
 9069TIP3    H248623   0.515   6.170  12.118 -0.6164 -0.5329 -0.1525
 9070TIP3   OH248624   1.660   2.110   1.914 -0.0038  0.3453 -0.6468
 9070TIP3    H148625   1.593   2.053   1.951 -0.2144 -0.8103 -2.6471
 9070TIP3    H248626   1.612   2.173   1.861  0.4094  0.2278 -1.1726
 9071TIP3   OH248627   4.456   2.561  16.311 -0.8955 -0.1156 -0.7296
 9071TIP3    H148628   4.458   2.488  16.372  0.3982 -0.1157 -0.7450
 9071TIP3    H248629   4.476   2.638  16.364 -1.6665  0.1556 -0.8189
 9072TIP3   OH248630   3.412   5.760  14.548 -0.7899  0.4191 -0.3923
 9072TIP3    H148631   3.499   5.775  14.585 -0.9138  2.4591 -0.8457
 9072TIP3    H248632   3.425   5.764  14.454 -1.1064 -1.1056 -0.5339
 9073TIP3   OH248633   1.623   3.211  16.055  0.0781  0.3773  0.7561
 9073TIP3    H148634   1.593   3.302  16.047  0.4381  0.4237 -0.2280
 9073TIP3    H248635   1.696   3.204  15.993  0.8434 -0.2619  1.6972
 9074TIP3   OH248636   5.469   3.090  10.950 -0.4975 -0.4519  0.6548
 9074TIP3    H148637   5.439   3.002  10.925  0.8239 -0.0561 -2.9822
 9074TIP3    H248638   5.439   3.146  10.878  0.2318  1.7562  1.9854
 9075TIP3   OH248639   1.170   4.257   5.629 -0.1912  0.2624  0.2366
 9075TIP3    H148640   1.114   4.203   5.686 -1.1658  1.7313  0.7185
 9075TIP3    H248641   1.257   4.252   5.669  0.0309 -1.8017 -0.3481
 9076TIP3   OH248642   3.482   2.320   3.850  0.0207 -0.0734 -0.1085
 9076TIP3    H148643   3.476   2.344   3.942 -1.0647 -2.0656  0.3755
 9076TIP3    H248644   3.406   2.362   3.809 -0.1054 -0.0987  0.1032
 9077TIP3   OH248645   6.222   6.026  12.718  0.1191 -0.2522 -0.2271
 9077TIP3    H148646   6.277   5.968  12.771  0.5651  0.0464 -0.3593
 9077TIP3    H248647   6.134   5.989  12.726 -0.1812  0.8402  2.2202
 9078TIP3   OH248648   1.888   4.077  11.906  0.3502  0.0795 -0.1290
 9078TIP3    H148649   1.923   4.163  11.928 -0.0001  0.4479 -0.9928
 9078TIP3    H248650   1.843   4.048  11.986  0.4381  0.7085  0.1496
 9079TIP3   OH248651   5.701   1.341   1.184 -0.2075 -0.4263 -0.0128
 9079TIP3    H148652   5.759   1.373   1.115 -0.8752 -1.2501 -1.0031
 9079TIP3    H248653   5.667   1.420   1.226  0.3057  0.0919 -0.5603
 9080TIP3   OH248654   5.720   0.702   0.095 -0.0915  0.5878 -0.2779
 9080TIP3    H148655   5.714   0.641   0.168  0.6921 -0.0583 -0.7332
 9080TIP3    H248656   5.799   0.674   0.047 -0.3072  1.3094 -1.0741
 9081TIP3   OH248657   1.209   2.061   1.219  0.0005 -0.2411  0.1128
 9081TIP3    H148658   1.136   2.002   1.237 -1.0100  0.4337 -1.4949
 9081TIP3    H248659   1.223   2.053   1.124  1.7630 -0.0529  0.3244
 9082TIP3   OH248660   0.386   3.198  14.270  0.0999 -1.0191  0.5270
 9082TIP3    H148661   0.464   3.166  14.224  0.3713 -0.6297  0.7134
 9082TIP3    H248662   0.322   3.213  14.200  0.0505 -1.7216  0.4113
 9083TIP3   OH248663   6.556   5.608   4.116 -0.3461 -0.1659 -0.3068
 9083TIP3    H148664   6.493   5.672   4.150  0.4457 -0.0687  1.0182
 9083TIP3    H248665   6.572   5.549   4.189  1.0752 -0.1993 -0.6322
 9084TIP3   OH248666   2.958   5.969   3.068  0.3190  0.2280 -0.1018
 9084TIP3    H148667   3.018   5.922   3.127 -0.8421  0.2185  1.1197
 9084TIP3    H248668   2.871   5.953   3.104 -0.1963  2.6827 -0.0665
 9085TIP3   OH248669   3.862   5.221   2.330  0.6433  0.3233  0.0459
 9085TIP3    H148670   3.928   5.152   2.322 -0.7750 -0.9819 -1.0936
 9085TIP3    H248671   3.802   5.189   2.398 -0.0015  0.4123 -0.4665
 9086TIP3   OH248672   3.476   0.782   5.098  0.0435 -0.1267 -0.5774
 9086TIP3    H148673   3.506   0.873   5.094  1.4680 -0.2477  3.0198
 9086TIP3    H248674   3.556   0.731   5.097 -0.6387 -1.2141 -0.7842
 9087TIP3   OH248675   0.424   6.622   4.920 -0.4745  0.0871  0.1060
 9087TIP3    H148676   0.519   6.614   4.929 -0.2190  2.7852  0.7702
 9087TIP3    H248677   0.407   6.612   4.826  0.2404 -1.8194  0.1418
 9088TIP3   OH248678   1.098   5.637  15.673 -0.4588 -0.0491  0.1887
 9088TIP3    H148679   1.101   5.712  15.732  1.3145 -0.0731  0.1850
 9088TIP3    H248680   1.131   5.564  15.725 -0.3744 -0.4109 -0.3659
 9089TIP3   OH248681   1.567   2.229  12.803  0.0185  0.2500 -0.0365
 9089TIP3    H148682   1.632   2.252  12.870 -1.5382  0.4241  1.4944
 9089TIP3    H248683   1.618   2.216  12.723  1.7086  2.4014  0.6060
 9090TIP3   OH248684   0.263   4.685   4.903  0.2712 -0.4821 -0.1538
 9090TIP3    H148685   0.275   4.778   4.923  1.1071 -0.7485  0.6523
 9090TIP3    H248686   0.337   4.662   4.847  0.7198 -0.9243  0.6048
 9091TIP3   OH248687   1.562   3.222  12.531  0.2440 -0.0042 -0.7348
 9091TIP3    H148688   1.597   3.226  12.620 -3.3226  0.3911  0.8002
 9091TIP3    H248689   1.605   3.146  12.492  1.9148 -0.1880  1.2858
 9092TIP3   OH248690   1.646   6.180  11.832 -0.2051 -0.0811  0.3470
 9092TIP3    H148691   1.726   6.170  11.885  0.1124  0.7036  0.0345
 9092TIP3    H248692   1.575   6.165  11.894  0.1532  1.1492  1.0957
 9093TIP3   OH248693   1.069   5.181  16.361 -0.2382  0.1783  0.3560
 9093TIP3    H148694   1.003   5.248  16.380  0.8597  0.9984  1.4266
 9093TIP3    H248695   1.071   5.177  16.265 -1.2513  0.7258  0.2913
 9094TIP3   OH248696   3.153   6.137  16.059 -0.6636  0.2404  0.5931
 9094TIP3    H148697   3.202   6.066  16.101 -0.8167  0.4622  1.1549
 9094TIP3    H248698   3.134   6.104  15.971  0.3001  0.0617  0.4329
 9095TIP3   OH248699   3.085   5.579  13.245  0.2978  0.6744  0.5347
 9095TIP3    H148700   3.033   5.570  13.166  0.9731  1.9456 -0.0909
 9095TIP3    H248701   3.113   5.490  13.266  0.2585  0.3429 -0.7595
 9096TIP3   OH248702   2.968   3.406   0.247 -0.1428 -0.3018  0.3747
 9096TIP3    H148703   3.002   3.410   0.158 -0.3481 -1.8260  0.2071
 9096TIP3    H248704   3.033   3.354   0.295 -1.3950 -1.9023  0.4242
 9097TIP3   OH248705   5.172   4.492   3.744  0.4397  0.5512  0.3587
 9097TIP3    H148706   5.265   4.474   3.759  0.2016 -0.1697  1.0612
 9097TIP3    H248707   5.143   4.535   3.825 -0.2163 -0.7993  0.8805
 9098TIP3   OH248708   3.518   0.229  16.144  0.8174  0.1155 -0.7143
 9098TIP3    H148709   3.544   0.289  16.214  0.0248 -0.7685  0.3725
 9098TIP3    H248710   3.599   0.215  16.094  1.1763  1.5029 -0.5651
 9099TIP3   OH248711   0.500   1.553   4.586 -0.2427  0.9668 -0.4617
 9099TIP3    H148712   0.487   1.591   4.673 -0.9596 -0.3381  0.0250
 9099TIP3    H248713   0.588   1.515   4.589 -0.9979 -0.7959  0.3901
 9100TIP3   OH248714   1.790   0.161  15.761  0.1357  0.4539  0.1008
 9100TIP3    H148715   1.738   0.097  15.810  0.2517  0.9966  0.9619
 9100TIP3    H248716   1.789   0.129  15.671 -0.2261 -0.4831  0.4242
 9101TIP3   OH248717   2.023   5.354  16.961 -0.1954 -0.1425 -0.3015
 9101TIP3    H148718   2.115   5.360  16.936 -0.4759  3.3808 -1.0332
 9101TIP3    H248719   1.977   5.338  16.878 -0.3094 -1.6889  0.0312
 9102TIP3   OH248720   0.584   4.101   5.297  0.1276  0.0626 -0.1190
 9102TIP3    H148721   0.499   4.058   5.309  0.4129 -0.5157 -0.1127
 9102TIP3    H248722   0.648   4.033   5.319  0.6245  0.0203 -1.5693
 9103TIP3   OH248723   4.606   4.151  15.365 -0.0497  0.1308 -0.0431
 9103TIP3    H148724   4.627   4.186  15.452 -0.9598  2.9528 -0.8389
 9103TIP3    H248725   4.687   4.161  15.315  0.3417 -1.0635  0.3393
 9104TIP3   OH248726   6.619   5.265   1.504 -0.1795  0.6896  0.5651
 9104TIP3    H148727   6.584   5.272   1.415  0.2584  0.5406  0.3763
 9104TIP3    H248728   6.651   5.353   1.525  0.2718  0.5862  0.3343
 9105TIP3   OH248729   4.888   1.311   2.535 -0.2848  0.1925 -0.1033
 9105TIP3    H148730   4.960   1.357   2.580  0.9542 -1.7898  0.0572
 9105TIP3    H248731   4.921   1.295   2.446 -1.2093  0.7227 -0.5576
 9106TIP3   OH248732   6.671   0.611  16.604  0.3983  0.3100 -0.7449
 9106TIP3    H148733   6.735   0.540  16.594  1.6120  1.1233  0.9136
 9106TIP3    H248734   6.632   0.620  16.517  1.0548 -1.5834 -1.2892
 9107TIP3   OH248735   3.151   3.462  14.288 -0.1640 -0.6150  0.5640
 9107TIP3    H148736   3.110   3.508  14.362 -0.6880  0.0374 -0.1198
 9107TIP3    H248737   3.142   3.370  14.309 -2.4743 -0.5110  0.1827
 9108TIP3   OH248738   1.357   3.608   4.012  0.4287  0.1194  0.3681
 9108TIP3    H148739   1.350   3.656   4.095 -0.7250  1.5484 -0.5021
 9108TIP3    H248740   1.437   3.641   3.972 -0.9307  2.3160 -0.7476
 9109TIP3   OH248741   4.995   5.741  15.257  0.2810 -0.3699 -0.4487
 9109TIP3    H148742   4.921   5.719  15.201  0.5921  0.7248 -1.3230
 9109TIP3    H248743   5.055   5.788  15.200 -0.2741  2.5997  1.2507
 9110TIP3   OH248744   4.610   6.190   0.326  0.4071  0.2033  0.0015
 9110TIP3    H148745   4.641   6.277   0.350 -0.1455  0.4434 -0.1534
 9110TIP3    H248746   4.522   6.185   0.363  0.9638 -0.8269  1.2616
 9111TIP3   OH248747   1.678   3.661   5.212 -0.1942  0.1842 -0.2737
 9111TIP3    H148748   1.745   3.653   5.280 -1.0700 -0.3571  0.5591
 9111TIP3    H248749   1.664   3.755   5.203 -1.1799  0.2539  1.4669
 9112TIP3   OH248750   5.914   3.941  14.306  0.0040  0.1228 -0.0175
 9112TIP3    H148751   5.892   3.951  14.399 -1.2918  0.3696 -0.3423
 9112TIP3    H248752   5.911   4.030  14.271 -1.0435 -0.1428 -0.6227
 9113TIP3   OH248753   1.073   2.660  13.846 -0.2839  0.3862  0.2570
 9113TIP3    H148754   0.991   2.705  13.822 -0.5853  0.0711  0.6747
 9113TIP3    H248755   1.117   2.644  13.762 -0.5685  0.7151  0.0417
 9114TIP3   OH248756   3.891   6.735   5.002  0.1979 -0.5790 -0.0023
 9114TIP3    H148757   3.845   6.654   4.981 -0.8170 -0.0473  0.1344
 9114TIP3    H248758   3.886   6.741   5.098 -0.3255 -0.0188 -0.0594
 9115TIP3   OH248759   6.032   3.123  17.006 -0.4846  0.8490 -0.1911
 9115TIP3    H148760   6.029   3.070  17.086 -0.2779  0.8080 -0.2079
 9115TIP3    H248761   6.047   3.059  16.936 -2.6126  0.6586 -0.5136
 9116TIP3   OH248762   5.255   0.728  15.361 -1.1702 -0.1713  0.0554
 9116TIP3    H148763   5.246   0.779  15.280 -1.0859  0.7720  0.6178
 9116TIP3    H248764   5.298   0.788  15.422  1.6930 -1.8938 -0.1078
 9117TIP3   OH248765   5.267   4.280  16.529  0.3468 -0.0291  0.1908
 9117TIP3    H148766   5.266   4.292  16.434  0.9072  0.9407  0.2935
 9117TIP3    H248767   5.288   4.187  16.542  0.1751 -0.1860 -0.6290
 9118TIP3   OH248768   0.234   2.385   5.030 -0.4479 -0.1774 -0.4372
 9118TIP3    H148769   0.290   2.460   5.051 -0.0310 -1.1506  2.3918
 9118TIP3    H248770   0.293   2.310   5.032 -1.1931 -0.8014 -1.2912
 9119TIP3   OH248771   4.928   2.212   1.506  0.1760  0.1039  0.0702
 9119TIP3    H148772   4.967   2.125   1.502 -0.3272 -0.1463  0.4818
 9119TIP3    H248773   4.837   2.196   1.532 -0.1032  0.6999 -0.4981
 9120TIP3   OH248774   6.249   2.438  16.179 -0.1517  0.0969  0.9327
 9120TIP3    H148775   6.341   2.458  16.196 -0.2652  0.2822  1.3391
 9120TIP3    H248776   6.237   2.350  16.214 -0.2556  0.2728  1.3375
 9121TIP3   OH248777   5.351   1.398   2.304  0.9662  0.1071  0.4842
 9121TIP3    H148778   5.340   1.315   2.258 -1.4808  1.0939 -0.9636
 9121TIP3    H248779   5.358   1.374   2.396 -0.7514 -1.6891  0.2129
 9122TIP3   OH248780   6.147   2.151  15.801  0.0649 -0.2294  0.3421
 9122TIP3    H148781   6.134   2.152  15.706 -0.6744 -0.0678  0.4366
 9122TIP3    H248782   6.161   2.243  15.824 -0.6142 -0.1620  0.4965
 9123TIP3   OH248783   5.765   0.015  16.780 -0.3002  0.2920  0.1358
 9123TIP3    H148784   5.750   0.031  16.686  1.3353  0.0683 -0.1941
 9123TIP3    H248785   5.825   0.085  16.806  1.2701 -1.1066  0.3913
 9124TIP3   OH248786   3.716   5.126   2.551  0.1605  0.2175 -0.0065
 9124TIP3    H148787   3.675   5.086   2.628 -1.0069  0.4355 -0.4890
 9124TIP3    H248788   3.667   5.207   2.537  0.4611  0.2557 -0.8922
 9125TIP3   OH248789   3.405   3.548  13.690  0.4683 -0.5696 -0.0858
 9125TIP3    H148790   3.463   3.584  13.757 -0.4484  0.6539  0.0850
 9125TIP3    H248791   3.329   3.516  13.739  0.2346 -0.5813 -0.4540
 9126TIP3   OH248792   6.232   6.682  13.312  0.0303 -0.2248 -0.4875
 9126TIP3    H148793   6.244   6.733  13.232  2.2264 -0.8783 -0.6549
 9126TIP3    H248794   6.274   6.734  13.380  0.3836 -0.8032 -0.2574
 9127TIP3   OH248795   2.010   0.800  13.483 -0.5422  0.4762  0.0776
 9127TIP3    H148796   2.027   0.706  13.474 -0.6976  0.4292  0.2709
 9127TIP3    H248797   2.097   0.839  13.487 -0.4741  0.3694 -0.2931
 9128TIP3   OH248798   2.843   1.022   2.237 -0.2324  0.3127  0.0024
 9128TIP3    H148799   2.789   1.093   2.273 -0.5769 -0.0241  0.1563
 9128TIP3    H248800   2.852   0.960   2.310 -1.2286 -0.5467 -0.5751
 9129TIP3   OH248801   3.209   5.299  12.116  0.6003  0.2082 -0.0646
 9129TIP3    H148802   3.303   5.288  12.131  0.2571 -0.7133  1.5698
 9129TIP3    H248803   3.167   5.252  12.187 -1.1151  1.4115 -0.2140
 9130TIP3   OH248804   5.128   1.190   3.740 -0.1166 -0.1681 -0.0884
 9130TIP3    H148805   5.169   1.258   3.794  1.9686 -0.1071 -1.6380
 9130TIP3    H248806   5.179   1.111   3.758 -0.9026 -0.7211 -0.2323
 9131TIP3   OH248807   1.714   3.798   1.418  0.6532 -0.2150 -0.4877
 9131TIP3    H148808   1.809   3.798   1.433  0.8078 -1.0971 -1.3575
 9131TIP3    H248809   1.703   3.844   1.335  0.2717  0.3173 -0.1428
 9132TIP3   OH248810   5.536   5.652   2.480  0.4269  0.3795 -0.1255
 9132TIP3    H148811   5.620   5.605   2.475  0.1656 -0.0267 -0.8679
 9132TIP3    H248812   5.551   5.719   2.546  0.9108 -0.5372  0.7263
 9133TIP3   OH248813   3.298   0.237  16.851  0.0097 -0.3356 -0.6395
 9133TIP3    H148814   3.281   0.324  16.815 -0.5430  0.6786  1.9282
 9133TIP3    H248815   3.220   0.216  16.901  0.8292 -1.5951  0.1612
 9134TIP3   OH248816   0.467   6.597  13.828 -0.5379 -0.3608 -0.0534
 9134TIP3    H148817   0.452   6.641  13.912 -2.7677 -1.1860  0.0511
 9134TIP3    H248818   0.390   6.620  13.775 -0.6714 -2.2981 -0.7728
 9135TIP3   OH248819   6.127   6.412   2.508  0.3634 -0.3759 -0.2612
 9135TIP3    H148820   6.048   6.359   2.499  0.2211 -0.4873  1.3682
 9135TIP3    H248821   6.095   6.499   2.532  0.6621  0.1727 -1.7016
 9136TIP3   OH248822   1.970   4.963   5.476  0.2001 -0.7711 -0.4014
 9136TIP3    H148823   1.914   5.013   5.417 -0.3077  0.9672  1.4692
 9136TIP3    H248824   1.923   4.881   5.489 -2.3293  0.8499  1.5811
 9137TIP3   OH248825   5.131   4.375  12.587  0.2776  0.5427 -0.0299
 9137TIP3    H148826   5.058   4.314  12.583  0.4676  0.2747  0.4173
 9137TIP3    H248827   5.091   4.462  12.584 -0.0041  0.3956 -0.5325
 9138TIP3   OH248828   4.680   2.648   4.386 -0.2841 -0.2940  0.0925
 9138TIP3    H148829   4.598   2.693   4.369  0.3206  0.8755  0.1464
 9138TIP3    H248830   4.746   2.718   4.388  0.4758 -1.0026  1.6618
 9139TIP3   OH248831   1.947   3.663   3.648  0.1162 -0.1673  0.0220
 9139TIP3    H148832   2.007   3.653   3.722 -1.0623  1.1001  1.2087
 9139TIP3    H248833   2.003   3.683   3.574  1.1800  1.1463  1.1292
 9140TIP3   OH248834   5.684   0.753   2.042  0.0293 -0.1760  0.2233
 9140TIP3    H148835   5.653   0.768   1.953 -0.2136 -1.5497  0.0536
 9140TIP3    H248836   5.648   0.667   2.066  1.5710 -0.6631  0.9672
 9141TIP3   OH248837   3.109   2.189   2.353  0.0912 -0.3942 -0.0200
 9141TIP3    H148838   3.143   2.100   2.364  0.2604 -0.5553 -1.6872
 9141TIP3    H248839   3.014   2.178   2.351  0.1466 -0.7530 -1.7497
 9142TIP3   OH248840   3.663   0.815   1.167  0.6774 -0.3808  0.2116
 9142TIP3    H148841   3.691   0.809   1.258  0.7933 -0.2357  0.1843
 9142TIP3    H248842   3.639   0.906   1.155 -1.4283 -0.8244  0.7163
 9143TIP3   OH248843   6.771   1.960   0.071 -0.1349  0.3198 -0.1382
 9143TIP3    H148844   6.822   1.912   0.005 -0.3349  0.1001 -0.1321
 9143TIP3    H248845   6.706   2.009   0.020 -0.1578  0.3105 -0.1179
 9144TIP3   OH248846   6.426   1.802   6.144  0.1317  0.0816  0.6184
 9144TIP3    H148847   6.389   1.867   6.083  1.8958 -0.9530 -1.7006
 9144TIP3    H248848   6.475   1.855   6.207 -1.7568  1.1927  1.2519
 9145TIP3   OH248849   2.961   5.324  14.272  0.3150  0.0177 -0.3793
 9145TIP3    H148850   2.901   5.387  14.233 -0.2592  2.2145  3.6042
 9145TIP3    H248851   3.025   5.377  14.320  1.8813 -2.3956  0.3943
 9146TIP3   OH248852   3.424   6.582  13.609 -0.0914 -0.0613 -0.0447
 9146TIP3    H148853   3.460   6.524  13.542 -0.8959 -0.8184  0.1595
 9146TIP3    H248854   3.344   6.538  13.638 -0.1815  0.6589  0.8347
 9147TIP3   OH248855   0.433   3.018   0.953 -0.2374  0.3613 -0.1400
 9147TIP3    H148856   0.364   2.987   0.895 -1.0656  1.0159  0.4759
 9147TIP3    H248857   0.400   3.001   1.041  0.9451 -0.5027  0.1674
 9148TIP3   OH248858   3.342   5.980  16.794  0.5265  0.7434  0.2553
 9148TIP3    H148859   3.298   5.917  16.851  1.1182 -1.6997 -1.7974
 9148TIP3    H248860   3.402   6.027  16.851  2.0065 -2.4267  1.5227
 9149TIP3   OH248861   0.730   2.896   2.778 -0.2592  0.6786 -0.0421
 9149TIP3    H148862   0.667   2.923   2.845  1.5739  0.3157  1.9244
 9149TIP3    H248863   0.815   2.920   2.813  0.8114  0.3134 -2.2044
 9150TIP3   OH248864   4.690   2.239   4.040 -0.3691  0.2244  0.4285
 9150TIP3    H148865   4.640   2.294   3.979  0.2759  1.9828  1.4238
 9150TIP3    H248866   4.624   2.186   4.084 -1.2383  1.4627  0.6724
 9151TIP3   OH248867   5.894   2.036  15.581 -0.0274  0.0463 -0.1284
 9151TIP3    H148868   5.799   2.031  15.586 -0.1897  1.1241 -1.4167
 9151TIP3    H248869   5.925   1.952  15.615 -1.3330  0.4178  2.1044
 9152TIP3   OH248870   5.070   0.476   1.668  0.0149 -0.2270  0.3185
 9152TIP3    H148871   5.062   0.401   1.609  2.6211  1.4398 -2.4079
 9152TIP3    H248872   5.137   0.450   1.731 -2.0093 -1.5912  2.0899
 9153TIP3   OH248873   5.073   0.221  14.430 -0.0496 -0.2036 -0.2282
 9153TIP3    H148874   5.113   0.300  14.465  0.0784 -1.2629  2.1994
 9153TIP3    H248875   4.986   0.248  14.403 -0.2015  0.6751  1.0747
 9154TIP3   OH248876   6.443   6.289   0.487  0.1435  0.3221  0.2209
 9154TIP3    H148877   6.397   6.224   0.434  0.7706  0.0857 -0.0319
 9154TIP3    H248878   6.460   6.362   0.427  0.6606  0.1438  0.1468
 9155TIP3   OH248879   3.012   4.169  12.120  0.3474 -0.2812 -0.2245
 9155TIP3    H148880   3.068   4.199  12.049  0.5718 -1.3945 -0.5360
 9155TIP3    H248881   3.035   4.226  12.194 -0.7030  1.6504 -1.3039
 9156TIP3   OH248882   5.277   3.126  17.294  0.1585  0.0112 -0.4597
 9156TIP3    H148883   5.328   3.048  17.315  0.1736  0.4148  1.1695
 9156TIP3    H248884   5.339   3.187  17.255  1.0357  0.5607  1.6501
 9157TIP3   OH248885   2.032   3.822   4.644 -0.7735  0.2494  0.2975
 9157TIP3    H148886   2.035   3.798   4.736  0.2756 -1.0412 -0.0435
 9157TIP3    H248887   1.960   3.771   4.608 -0.6965  0.1753  0.2488
 9158TIP3   OH248888   2.168   0.144  17.218  0.1003  0.8923  0.0427
 9158TIP3    H148889   2.076   0.130  17.238  0.2656  0.1167  0.2905
 9158TIP3    H248890   2.171   0.150  17.123 -0.3720  2.2644  0.0865
 9159TIP3   OH248891   0.588   2.499  16.864  0.2752  0.0007  0.1141
 9159TIP3    H148892   0.504   2.464  16.895  0.3648 -0.5710 -0.2633
 9159TIP3    H248893   0.608   2.571  16.924 -0.8947  0.6918 -0.3018
 9160TIP3   OH248894   5.398   2.099   2.325 -0.5537  0.6235 -0.6656
 9160TIP3    H148895   5.489   2.113   2.298 -0.4773  2.5169  0.4144
 9160TIP3    H248896   5.367   2.027   2.269  0.5556  2.2078 -3.5338
 9161TIP3   OH248897   0.566   4.139  14.258 -0.4052 -0.0110  0.5842
 9161TIP3    H148898   0.611   4.211  14.214 -1.1194  0.5388  0.7454
 9161TIP3    H248899   0.625   4.115  14.330 -0.0199  0.1938  0.3388
 9162TIP3   OH248900   6.761   2.793   5.501 -0.1008  0.1625 -0.1675
 9162TIP3    H148901   6.701   2.867   5.495 -2.5187 -1.4291  2.0928
 9162TIP3    H248902   6.728   2.741   5.574  2.7577 -2.0542 -0.2586
 9163TIP3   OH248903   5.265   4.759  15.764 -0.2513 -0.2942 -0.4251
 9163TIP3    H148904   5.342   4.812  15.745  0.1046 -0.5542  0.2520
 9163TIP3    H248905   5.241   4.720  15.680  1.5452 -1.7622 -0.3252
 9164TIP3   OH248906   4.906   4.503   1.244  0.1651 -0.0772 -0.6918
 9164TIP3    H148907   4.938   4.579   1.196  1.3788 -1.8069 -2.8192
 9164TIP3    H248908   4.954   4.505   1.327  0.5855  1.1487 -0.9473
 9165TIP3   OH248909   6.028   2.207  13.464 -0.5161  0.5300 -0.1584
 9165TIP3    H148910   6.103   2.258  13.495  0.0586  0.8043 -1.9204
 9165TIP3    H248911   5.954   2.242  13.514  0.2549  1.3796  0.4269
 9166TIP3   OH248912   5.617   0.326  13.540  0.0809  0.2699  0.1445
 9166TIP3    H148913   5.581   0.370  13.616  0.1289 -0.6026  0.6923
 9166TIP3    H248914   5.697   0.373  13.520 -0.8670  1.6709 -0.5331
 9167TIP3   OH248915   0.852   1.006   5.309  0.8348  0.7819  0.0205
 9167TIP3    H148916   0.837   1.058   5.229 -0.9856  1.1139  0.5109
 9167TIP3    H248917   0.868   1.072   5.377 -1.7250  0.8184  0.6945
 9168TIP3   OH248918   3.831   2.996  14.337 -0.1406  0.9077  0.0722
 9168TIP3    H148919   3.753   3.016  14.285  0.0659  0.0340 -0.6043
 9168TIP3    H248920   3.904   3.008  14.275  0.1602  0.5011  0.3479
 9169TIP3   OH248921   2.299   6.212  14.252  0.5189  0.2707  0.2360
 9169TIP3    H148922   2.303   6.294  14.202 -1.0178 -0.1346 -0.6369
 9169TIP3    H248923   2.335   6.146  14.192  1.7706  0.2998  0.9429
 9170TIP3   OH248924   3.297   4.056   5.525 -0.5098 -0.1250 -0.0016
 9170TIP3    H148925   3.214   4.067   5.480  0.2672 -0.4350 -1.5560
 9170TIP3    H248926   3.272   4.027   5.614 -2.0522  0.2196 -0.2909
 9171TIP3   OH248927   2.620   3.736   0.284  0.3623  0.0336 -0.2469
 9171TIP3    H148928   2.611   3.811   0.342 -0.8884 -1.3483  1.4702
 9171TIP3    H248929   2.713   3.715   0.285  0.6652  1.2907 -0.4539
 9172TIP3   OH248930   1.750   6.135  15.921 -0.4735  0.0290 -0.4168
 9172TIP3    H148931   1.774   6.225  15.945 -1.2905  0.1779 -0.1247
 9172TIP3    H248932   1.819   6.108  15.861  0.5058  0.3808  0.5035
 9173TIP3   OH248933   6.044   1.759   6.022 -0.2276 -0.3409  0.2091
 9173TIP3    H148934   6.068   1.838   6.070  1.5875 -0.3908 -0.5337
 9173TIP3    H248935   6.020   1.790   5.935  0.5429 -0.5956 -0.1001
 9174TIP3   OH248936   0.362   4.934  12.946 -0.0585  0.5128 -0.5006
 9174TIP3    H148937   0.319   4.930  12.860 -0.9359 -0.2771 -0.0401
 9174TIP3    H248938   0.356   5.026  12.972 -1.3724  0.4472 -0.5136
 9175TIP3   OH248939   5.137   0.381  15.710 -0.0572 -0.4131  0.0853
 9175TIP3    H148940   5.049   0.402  15.743 -0.4920 -0.5489 -0.9368
 9175TIP3    H248941   5.159   0.456  15.655  1.3984  0.6527  2.0036
 9176TIP3   OH248942   3.748   1.877  13.506 -0.2437 -0.0268  0.5085
 9176TIP3    H148943   3.724   1.966  13.479  0.0694 -0.0745  0.0487
 9176TIP3    H248944   3.827   1.858  13.455 -1.7915 -1.5691 -1.5101
 9177TIP3   OH248945   2.302   6.314   0.574 -0.0132 -0.0557  0.1850
 9177TIP3    H148946   2.255   6.386   0.616 -0.4905 -0.4905  0.4046
 9177TIP3    H248947   2.284   6.325   0.480  2.1721  1.7300 -0.1251
 9178TIP3   OH248948   6.380   4.042   0.630  0.2053 -0.6273  0.1398
 9178TIP3    H148949   6.461   4.093   0.618  0.2773 -0.9691 -0.9026
 9178TIP3    H248950   6.367   3.997   0.546 -1.0702 -0.5795  0.2928
 9179TIP3   OH248951   1.231   3.496  13.565 -0.0691  0.5142  0.3921
 9179TIP3    H148952   1.265   3.567  13.512  0.5260  0.1170  0.2310
 9179TIP3    H248953   1.137   3.512  13.569  0.0000  1.0537 -0.0194
 9180TIP3   OH248954   5.675   1.252  16.176  0.6365 -0.0233 -0.2432
 9180TIP3    H148955   5.745   1.201  16.216  0.1528 -0.6190 -0.1424
 9180TIP3    H248956   5.634   1.192  16.114 -1.2445 -0.4506  1.3369
 9181TIP3   OH248957   3.112   3.173  12.010  0.1025 -0.3012  0.4677
 9181TIP3    H148958   3.029   3.160  11.965  1.5800 -1.1342 -2.2727
 9181TIP3    H248959   3.148   3.085  12.020  1.8266  0.1491 -0.9964
 9182TIP3   OH248960   6.052   4.038  11.462 -0.0407  0.6013 -0.0684
 9182TIP3    H148961   6.062   3.966  11.400 -2.3884 -0.5205  0.7229
 9182TIP3    H248962   6.095   4.112  11.420 -0.7408 -0.3378 -2.6230
 9183TIP3   OH248963   1.325   4.118   2.075  0.2423  0.3600  0.1982
 9183TIP3    H148964   1.255   4.158   2.024  0.0098 -0.6948 -0.3413
 9183TIP3    H248965   1.368   4.058   2.015  0.2769 -0.5448  1.0874
 9184TIP3   OH248966   3.103   1.621   0.927 -0.2910  0.8181 -0.4830
 9184TIP3    H148967   3.009   1.613   0.941 -0.3021 -0.5226 -1.1079
 9184TIP3    H248968   3.130   1.534   0.898  0.9085  1.5226 -1.5925
 9185TIP3   OH248969   4.978   5.931  15.490 -0.0951 -0.1427  0.2605
 9185TIP3    H148970   4.935   5.925  15.405 -0.1198  0.6462  0.2091
 9185TIP3    H248971   5.033   6.009  15.484  1.4370 -1.1808  0.2993
 9186TIP3   OH248972   1.531   5.403   4.049 -0.1817  0.1728 -0.2678
 9186TIP3    H148973   1.476   5.397   4.128 -1.2139  0.6647 -0.9252
 9186TIP3    H248974   1.551   5.312   4.028 -1.1845 -0.0571 -0.2952
 9187TIP3   OH248975   1.753   0.194  14.842  0.4408  0.0801 -0.1840
 9187TIP3    H148976   1.813   0.151  14.781 -0.5362 -0.9161 -0.4680
 9187TIP3    H248977   1.695   0.125  14.871 -1.5210  1.2709 -1.0528
 9188TIP3   OH248978   3.684   6.541  17.143  0.1367  0.2225  0.2477
 9188TIP3    H148979   3.680   6.628  17.181 -1.0727 -0.4438  1.7623
 9188TIP3    H248980   3.602   6.531  17.096 -0.6974 -0.8078  1.8278
 9189TIP3   OH248981   3.812   6.047   6.197  0.1669 -0.1212 -0.0229
 9189TIP3    H148982   3.881   6.041   6.264  1.8793 -1.8913 -1.8088
 9189TIP3    H248983   3.843   6.116   6.138  0.4330 -0.8815 -0.7965
 9190TIP3   OH248984   0.690   2.533  15.001 -0.6020  0.0066  0.4332
 9190TIP3    H148985   0.714   2.491  14.919  0.7734  0.4164  0.6015
 9190TIP3    H248986   0.621   2.595  14.977  0.8559  1.2630 -0.7442
 9191TIP3   OH248987   4.860   0.706  11.261  0.7222 -0.3163 -0.6401
 9191TIP3    H148988   4.921   0.779  11.251  0.3723 -0.0497 -0.8250
 9191TIP3    H248989   4.784   0.743  11.304  1.5386 -1.1133  1.6381
 9192TIP3   OH248990   2.180   2.189   0.684 -0.3283 -0.0942  0.0434
 9192TIP3    H148991   2.272   2.172   0.703 -0.5412  0.2536  1.5480
 9192TIP3    H248992   2.170   2.284   0.696 -0.8864 -0.1400 -0.0409
 9193TIP3   OH248993   3.499   0.193   5.641  0.1197 -0.4155 -0.0200
 9193TIP3    H148994   3.526   0.254   5.709  1.9939 -2.2333  0.9664
 9193TIP3    H248995   3.407   0.174   5.661  0.0831  0.5509  0.8077
 9194TIP3   OH248996   6.416   1.678  13.708 -0.2811 -0.0470 -0.2378
 9194TIP3    H148997   6.446   1.743  13.772 -1.6102  0.5282 -0.1609
 9194TIP3    H248998   6.412   1.596  13.756 -0.6450  0.2568  0.2600
 9195TIP3   OH248999   1.305   1.661  15.105 -0.5417 -0.0892  1.0876
 9195TIP3    H149000   1.235   1.606  15.141 -3.0489  2.0647 -0.1320
 9195TIP3    H249001   1.261   1.743  15.082  1.9897  0.6223 -1.7810
 9196TIP3   OH249002   0.773   1.204   4.410  0.1810 -0.0152 -0.2322
 9196TIP3    H149003   0.691   1.218   4.364 -1.3945 -0.1812  2.3417
 9196TIP3    H249004   0.786   1.283   4.462  0.5746 -0.7915  0.9087
 9197TIP3   OH249005   0.850   1.547   2.422  0.3772 -0.1625 -0.1497
 9197TIP3    H149006   0.812   1.576   2.506  1.6923  0.2263  0.3439
 9197TIP3    H249007   0.861   1.628   2.372 -0.8635 -0.4495 -0.9158
 9198TIP3   OH249008   3.641   0.688  15.287 -0.1959 -0.4419 -0.2894
 9198TIP3    H149009   3.609   0.763  15.336 -1.8069 -0.7759 -0.7954
 9198TIP3    H249010   3.597   0.612  15.326 -0.5399 -0.8454 -1.4362
 9199TIP3   OH249011   6.051   3.862  16.418  0.3608 -0.5264  0.0492
 9199TIP3    H149012   6.077   3.934  16.360 -1.9190  0.7398  0.4545
 9199TIP3    H249013   6.068   3.895  16.507 -1.6379  0.0083  0.2837
 9200TIP3   OH249014   0.258   3.968   0.440 -0.8335  0.0502 -0.1063
 9200TIP3    H149015   0.269   3.937   0.530 -1.0657  1.4958  0.4495
 9200TIP3    H249016   0.288   3.896   0.386 -1.7294 -1.2844  1.0968
 9201TIP3   OH249017   4.475   3.082  12.945 -0.2172 -0.2660 -0.6830
 9201TIP3    H149018   4.502   3.024  12.874 -1.5813  0.1939 -1.6058
 9201TIP3    H249019   4.437   3.023  13.011  1.2826 -0.7201 -0.1717
 9202TIP3   OH249020   2.709   3.064  13.030 -0.3627 -0.1803  0.0841
 9202TIP3    H149021   2.702   2.987  12.974  1.6266 -0.4078  0.0760
 9202TIP3    H249022   2.705   3.029  13.119 -1.3759 -0.0586  0.0947
 9203TIP3   OH249023   5.541   4.785   5.204  0.3634  0.5745 -0.5533
 9203TIP3    H149024   5.513   4.710   5.257  2.7380 -0.5846 -0.7747
 9203TIP3    H249025   5.464   4.808   5.152 -0.2229 -2.3652 -1.1720
 9204TIP3   OH249026   0.393   2.299   2.602  0.2085  0.0922 -0.3181
 9204TIP3    H149027   0.400   2.329   2.512  0.3233  0.1617 -0.2854
 9204TIP3    H249028   0.454   2.353   2.651  0.1737  0.0299 -0.2038
 9205TIP3   OH249029   1.437   5.560  16.896 -0.6100 -0.6639  0.4401
 9205TIP3    H149030   1.518   5.606  16.874 -1.7052  0.5855 -1.0966
 9205TIP3    H249031   1.425   5.578  16.990 -0.1680  0.8207  0.2338
 9206TIP3   OH249032   3.881   5.050  16.056 -0.2853 -0.6871  0.4861
 9206TIP3    H149033   3.844   4.969  16.021  1.3428 -0.7051 -1.3529
 9206TIP3    H249034   3.965   5.024  16.093  0.6928  0.2524 -0.9728
 9207TIP3   OH249035   0.373   5.088   4.336 -0.0176 -0.6948  0.7468
 9207TIP3    H149036   0.297   5.043   4.373  0.7049 -1.3626  1.4726
 9207TIP3    H249037   0.353   5.097   4.243 -2.0097  1.2675  1.2947
 9208TIP3   OH249038   1.359   3.628  16.932  0.3529 -0.6426 -0.0528
 9208TIP3    H149039   1.304   3.564  16.886  0.9298 -0.8663 -0.4507
 9208TIP3    H249040   1.306   3.707  16.935  0.4496 -0.4906 -1.4844
 9209TIP3   OH249041   1.172   6.149  10.120  0.0195 -0.3930  0.6002
 9209TIP3    H149042   1.096   6.093  10.103  1.2874 -1.6230 -1.5061
 9209TIP3    H249043   1.215   6.107  10.195 -1.3320  0.3268  1.8229
 9210TIP3   OH249044   3.152   1.468  12.462  0.0457  0.3716 -0.7481
 9210TIP3    H149045   3.226   1.435  12.514  0.3604 -0.6662 -1.8014
 9210TIP3    H249046   3.144   1.406  12.390 -1.8525  0.4806 -0.6848
 9211TIP3   OH249047   4.413   2.963   3.551  0.7055  0.2633  0.7275
 9211TIP3    H149048   4.326   2.965   3.511  1.2341 -0.3159 -0.5078
 9211TIP3    H249049   4.420   2.876   3.591  0.2622  0.7619  1.9442
 9212TIP3   OH249050   6.547   0.592   5.843 -0.2977  0.7571 -0.5918
 9212TIP3    H149051   6.512   0.680   5.827  0.8264  1.5341  0.9256
 9212TIP3    H249052   6.557   0.588   5.938  0.3921 -0.7457 -0.7076
 9213TIP3   OH249053   5.035   1.087  16.341 -0.4211 -0.4841 -0.4378
 9213TIP3    H149054   5.114   1.097  16.288 -0.0898 -3.0039 -0.5613
 9213TIP3    H249055   4.963   1.104  16.280 -0.0033 -0.4404 -0.9273
 9214TIP3   OH249056   2.417   1.123   4.960  0.3212 -0.4121 -0.2373
 9214TIP3    H149057   2.434   1.204   5.009  1.8131 -0.2693 -0.9102
 9214TIP3    H249058   2.402   1.152   4.870  2.0452 -0.8935 -0.7368
 9215TIP3   OH249059   4.286   5.612  12.882 -0.4438 -0.1468  0.2597
 9215TIP3    H149060   4.209   5.663  12.857 -1.1798 -1.4990 -0.3650
 9215TIP3    H249061   4.252   5.546  12.943  0.4708  0.0272  0.9936
 9216TIP3   OH249062   0.673   0.699  11.355 -0.1517  0.0748  0.0496
 9216TIP3    H149063   0.752   0.738  11.317 -1.9263  2.7307 -1.2098
 9216TIP3    H249064   0.693   0.690  11.448  2.2202 -1.0235 -0.4972
 9217TIP3   OH249065   1.949   4.236   4.401  0.2490 -0.3440 -0.0414
 9217TIP3    H149066   1.887   4.300   4.436  0.3983 -1.0959  1.6955
 9217TIP3    H249067   1.916   4.217   4.313 -0.4649  1.2160 -0.1478
 9218TIP3   OH249068   2.465   5.282   3.045  0.2575 -0.1600  0.4448
 9218TIP3    H149069   2.502   5.370   3.037 -0.1491 -0.1250 -1.2789
 9218TIP3    H249070   2.538   5.223   3.025 -0.0027 -0.1515 -0.5531
 9219TIP3   OH249071   1.200   6.350  10.961 -0.1958 -0.0050 -0.7206
 9219TIP3    H149072   1.266   6.292  10.999  1.0538 -0.1166 -2.9092
 9219TIP3    H249073   1.129   6.351  11.025  1.2848 -1.0712  1.0263
 9220TIP3   OH249074   2.637   2.253  11.641 -0.2481  0.4284 -0.8846
 9220TIP3    H149075   2.588   2.172  11.628 -0.5133  0.2984  0.7224
 9220TIP3    H249076   2.700   2.232  11.711  1.5377  0.8335 -2.3007
 9221TIP3   OH249077   3.349   4.650   1.017 -0.5832 -0.0368  0.6298
 9221TIP3    H149078   3.337   4.561   0.985  0.9813 -0.4099  0.9998
 9221TIP3    H249079   3.376   4.699   0.939  2.5792 -0.8043  1.1409
 9222TIP3   OH249080   1.535   4.931   4.448 -0.4852 -0.1247 -0.3099
 9222TIP3    H149081   1.528   4.930   4.544 -0.9533  1.3453 -0.3049
 9222TIP3    H249082   1.629   4.936   4.431 -0.3637 -1.0796  0.0521
 9223TIP3   OH249083   1.528   1.563  12.605  0.6179 -0.0861 -0.2060
 9223TIP3    H149084   1.444   1.520  12.595  0.4653 -0.0651  0.8604
 9223TIP3    H249085   1.508   1.657  12.598  0.0640  0.1163  2.6119
 9224TIP3   OH249086   4.010   2.794   1.227  0.2790  0.2597  0.4781
 9224TIP3    H149087   4.095   2.805   1.184 -0.3822 -0.6222 -1.1907
 9224TIP3    H249088   4.024   2.723   1.290  0.9369  0.5515  0.6590
 9225TIP3   OH249089   2.466   5.488   0.927 -0.7214  0.3029 -0.1030
 9225TIP3    H149090   2.477   5.461   0.836  0.5698  0.7785 -0.1070
 9225TIP3    H249091   2.518   5.567   0.935 -0.8360  0.2797  1.0471
 9226TIP3   OH249092   1.175   5.227   4.914 -0.3160 -0.5864  0.1100
 9226TIP3    H149093   1.099   5.248   4.860  0.1562 -0.9353 -0.7219
 9226TIP3    H249094   1.199   5.309   4.956 -1.2692 -0.5214  0.5343
 9227TIP3   OH249095   1.688   3.062  15.066  0.0843  0.5838 -0.1878
 9227TIP3    H149096   1.690   3.104  14.980 -2.3417 -0.2440 -0.7285
 9227TIP3    H249097   1.733   2.979  15.053 -0.5185  0.3383 -0.7511
 9228TIP3   OH249098   1.576   2.470   4.511 -0.0512  0.5269  0.2526
 9228TIP3    H149099   1.506   2.429   4.460 -0.2367  2.5525 -1.2482
 9228TIP3    H249100   1.539   2.482   4.598 -0.3213 -1.5076  0.4548
 9229TIP3   OH249101   6.228   1.843   6.683 -0.4047  0.4682  0.2289
 9229TIP3    H149102   6.185   1.808   6.761  0.1900  0.1178  0.4083
 9229TIP3    H249103   6.221   1.773   6.618  1.6654 -0.4381  0.9003
 9230TIP3   OH249104   2.693   0.696  12.988  0.1965  0.1201  0.9844
 9230TIP3    H149105   2.782   0.666  12.971  0.6606  2.0119 -0.2125
 9230TIP3    H249106   2.638   0.632  12.942  1.1332  0.7928 -1.1922
 9231TIP3   OH249107   3.460   0.929  11.022  0.0088  0.0310 -0.4519
 9231TIP3    H149108   3.383   0.899  10.974 -1.4721  1.9205  0.5635
 9231TIP3    H249109   3.498   0.850  11.060 -0.5834 -1.1143 -2.1208
 9232TIP3   OH249110   2.182   6.481  11.931 -0.1189  0.0238  0.5032
 9232TIP3    H149111   2.132   6.560  11.908  2.7246  1.8623  0.0649
 9232TIP3    H249112   2.243   6.511  11.999  0.7256 -1.9311  0.6617
 9233TIP3   OH249113   4.512   4.890  11.852  0.7732 -0.2537  0.3565
 9233TIP3    H149114   4.533   4.854  11.766  2.0627 -1.3626  1.1076
 9233TIP3    H249115   4.461   4.969  11.833  0.1732 -1.0192 -1.3876
 9234TIP3   OH249116   1.402   5.241  12.395  0.0995 -0.3951 -0.4393
 9234TIP3    H149117   1.335   5.304  12.371  0.6210  1.0601  1.7004
 9234TIP3    H249118   1.476   5.294  12.425  0.7751 -2.0026  0.9053
 9235TIP3   OH249119   0.081   4.713   5.803  0.1036  0.3938 -0.4333
 9235TIP3    H149120   0.142   4.762   5.748  1.5664 -0.2972  0.5099
 9235TIP3    H249121   0.104   4.737   5.893 -0.7538 -0.1852 -0.0431
 9236TIP3   OH249122   5.463   1.703   0.750 -0.0696 -0.1017  0.1789
 9236TIP3    H149123   5.372   1.731   0.737 -0.6284 -1.8332  0.0737
 9236TIP3    H249124   5.476   1.704   0.845 -0.0831  0.4535  0.1782
 9237TIP3   OH249125   6.389   0.975   4.625 -0.3624  0.1596 -0.5996
 9237TIP3    H149126   6.410   0.903   4.684  0.6625  0.5609 -0.4486
 9237TIP3    H249127   6.409   1.054   4.676  0.7375  0.5110 -1.5277
 9238TIP3   OH249128   4.319   5.556   3.562 -0.0317  0.1020  0.5333
 9238TIP3    H149129   4.280   5.469   3.574 -0.8188  0.2939 -0.5458
 9238TIP3    H249130   4.413   5.539   3.560 -0.1689 -0.7006  0.5560
 9239TIP3   OH249131   4.614   1.377   5.440 -0.5360  0.0609 -0.1618
 9239TIP3    H149132   4.638   1.386   5.533 -2.1574 -0.3219  0.3345
 9239TIP3    H249133   4.575   1.462   5.418  2.9962  1.4976 -1.5872
 9240TIP3   OH249134   4.972   4.074  14.006 -0.0957  0.4297 -0.4698
 9240TIP3    H149135   5.056   4.079  13.960  0.4888 -0.4596  0.4721
 9240TIP3    H249136   4.995   4.070  14.099 -1.2293  1.2781 -0.1225
 9241TIP3   OH249137   4.017   3.010   2.014  0.0817 -0.2286  0.3509
 9241TIP3    H149138   4.038   3.075   2.081  1.3090 -3.2642  3.2074
 9241TIP3    H249139   3.945   2.960   2.051 -1.0875 -0.3804 -1.9303
 9242TIP3   OH249140   0.648   2.547   4.664 -0.2903 -0.0944  0.2028
 9242TIP3    H149141   0.575   2.577   4.717 -0.9919 -0.5116 -0.5086
 9242TIP3    H249142   0.645   2.452   4.671 -0.5987 -0.1760 -0.8345
 9243TIP3   OH249143   5.050   5.431   2.253  0.1837  0.3476  0.1476
 9243TIP3    H149144   5.083   5.501   2.197  0.6198  1.9074  2.1923
 9243TIP3    H249145   5.026   5.360   2.193 -0.5062  2.3200 -2.0589
 9244TIP3   OH249146   1.891   3.056  15.283  0.2387 -0.1885 -0.1355
 9244TIP3    H149147   1.800   3.056  15.253  0.0014  2.0213  0.3625
 9244TIP3    H249148   1.893   3.121  15.354  2.0354 -0.8349  0.4873
 9245TIP3   OH249149   0.158   1.557   2.511  0.3463 -0.1420  0.1100
 9245TIP3    H149150   0.225   1.625   2.503 -0.3188  0.6995  1.3834
 9245TIP3    H249151   0.151   1.541   2.605 -2.9850  1.6562  0.3420
 9246TIP3   OH249152   1.100   2.906  15.657  0.1158 -0.1402  0.0798
 9246TIP3    H149153   1.171   2.882  15.596 -0.6256 -0.3620 -0.7134
 9246TIP3    H249154   1.090   2.829  15.713  0.4903 -0.1147  0.1853
 9247TIP3   OH249155   5.933   1.861  15.893  0.6213 -0.1491  0.6312
 9247TIP3    H149156   5.997   1.921  15.933  0.2788  0.2841  0.5374
 9247TIP3    H249157   5.971   1.839  15.808  0.3379  0.6418  0.2907
 9248TIP3   OH249158   1.471   4.059   3.242  0.1374 -0.3292 -0.5113
 9248TIP3    H149159   1.418   3.980   3.251  0.6514 -0.4597  2.0507
 9248TIP3    H249160   1.409   4.131   3.257  0.4752 -0.4662  1.9467
 9249TIP3   OH249161   0.840   3.790  11.116  0.2244 -0.3107 -0.2245
 9249TIP3    H149162   0.757   3.758  11.151 -0.8023  1.9182 -0.5084
 9249TIP3    H249163   0.897   3.797  11.193 -0.8299  0.9828  0.4748
 9250TIP3   OH249164   3.283   1.985  13.061 -0.3976 -0.5566  0.5546
 9250TIP3    H149165   3.238   1.964  12.979  1.0342 -1.5748 -0.0044
 9250TIP3    H249166   3.357   2.039  13.036 -0.5111 -0.0232  1.3145
 9251TIP3   OH249167   6.224   4.182  14.632 -0.1213 -0.9518  0.2100
 9251TIP3    H149168   6.242   4.215  14.544 -0.0162 -1.7032 -0.0519
 9251TIP3    H249169   6.158   4.242  14.667 -0.5283 -0.9389 -0.5643
 9252TIP3   OH249170   5.778   0.539  11.982 -0.3627 -0.1072  0.2753
 9252TIP3    H149171   5.868   0.568  11.999 -0.8352  0.7793  1.3682
 9252TIP3    H249172   5.726   0.581  12.050 -1.6087 -0.6485 -0.3146
 9253TIP3   OH249173   5.028   6.245  10.830 -0.4914  0.0478 -0.0873
 9253TIP3    H149174   5.059   6.335  10.844  2.1562 -0.8238  0.0977
 9253TIP3    H249175   5.001   6.215  10.917  0.1068  0.1663  0.1447
 9254TIP3   OH249176   5.269   5.905   0.748  0.1754 -0.1090  0.3075
 9254TIP3    H149177   5.354   5.888   0.707  0.2003 -0.1626  0.3808
 9254TIP3    H249178   5.211   5.927   0.675  0.1069 -0.6589  0.1875
 9255TIP3   OH249179   1.940   5.647  12.885 -0.7220 -0.1566  0.8669
 9255TIP3    H149180   1.949   5.675  12.976  2.6635 -1.3424  1.0257
 9255TIP3    H249181   1.994   5.707  12.835  0.8861 -1.9563  0.2956
 9256TIP3   OH249182   5.756   0.848   6.102  0.5253 -0.4959  0.0073
 9256TIP3    H149183   5.716   0.816   6.183 -1.3317  0.9664 -0.2575
 9256TIP3    H249184   5.835   0.894   6.131  0.0836 -0.3009  0.9740
 9257TIP3   OH249185   0.874   0.439  12.051 -0.3310 -0.1366 -0.0191
 9257TIP3    H149186   0.919   0.508  12.001 -2.0625  0.8454 -0.3156
 9257TIP3    H249187   0.842   0.378  11.984 -1.7207  0.6110 -0.0817
 9258TIP3   OH249188   5.913   0.559  15.820  0.1746  0.1651  0.1274
 9258TIP3    H149189   5.915   0.608  15.738  1.7599  0.7865  0.4931
 9258TIP3    H249190   5.871   0.618  15.883 -0.1758  0.0696 -0.0195
 9259TIP3   OH249191   3.021   0.744   6.026 -0.1069 -0.4880 -0.5934
 9259TIP3    H149192   3.104   0.787   6.006  0.0001  0.1616  1.0904
 9259TIP3    H249193   3.042   0.685   6.099 -0.8709 -1.2593 -0.9784
 9260TIP3   OH249194   5.289   4.835  15.476  0.0621 -0.8059 -0.0130
 9260TIP3    H149195   5.206   4.881  15.468  1.2349  1.3974 -0.4181
 9260TIP3    H249196   5.331   4.846  15.390  1.6738  0.0554  0.8404
 9261TIP3   OH249197   1.052   3.560   1.230 -0.1689  0.4651  0.3161
 9261TIP3    H149198   1.128   3.508   1.256  0.8178  0.1350 -2.7852
 9261TIP3    H249199   1.061   3.642   1.279  1.4350 -0.1151  1.0600
 9262TIP3   OH249200   3.968   1.289   5.615 -0.3612  0.1644  0.3630
 9262TIP3    H149201   3.992   1.229   5.544 -3.4223 -0.7867 -0.0592
 9262TIP3    H249202   4.018   1.369   5.598  1.2113 -1.0626 -1.1032
 9263TIP3   OH249203   1.280   2.318   5.617  0.0597 -0.1531 -0.0150
 9263TIP3    H149204   1.213   2.272   5.668  1.3399 -0.1988  1.7181
 9263TIP3    H249205   1.287   2.267   5.536 -1.2614 -0.7221  0.1925
 9264TIP3   OH249206   2.928   4.103  16.734  0.3578  0.5035  0.5268
 9264TIP3    H149207   2.964   4.113  16.646  2.3233  0.8230  1.3175
 9264TIP3    H249208   2.833   4.102  16.721  0.5457  2.2075 -1.4253
 9265TIP3   OH249209   0.366   1.557  13.258  0.1521 -0.1075 -0.3769
 9265TIP3    H149210   0.344   1.524  13.171 -1.0948 -0.7575  0.1578
 9265TIP3    H249211   0.454   1.524  13.275 -0.4503 -1.8840 -0.4995
 9266TIP3   OH249212   3.650   4.165   2.827 -0.2574 -0.1360  0.5272
 9266TIP3    H149213   3.605   4.193   2.748 -2.3026 -0.7012  1.4428
 9266TIP3    H249214   3.599   4.092   2.861  1.5163 -1.0165  1.4930
 9267TIP3   OH249215   6.521   5.038  12.322  0.6528 -0.0230 -0.0376
 9267TIP3    H149216   6.540   4.952  12.360 -1.2670 -0.5240 -0.1021
 9267TIP3    H249217   6.438   5.026  12.277 -0.7610  2.3611  1.7052
 9268TIP3   OH249218   6.320   2.284   2.922 -0.7829 -0.4255  0.5931
 9268TIP3    H149219   6.304   2.364   2.871  0.2868 -1.1873 -1.0256
 9268TIP3    H249220   6.233   2.246   2.935 -1.0228 -1.0810 -2.2509
 9269TIP3   OH249221   3.977   4.547  13.657  0.2684  0.2626  0.3367
 9269TIP3    H149222   4.010   4.483  13.720 -1.5658  0.7077  1.8248
 9269TIP3    H249223   3.914   4.499  13.604 -0.0741  0.4995  0.5281
 9270TIP3   OH249224   0.244   1.304   1.868  0.4770  0.1323  0.3893
 9270TIP3    H149225   0.289   1.317   1.785 -3.8807 -0.1989 -2.3878
 9270TIP3    H249226   0.221   1.392   1.897  0.5645  0.1774  0.3218
 9271TIP3   OH249227   6.392   0.846   1.543 -0.7074 -0.1391 -0.5570
 9271TIP3    H149228   6.436   0.890   1.471 -2.1503 -0.2094 -1.5277
 9271TIP3    H249229   6.335   0.912   1.581 -2.1131 -0.8130 -1.3692
 9272TIP3   OH249230   3.872   1.913  14.785  0.1862 -0.4496 -0.7377
 9272TIP3    H149231   3.945   1.870  14.829  0.6770 -0.3263 -1.4191
 9272TIP3    H249232   3.834   1.970  14.853 -0.4452 -1.8920  0.1611
 9273TIP3   OH249233   3.636   0.585   1.485 -0.0969 -0.9280 -0.1013
 9273TIP3    H149234   3.655   0.671   1.446 -2.1576  0.2175  1.2563
 9273TIP3    H249235   3.704   0.528   1.450  2.0703  1.4990 -0.1614
 9274TIP3   OH249236   2.970   3.039   4.565 -0.3464 -0.6557 -0.0377
 9274TIP3    H149237   3.046   3.096   4.553  0.2858 -1.4586  0.0785
 9274TIP3    H249238   2.985   2.996   4.649 -0.8586 -0.9450 -0.0882
 9275TIP3   OH249239   4.778   3.773   2.915  0.2978 -0.4446 -0.6214
 9275TIP3    H149240   4.871   3.776   2.937  0.2992  0.7746 -0.7567
 9275TIP3    H249241   4.733   3.784   2.999  0.2618 -0.7714 -0.5931
 9276TIP3   OH249242   0.148   0.820   3.551  0.6386  0.4196  0.4817
 9276TIP3    H149243   0.216   0.759   3.580  0.3560  0.0934  0.4641
 9276TIP3    H249244   0.193   0.905   3.545  1.1826  0.1033 -0.0729
 9277TIP3   OH249245   3.018   5.629   4.127 -0.1284  0.0654  0.7395
 9277TIP3    H149246   3.111   5.622   4.147 -0.2281 -0.3724  1.0720
 9277TIP3    H249247   2.987   5.538   4.125 -0.2554  0.1134 -0.7904
 9278TIP3   OH249248   1.028   1.362  16.777  0.6250  0.3841 -0.5375
 9278TIP3    H149249   1.036   1.380  16.871  1.1961 -0.1234 -0.4807
 9278TIP3    H249250   1.118   1.366  16.745  0.5954 -0.7968 -0.8003
 9279TIP3   OH249251   5.918   0.243  11.552  0.0573 -0.3631  0.0435
 9279TIP3    H149252   5.956   0.168  11.597 -0.3717 -0.3594  0.4194
 9279TIP3    H249253   5.993   0.291  11.517  0.2913 -1.6735 -1.3691
 9280TIP3   OH249254   1.900   0.450  16.379 -0.3945  0.3212 -0.4224
 9280TIP3    H149255   1.921   0.534  16.340 -1.8815  1.6459  1.4794
 9280TIP3    H249256   1.888   0.391  16.305  1.3196  1.5722 -1.7791
 9281TIP3   OH249257   5.746   6.496   2.468 -0.0327 -0.0508  0.4809
 9281TIP3    H149258   5.666   6.488   2.521 -0.5821  0.9043 -0.1867
 9281TIP3    H249259   5.815   6.462   2.525 -0.8289 -0.4030  1.2666
 9282TIP3   OH249260   1.461   4.229   1.724 -0.2209 -0.0685 -0.2646
 9282TIP3    H149261   1.476   4.177   1.803 -0.5201 -2.0833 -1.4853
 9282TIP3    H249262   1.546   4.229   1.679 -0.3339  0.1746 -0.4817
 9283TIP3   OH249263   1.427   3.674  14.622 -0.1668  0.1100  0.0685
 9283TIP3    H149264   1.352   3.701  14.675  0.2709  0.8266  0.3254
 9283TIP3    H249265   1.412   3.581  14.606 -1.6482  0.4574 -0.7416
 9284TIP3   OH249266   3.668   5.525   1.960 -0.2770  0.0609 -0.1502
 9284TIP3    H149267   3.657   5.620   1.964  1.7435  0.3625 -0.9497
 9284TIP3    H249268   3.722   5.505   2.036  1.0195 -0.1422 -1.0978
 9285TIP3   OH249269   4.146   2.476  11.061  0.1568 -0.1591 -0.2931
 9285TIP3    H149270   4.145   2.571  11.075  1.8951 -0.2422  0.5732
 9285TIP3    H249271   4.056   2.449  11.079 -0.3699  1.3165 -0.5596
 9286TIP3   OH249272   4.040   1.999   2.948  0.2170  0.0699 -0.5646
 9286TIP3    H149273   3.951   2.011   2.914 -0.8464 -0.8232  1.6660
 9286TIP3    H249274   4.066   2.087   2.977 -0.9689 -0.0264  0.9458
 9287TIP3   OH249275   2.741   5.639   3.390 -0.2636  0.1077 -0.0262
 9287TIP3    H149276   2.746   5.700   3.316 -0.0070 -1.4823 -1.3626
 9287TIP3    H249277   2.812   5.577   3.375 -0.3585 -0.3958  1.4545
 9288TIP3   OH249278   6.531   1.367  10.918  0.6905 -0.0098  0.3030
 9288TIP3    H149279   6.500   1.293  10.970  0.9886  0.1871  0.7577
 9288TIP3    H249280   6.614   1.338  10.881  0.3741 -0.2335 -0.2609
 9289TIP3   OH249281   1.138   2.235  15.391  0.3586 -0.1781  0.4163
 9289TIP3    H149282   1.207   2.224  15.456  0.2826 -0.1523  0.5013
 9289TIP3    H249283   1.143   2.327  15.366  0.6761 -0.2875  0.0615
 9290TIP3   OH249284   3.454   5.111  10.920  0.1716  0.1073  0.1823
 9290TIP3    H149285   3.453   5.055  10.842 -0.2511 -0.8222  0.8326
 9290TIP3    H249286   3.405   5.061  10.986 -2.6088  2.3595  0.0372
 9291TIP3   OH249287   1.100   2.274  15.107 -0.0749 -0.2327 -0.2359
 9291TIP3    H149288   1.068   2.364  15.111  0.6771  0.1454 -2.1254
 9291TIP3    H249289   1.127   2.255  15.197 -0.1932  1.4434  0.1944
 9292TIP3   OH249290   0.230   6.782  16.066 -0.3610 -0.1686 -0.2839
 9292TIP3    H149291   0.165   6.807  16.000  0.2348 -1.4003 -1.3865
 9292TIP3    H249292   0.307   6.835  16.044 -0.5125  0.2091  0.0972
 9293TIP3   OH249293   3.139   1.765   0.702 -0.2781  0.2308 -0.0508
 9293TIP3    H149294   3.136   1.692   0.765  1.9377  1.9271  2.2072
 9293TIP3    H249295   3.098   1.838   0.748 -0.3343  1.0443 -1.3451
 9294TIP3   OH249296   4.038   6.292  14.723 -0.5574 -0.4001  0.0548
 9294TIP3    H149297   4.005   6.231  14.656  0.1063  0.4671 -1.1034
 9294TIP3    H249298   4.133   6.290  14.712 -0.5221  0.8439 -0.0183
 9295TIP3   OH249299   4.569   5.446  12.363 -0.3412 -0.2246  0.2366
 9295TIP3    H149300   4.604   5.374  12.309 -1.9808 -0.2266 -0.8888
 9295TIP3    H249301   4.638   5.463  12.427  1.2629 -0.9359 -1.2053
 9296TIP3   OH249302   2.611   5.712   5.377  0.1777  0.4019 -0.5452
 9296TIP3    H149303   2.632   5.769   5.302 -1.0109 -0.5582 -1.6508
 9296TIP3    H249304   2.672   5.740   5.446  0.8815  1.7421 -1.6554
 9297TIP3   OH249305   1.535   6.648  12.991 -0.5681  0.2557 -0.3795
 9297TIP3    H149306   1.457   6.617  13.039  0.1561 -1.0802  0.0091
 9297TIP3    H249307   1.563   6.571  12.941  0.3051  0.8295 -0.7755
 9298TIP3   OH249308   5.443   5.096   3.828  0.2376  0.0364 -0.0279
 9298TIP3    H149309   5.504   5.075   3.899  0.5438  1.6397  0.2277
 9298TIP3    H249310   5.421   5.188   3.842 -2.2180 -0.4525 -0.1499
 9299TIP3   OH249311   1.329   1.227  16.913 -0.0789 -0.3475 -0.0340
 9299TIP3    H149312   1.380   1.308  16.909 -1.8900  0.9424  1.3441
 9299TIP3    H249313   1.339   1.196  17.003 -0.7152 -0.7697 -0.0983
 9300TIP3   OH249314   5.374   5.637   5.138  0.1811 -0.3450 -0.0436
 9300TIP3    H149315   5.302   5.684   5.180  1.7030  1.0682  1.1238
 9300TIP3    H249316   5.331   5.568   5.088 -1.9857  0.5262  0.4707
 9301TIP3   OH249317   4.269   3.507   1.978  0.5476 -0.1670  0.5001
 9301TIP3    H149318   4.251   3.484   1.886  0.6134 -1.7978  0.8531
 9301TIP3    H249319   4.340   3.571   1.973  0.5688 -0.2431 -0.5915
 9302TIP3   OH249320   2.143   1.608   3.769  0.9487  0.0594  0.8265
 9302TIP3    H149321   2.170   1.700   3.772  1.4276 -0.0332 -0.1760
 9302TIP3    H249322   2.204   1.563   3.828  0.5216  0.4187  1.5567
 9303TIP3   OH249323   1.090   1.693   1.036 -0.1025 -0.4920 -0.8592
 9303TIP3    H149324   1.128   1.676   1.122 -0.7606 -0.3362 -0.5304
 9303TIP3    H249325   1.055   1.782   1.042  2.2348  0.6205 -2.1744
 9304TIP3   OH249326   5.946   3.378  14.287  0.0991  0.6626 -0.1019
 9304TIP3    H149327   5.884   3.331  14.342 -0.0629 -0.6533 -1.3356
 9304TIP3    H249328   5.892   3.442  14.240  0.2171  1.6935  1.1087
 9305TIP3   OH249329   5.829   1.796  11.318 -0.4965 -0.7720  0.4475
 9305TIP3    H149330   5.743   1.753  11.310 -1.2562  0.6430  0.7782
 9305TIP3    H249331   5.842   1.806  11.412  0.9106 -2.6008  0.5118
 9306TIP3   OH249332   2.091   6.197  11.034  0.3749 -0.3244  0.4899
 9306TIP3    H149333   2.186   6.192  11.031  0.3381 -1.1225  0.6239
 9306TIP3    H249334   2.066   6.225  10.946  0.7558  0.4498  0.6155
 9307TIP3   OH249335   3.946   4.983  17.206  0.8374 -0.0104 -0.5568
 9307TIP3    H149336   3.951   4.888  17.213  1.1601  0.0728  0.4384
 9307TIP3    H249337   3.937   5.013  17.296 -0.4298  0.8414 -0.9365
 9308TIP3   OH249338   6.124   0.242   2.948  1.1908  0.1237 -0.1423
 9308TIP3    H149339   6.208   0.286   2.945  1.2686 -0.0171 -0.0402
 9308TIP3    H249340   6.135   0.162   2.896  0.5429  1.0712 -1.8102
 9309TIP3   OH249341   5.042   2.186  16.171 -0.0281  0.0430  0.5523
 9309TIP3    H149342   5.091   2.130  16.112 -0.0916  0.2538  0.3002
 9309TIP3    H249343   5.006   2.255  16.115  0.5711  0.6948  0.9577
 9310TIP3   OH249344   4.399   0.505  15.030  0.2940  0.7630 -0.2414
 9310TIP3    H149345   4.417   0.591  14.991 -2.8160  1.1632 -1.0685
 9310TIP3    H249346   4.384   0.524  15.123 -1.2520  1.3254 -0.5723
 9311TIP3   OH249347   1.029   1.923   0.780 -0.3016  0.7418 -0.5690
 9311TIP3    H149348   1.029   1.965   0.694  0.3740 -0.5807 -1.2447
 9311TIP3    H249349   0.961   1.969   0.829  0.6489  2.8823 -1.1158
 9312TIP3   OH249350   0.627   6.187   6.476  0.5643 -0.2103  0.6213
 9312TIP3    H149351   0.650   6.242   6.551  0.9092 -0.9330  1.0624
 9312TIP3    H249352   0.574   6.116   6.513  1.0600 -0.7883  0.2468
 9313TIP3   OH249353   0.545   0.474  15.160  0.6456 -0.2791  0.3590
 9313TIP3    H149354   0.473   0.425  15.200 -0.0244 -1.2179 -1.8854
 9313TIP3    H249355   0.511   0.506  15.077  2.5424  0.0382 -0.3604
 9314TIP3   OH249356   5.260   1.222   4.848  0.5452  0.1898 -0.3334
 9314TIP3    H149357   5.278   1.189   4.936 -0.2927 -1.2618 -0.6775
 9314TIP3    H249358   5.174   1.263   4.856  1.2923  1.7695 -0.0646
 9315TIP3   OH249359   5.446   2.108  11.767  0.0420  0.3755  0.0576
 9315TIP3    H149360   5.529   2.105  11.720  0.3113  0.9776  0.4749
 9315TIP3    H249361   5.443   2.196  11.805 -0.7853  0.3579  0.0547
 9316TIP3   OH249362   4.226   2.796  13.497 -0.6461 -0.4647  0.3613
 9316TIP3    H149363   4.155   2.747  13.539 -0.2908 -1.9505 -0.7083
 9316TIP3    H249364   4.186   2.835  13.420 -0.6767  0.0850  0.6495
 9317TIP3   OH249365   4.688   3.442   2.918  0.3123 -0.3647  0.0369
 9317TIP3    H149366   4.714   3.396   2.997 -0.6525 -0.7326  0.1543
 9317TIP3    H249367   4.768   3.448   2.866  0.7652 -0.8729  0.6629
 9318TIP3   OH249368   1.993   4.426   1.814 -0.2383  0.1230  0.0480
 9318TIP3    H149369   2.078   4.432   1.857  0.3395 -2.1073 -0.6566
 9318TIP3    H249370   1.975   4.515   1.783  1.0975  0.9601  1.5244
 9319TIP3   OH249371   2.534   3.273   3.735  0.1285  0.1889 -0.0076
 9319TIP3    H149372   2.629   3.280   3.731  0.1084  0.2237 -0.5518
 9319TIP3    H249373   2.513   3.194   3.685 -0.0725 -0.3379  0.8850
 9320TIP3   OH249374   5.269   2.927  14.225 -0.0627 -0.2216  0.1506
 9320TIP3    H149375   5.225   2.898  14.145 -0.1816 -0.3491  0.2607
 9320TIP3    H249376   5.284   2.846  14.274 -2.4224  0.0520  1.5179
 9321TIP3   OH249377   0.997   1.076  14.749  0.6047  0.0645 -0.1690
 9321TIP3    H149378   0.959   1.023  14.679  0.2229 -0.2723  0.2789
 9321TIP3    H249379   1.078   1.031  14.773 -0.6170 -1.4188  1.4680
 9322TIP3   OH249380   5.949   1.066   2.954 -0.3938 -0.4080  0.5068
 9322TIP3    H149381   5.888   1.038   3.022  0.1915 -0.8811  0.8468
 9322TIP3    H249382   6.032   1.080   3.001 -0.9100  3.1306  0.6080
 9323TIP3   OH249383   5.490   5.305  14.830 -0.1218 -0.1520 -0.2728
 9323TIP3    H149384   5.429   5.306  14.756  0.0335 -0.1716 -0.4013
 9323TIP3    H249385   5.477   5.390  14.872  0.3715  0.2057 -0.8065
 9324TIP3   OH249386   4.661   4.924  12.116 -0.3311  0.1774  0.5323
 9324TIP3    H149387   4.675   4.939  12.022 -0.9343 -0.5702  0.3137
 9324TIP3    H249388   4.713   4.846  12.136  0.6724  0.9652  1.0738
 9325TIP3   OH249389   2.489   3.909  12.617  0.2815  0.3503 -0.4670
 9325TIP3    H149390   2.532   3.823  12.607  0.0212 -0.0616  1.6050
 9325TIP3    H249391   2.430   3.913  12.542  1.9843 -0.2090 -1.9420
 9326TIP3   OH249392   2.659   0.633   2.597  0.0384  0.3377  0.2957
 9326TIP3    H149393   2.611   0.703   2.642  1.1597  0.5684  1.2051
 9326TIP3    H249394   2.592   0.571   2.570 -0.7699  0.6117  1.5812
 9327TIP3   OH249395   0.236   4.649  15.832 -0.5176 -0.5412 -0.1262
 9327TIP3    H149396   0.148   4.667  15.866  0.2272  0.4858  1.4026
 9327TIP3    H249397   0.226   4.571  15.778 -2.1087 -1.2504  1.1225
 9328TIP3   OH249398   2.224   0.413   5.175  0.0663  0.0845  0.2007
 9328TIP3    H149399   2.154   0.376   5.230  0.3510 -1.2613 -0.2861
 9328TIP3    H249400   2.305   0.386   5.218  0.3360 -2.3115 -1.5681
 9329TIP3   OH249401   4.625   5.322   0.874 -0.0774  0.0509 -0.2897
 9329TIP3    H149402   4.536   5.322   0.910  0.0653 -1.9992  0.1440
 9329TIP3    H249403   4.613   5.317   0.779 -0.4077  0.8096 -0.2972
 9330TIP3   OH249404   3.713   1.472   0.508  0.4043  0.0472  0.4018
 9330TIP3    H149405   3.714   1.469   0.413 -0.7938  1.5242  0.2990
 9330TIP3    H249406   3.764   1.550   0.530 -2.6167  2.1468  0.6837
 9331TIP3   OH249407   4.643   6.147  11.880  0.2846  0.2792  0.4246
 9331TIP3    H149408   4.558   6.168  11.919 -0.1403  0.2688 -0.4821
 9331TIP3    H249409   4.633   6.058  11.846  0.4429  0.5204 -0.2696
 9332TIP3   OH249410   4.175   1.332  14.036 -0.2172  0.1424 -0.9918
 9332TIP3    H149411   4.116   1.390  14.084 -0.5172  0.3636 -1.6151
 9332TIP3    H249412   4.189   1.377  13.953 -1.2804 -1.1444 -1.9062
 9333TIP3   OH249413   0.540   2.527   3.555 -0.3881 -0.4468  0.0380
 9333TIP3    H149414   0.607   2.592   3.575  1.0055 -1.9854  0.5491
 9333TIP3    H249415   0.543   2.465   3.628 -1.6375 -1.1383 -0.4571
 9334TIP3   OH249416   4.244   1.837   3.039 -0.7910  0.5545  0.4562
 9334TIP3    H149417   4.164   1.884   3.015 -0.9272 -0.6509 -1.7235
 9334TIP3    H249418   4.312   1.875   2.984 -0.1153  0.6923  1.3648
 9335TIP3   OH249419   4.790   4.912  15.424  0.1839 -0.1463  0.0981
 9335TIP3    H149420   4.716   4.940  15.371  1.1023  0.8864 -0.6907
 9335TIP3    H249421   4.807   4.985  15.483  0.9724 -0.0974 -0.1743
 9336TIP3   OH249422   2.671   4.961   3.026  0.0506 -0.4304  0.2785
 9336TIP3    H149423   2.661   4.866   3.017 -3.3122 -0.1055 -0.9420
 9336TIP3    H249424   2.626   4.983   3.107  2.1453  0.0807  1.3972
 9337TIP3   OH249425   1.095   1.261   3.910 -0.5001  0.3052  0.6452
 9337TIP3    H149426   1.007   1.294   3.893 -0.9674 -0.2881  1.8015
 9337TIP3    H249427   1.099   1.177   3.866 -0.3371  0.5503  0.1865
 9338TIP3   OH249428   4.111   3.039  11.142  0.1825  0.5287 -0.1906
 9338TIP3    H149429   4.181   3.095  11.109  0.0874  0.5980 -0.2761
 9338TIP3    H249430   4.076   2.997  11.064  0.4682  0.1009 -0.0917
 9339TIP3   OH249431   2.312   0.844  13.877  0.2594 -0.4463 -0.2049
 9339TIP3    H149432   2.342   0.801  13.797  0.4164 -1.2856  0.2806
 9339TIP3    H249433   2.246   0.906  13.848  0.5060 -0.5473 -1.0111
 9340TIP3   OH249434   2.520   4.813   2.783 -0.2021  0.0640 -0.0291
 9340TIP3    H149435   2.453   4.878   2.808 -0.3863 -0.0376 -0.2518
 9340TIP3    H249436   2.493   4.733   2.829 -1.0342 -0.3624 -1.2207
 9341TIP3   OH249437   3.774   5.227   4.838  0.0788  0.2782  0.2237
 9341TIP3    H149438   3.771   5.321   4.820  0.0767  0.2550  0.0954
 9341TIP3    H249439   3.744   5.217   4.928  1.4067  0.5374  0.7189
 9342TIP3   OH249440   5.787   3.614  14.181  0.0578 -0.2691  0.4386
 9342TIP3    H149441   5.725   3.614  14.109  1.2839 -2.6781 -0.7312
 9342TIP3    H249442   5.846   3.687  14.162 -2.0700  1.8336  1.3926
 9343TIP3   OH249443   0.199   1.754  15.369  0.2009 -0.1301  0.2518
 9343TIP3    H149444   0.114   1.792  15.389 -0.1321 -1.1557  0.8514
 9343TIP3    H249445   0.180   1.682  15.308  0.8946  1.0693 -1.4623
 9344TIP3   OH249446   3.022   1.043   4.184 -0.3195 -0.3261 -0.3212
 9344TIP3    H149447   2.971   1.121   4.166 -0.7500 -0.7549 -0.9974
 9344TIP3    H249448   3.077   1.032   4.107  2.0588  1.0604  1.0528
 9345TIP3   OH249449   1.697   5.851  14.878  0.0410 -0.4267 -0.3113
 9345TIP3    H149450   1.609   5.820  14.897  0.0647 -0.5690 -0.4371
 9345TIP3    H249451   1.746   5.834  14.959 -0.2922  0.5641  0.1111
 9346TIP3   OH249452   0.331   4.546  14.009  0.2246  0.3073  0.7135
 9346TIP3    H149453   0.383   4.578  13.936  0.4012 -1.3867  0.0664
 9346TIP3    H249454   0.263   4.491  13.970 -0.2861  0.1572  1.7500
 9347TIP3   OH249455   2.414   2.109  11.988 -0.1227  0.3803  0.7395
 9347TIP3    H149456   2.404   2.189  11.937  0.0916  0.5981  1.0370
 9347TIP3    H249457   2.414   2.138  12.079 -0.9299 -0.0538  0.8806
 9348TIP3   OH249458   3.208   6.310   0.683  0.4162  0.1140  0.2997
 9348TIP3    H149459   3.186   6.345   0.597  1.6225  0.1552 -0.0031
 9348TIP3    H249460   3.171   6.373   0.745  1.5751  1.3409 -0.2257
 9349TIP3   OH249461   1.612   6.720  14.810 -0.0169 -0.1161  0.0943
 9349TIP3    H149462   1.606   6.724  14.714 -1.4899  1.7279  0.2190
 9349TIP3    H249463   1.590   6.629  14.830  0.8329 -0.6803 -1.3266
 9350TIP3   OH249464   0.199   3.451   5.809  0.1312 -0.1605 -0.2957
 9350TIP3    H149465   0.165   3.466   5.721 -1.2239  0.4386  0.2932
 9350TIP3    H249466   0.207   3.538   5.847  1.4399 -0.3625 -0.0720
 9351TIP3   OH249467   3.938   1.902  15.670  0.6685 -0.0221 -0.2322
 9351TIP3    H149468   3.875   1.881  15.739  1.7981 -2.8377  0.0840
 9351TIP3    H249469   4.008   1.950  15.714  1.2105 -1.4938  0.5869
 9352TIP3   OH249470   6.609   2.139   4.943  0.9164 -0.3104 -0.8982
 9352TIP3    H149471   6.576   2.168   5.028  0.7499 -0.0006 -1.0664
 9352TIP3    H249472   6.703   2.155   4.948  0.8550  0.0569 -0.9094
 9353TIP3   OH249473   2.995   5.167   0.599 -0.0646  0.1026  0.7771
 9353TIP3    H149474   2.948   5.221   0.661  0.0085 -0.1824  1.0832
 9353TIP3    H249475   3.071   5.135   0.647 -0.6795 -1.1623  0.9535
 9354TIP3   OH249476   3.241   0.693   4.140 -0.1049 -0.3045  0.0205
 9354TIP3    H149477   3.221   0.617   4.195  0.4837 -0.8418 -0.4860
 9354TIP3    H249478   3.288   0.752   4.198  2.9203 -2.0043 -0.4870
 9355TIP3   OH249479   6.765   3.286   5.577  0.3626  0.1454  0.3945
 9355TIP3    H149480   6.828   3.265   5.645 -1.4100  2.5047  2.9663
 9355TIP3    H249481   6.700   3.215   5.581  1.2348 -0.7141 -0.2232
 9356TIP3   OH249482   1.569   3.121   6.405 -0.1177  0.3790 -0.2192
 9356TIP3    H149483   1.503   3.187   6.383 -1.2861 -1.1420 -1.4304
 9356TIP3    H249484   1.652   3.168   6.397 -0.9490  2.0391  0.2403
 9357TIP3   OH249485   5.527   5.917   4.504 -0.4874 -0.6214 -0.0580
 9357TIP3    H149486   5.485   5.959   4.579  0.1438  1.4089 -0.7614
 9357TIP3    H249487   5.465   5.849   4.477 -1.6897 -0.0074  1.0231
 9358TIP3   OH249488   5.300   5.976  11.484  0.4442  0.0676  0.5835
 9358TIP3    H149489   5.249   5.903  11.448 -0.3795  0.4816  0.8772
 9358TIP3    H249490   5.389   5.961  11.452 -0.0786 -0.0395 -0.9131
 9359TIP3   OH249491   2.702   6.491   5.702 -0.3990 -1.1589 -0.3338
 9359TIP3    H149492   2.691   6.510   5.796  3.0918  0.5123 -0.0866
 9359TIP3    H249493   2.634   6.542   5.659  0.6913  1.7518  1.1437
 9360TIP3   OH249494   3.836   3.196   4.124  0.9649 -0.1942 -0.0751
 9360TIP3    H149495   3.858   3.269   4.182  2.3282  0.1322 -0.9574
 9360TIP3    H249496   3.917   3.147   4.115  0.5992 -0.6275 -1.1652
 9361TIP3   OH249497   5.089   0.130  13.594  0.0590 -0.5502 -0.2387
 9361TIP3    H149498   5.183   0.131  13.614 -0.3245  0.9993  1.8706
 9361TIP3    H249499   5.066   0.038  13.588  1.1335 -1.1058  2.6404
 9362TIP3   OH249500   5.846   4.217  11.663 -0.1621  0.4234  0.1366
 9362TIP3    H149501   5.887   4.131  11.674  0.5216  0.7312  0.0240
 9362TIP3    H249502   5.901   4.276  11.715 -2.2297  0.3569  2.6062
 9363TIP3   OH249503   4.108   0.835   1.790  0.5647  0.3160 -0.5663
 9363TIP3    H149504   4.045   0.900   1.821  0.2177 -0.8095  1.2727
 9363TIP3    H249505   4.069   0.799   1.711  0.1609  1.4272 -0.8948
 9364TIP3   OH249506   2.200   2.090   6.048  0.1142 -0.1796  0.1529
 9364TIP3    H149507   2.146   2.165   6.074 -0.7664  0.4777 -3.1966
 9364TIP3    H249508   2.148   2.014   6.074 -0.8493  0.4085 -0.0063
 9365TIP3   OH249509   0.809   0.062  16.147  0.3934  0.5382 -0.8746
 9365TIP3    H149510   0.854  -0.000  16.205  0.3853 -0.9122 -2.3524
 9365TIP3    H249511   0.816   0.023  16.060 -2.3456  1.0417 -1.4241
 9366TIP3   OH249512   3.559   2.622   0.877  0.0093 -0.3170  0.9855
 9366TIP3    H149513   3.559   2.528   0.896 -3.5238 -0.5709  0.5732
 9366TIP3    H249514   3.620   2.632   0.805 -0.6681 -2.6431 -0.0210
 9367TIP3   OH249515   5.410   4.610  15.150 -0.6570 -0.2926  0.0444
 9367TIP3    H149516   5.439   4.676  15.087  0.3634  0.5971  1.4000
 9367TIP3    H249517   5.432   4.646  15.236 -1.0214 -1.9412  0.8858
 9368TIP3   OH249518   6.486   6.289   1.501  0.1200  0.3505  0.1924
 9368TIP3    H149519   6.458   6.301   1.410  1.1061  0.6483 -0.0819
 9368TIP3    H249520   6.473   6.196   1.519 -3.3807  0.8447  0.8968
 9369TIP3   OH249521   4.660   3.765   2.614 -0.0271  0.0340  0.0411
 9369TIP3    H149522   4.616   3.701   2.670  2.3315 -1.8194 -0.0431
 9369TIP3    H249523   4.639   3.738   2.525 -0.5049  0.4963  0.0134
 9370TIP3   OH249524   3.541   0.417  16.508  0.1158  0.0907 -0.6799
 9370TIP3    H149525   3.629   0.379  16.501  0.4076  1.0941 -3.1969
 9370TIP3    H249526   3.534   0.444  16.600  2.0001 -0.9679 -0.1726
 9371TIP3   OH249527   0.293   1.154  14.159 -0.8119  0.1149  0.2092
 9371TIP3    H149528   0.249   1.109  14.232  1.4187 -1.3789  0.7263
 9371TIP3    H249529   0.278   1.096  14.084 -1.3215  0.5893 -0.0630
 9372TIP3   OH249530   3.198   4.224  11.911  0.1121 -0.1785 -0.3330
 9372TIP3    H149531   3.279   4.197  11.953 -0.9672 -1.8711  0.7516
 9372TIP3    H249532   3.183   4.160  11.841 -0.8677 -0.5834  0.2266
 9373TIP3   OH249533   6.064   3.121   4.092 -0.0876 -0.2850  0.1334
 9373TIP3    H149534   6.099   3.185   4.030 -0.3194  0.4444  0.7246
 9373TIP3    H249535   6.037   3.047   4.039 -1.1711  0.7072 -0.7618
 9374TIP3   OH249536   2.120   5.131   4.631  0.2018 -0.1232 -0.1278
 9374TIP3    H149537   2.081   5.166   4.552  1.0134  0.3766 -0.3135
 9374TIP3    H249538   2.082   5.183   4.702  1.3820  1.1496 -0.3988
 9375TIP3   OH249539   0.773   0.755  14.798  0.3243  0.1028 -0.0175
 9375TIP3    H149540   0.773   0.667  14.837 -1.2302 -0.0849 -0.3805
 9375TIP3    H249541   0.778   0.814  14.873  0.7265 -0.2808  0.2673
 9376TIP3   OH249542   6.103   5.624  12.736  0.0535  0.3963 -0.4832
 9376TIP3    H149543   6.197   5.644  12.736 -0.2879  2.1124 -0.2938
 9376TIP3    H249544   6.085   5.600  12.645  0.1641  2.9065 -1.2571
 9377TIP3   OH249545   0.347   4.425   2.660  0.1727 -0.0273 -0.3869
 9377TIP3    H149546   0.317   4.512   2.683 -0.3636  0.3202 -2.1966
 9377TIP3    H249547   0.320   4.369   2.733  0.3684  1.2715  0.7143
 9378TIP3   OH249548   1.688   4.641  13.465  0.1723  0.7956  0.1792
 9378TIP3    H149549   1.716   4.637  13.557 -0.5627 -0.1902  0.3874
 9378TIP3    H249550   1.593   4.630  13.469  0.3331 -1.4456 -0.8085
 9379TIP3   OH249551   0.627   4.287   1.472  0.4480  0.0566  0.3106
 9379TIP3    H149552   0.614   4.343   1.396  0.3352 -0.3023  0.0617
 9379TIP3    H249553   0.674   4.211   1.438 -0.6258 -0.6524  0.3650
 9380TIP3   OH249554   5.613   6.760   3.114 -0.1092 -0.2086  0.2474
 9380TIP3    H149555   5.618   6.839   3.061 -2.1895 -0.7278 -0.8594
 9380TIP3    H249556   5.524   6.726   3.098  0.3029 -2.1247  1.5983
 9381TIP3   OH249557   3.463   2.653   6.268 -0.6558 -0.8510  0.2843
 9381TIP3    H149558   3.524   2.724   6.246  0.3730 -1.8262 -0.1422
 9381TIP3    H249559   3.396   2.694   6.322  0.1518  0.3541  0.3986
 9382TIP3   OH249560   2.049   0.869   1.325 -0.1213 -0.4567  0.1744
 9382TIP3    H149561   1.998   0.788   1.327  1.6491 -1.7003 -1.7956
 9382TIP3    H249562   2.003   0.925   1.262  0.6511 -1.4236 -1.3013
 9383TIP3   OH249563   4.298   3.326  13.390 -0.5658 -0.5648 -0.7046
 9383TIP3    H149564   4.334   3.294  13.473  0.0003 -1.5576 -1.3058
 9383TIP3    H249565   4.266   3.247  13.346 -2.2503  0.1264 -0.7948
 9384TIP3   OH249566   1.081   2.385  15.729  0.0694 -0.2595 -0.2621
 9384TIP3    H149567   1.162   2.365  15.681 -0.4334  0.2095 -1.3418
 9384TIP3    H249568   1.032   2.442  15.670 -0.4237  0.6355  0.9785
 9385TIP3   OH249569   2.627   4.176   5.284 -0.2804 -0.4626 -0.4822
 9385TIP3    H149570   2.721   4.194   5.282 -0.2191 -0.5980  0.7605
 9385TIP3    H249571   2.600   4.184   5.192  1.0937 -1.2870 -0.9963
 9386TIP3   OH249572   2.245   0.856  15.538 -0.1364  0.2376  0.0801
 9386TIP3    H149573   2.326   0.838  15.490 -0.1363  0.2255  0.0851
 9386TIP3    H249574   2.206   0.769  15.552  0.3218  0.1565  0.9148
 9387TIP3   OH249575   1.825   0.078   6.330  0.0189 -0.3273  0.3328
 9387TIP3    H149576   1.870   0.002   6.292  0.2585  0.1721 -0.4018
 9387TIP3    H249577   1.892   0.122   6.382 -0.0487 -0.4610  0.5362
 9388TIP3   OH249578   1.333   3.270  14.450 -0.3680 -0.1600 -0.3943
 9388TIP3    H149579   1.279   3.349  14.460  2.1541  1.8693 -1.4722
 9388TIP3    H249580   1.317   3.240  14.361 -0.1233  0.1390 -0.5419
 9389TIP3   OH249581   1.140   2.306  14.237 -0.0156 -0.0677 -0.2459
 9389TIP3    H149582   1.213   2.335  14.183  0.0218  0.0308 -0.1421
 9389TIP3    H249583   1.062   2.322  14.183 -0.0895  1.2201  0.2226
 9390TIP3   OH249584   0.776   3.778   3.354  0.3223 -0.0255  0.3008
 9390TIP3    H149585   0.854   3.813   3.396  0.2673 -0.3408  0.6755
 9390TIP3    H249586   0.786   3.683   3.360  1.0375 -0.1426 -1.7316
 9391TIP3   OH249587   6.291   3.086  11.951 -0.1266  0.1417 -0.4456
 9391TIP3    H149588   6.337   3.157  11.998 -1.5313  1.1945 -0.6086
 9391TIP3    H249589   6.306   3.105  11.859  2.1224 -1.5924 -0.5379
 9392TIP3   OH249590   0.482   5.738   5.402  0.3826 -0.1783 -0.4614
 9392TIP3    H149591   0.387   5.729   5.394  0.0011  2.2795  0.2099
 9392TIP3    H249592   0.509   5.664   5.455 -1.0079 -1.4145 -1.4075
 9393TIP3   OH249593   6.563   4.464   3.804  0.3631 -0.5546  0.3875
 9393TIP3    H149594   6.582   4.430   3.717 -1.1208  0.5555 -0.4392
 9393TIP3    H249595   6.474   4.434   3.822  0.8989 -1.3368  1.8410
 9394TIP3   OH249596   5.764   1.436  11.870 -0.0277  0.2076 -0.4641
 9394TIP3    H149597   5.763   1.426  11.966  1.2492  0.1897 -0.4319
 9394TIP3    H249598   5.680   1.401  11.841 -0.2387 -0.2205  0.6162
 9395TIP3   OH249599   3.296   6.048  13.310 -0.0356  0.1724 -0.3550
 9395TIP3    H149600   3.248   5.968  13.288  0.8505 -1.2681  2.4988
 9395TIP3    H249601   3.387   6.029  13.283  0.0409  0.5457 -0.3651
 9396TIP3   OH249602   3.029   4.722   2.324 -0.6999  0.1021 -0.1940
 9396TIP3    H149603   2.958   4.751   2.381 -0.3570  0.3762  0.0971
 9396TIP3    H249604   3.109   4.740   2.374 -0.4041  0.2075 -0.6986
 9397TIP3   OH249605   3.873   3.031  12.254  0.2141 -0.7147 -0.1919
 9397TIP3    H149606   3.793   3.084  12.248  1.4619  1.2874 -0.0864
 9397TIP3    H249607   3.924   3.058  12.177  0.3681 -2.7646 -0.8571
 9398TIP3   OH249608   4.249   2.242   6.556 -0.0046 -0.1179 -0.5871
 9398TIP3    H149609   4.272   2.323   6.601  0.7249  0.1568 -1.4228
 9398TIP3    H249610   4.203   2.190   6.622  1.9804 -0.1823  0.8377
 9399TIP3   OH249611   4.254   2.016   6.075  0.0915 -0.3465  0.0588
 9399TIP3    H149612   4.314   2.037   6.146 -0.4815 -0.2581  0.5252
 9399TIP3    H249613   4.239   2.099   6.030 -1.8647  0.2710  1.6620
 9400TIP3   OH249614   4.024   0.391   3.213 -0.2072 -0.8525 -0.1172
 9400TIP3    H149615   4.031   0.453   3.285 -0.1463 -1.6398  0.5636
 9400TIP3    H249616   4.034   0.305   3.253  1.6814 -1.2518 -1.3060
 9401TIP3   OH249617   4.399   4.328   4.564  0.5265 -0.2557  0.3851
 9401TIP3    H149618   4.336   4.355   4.631 -0.1288  1.9325 -1.0154
 9401TIP3    H249619   4.479   4.375   4.586  0.5399 -0.1322  0.0810
 9402TIP3   OH249620   6.151   3.196  12.292  0.4237  0.3988  0.0848
 9402TIP3    H149621   6.188   3.119  12.248  2.7625  1.3595  0.2300
 9402TIP3    H249622   6.165   3.180  12.385  1.6933  1.2795  0.0873
 9403TIP3   OH249623   3.379   1.324   2.442 -0.1459 -0.4211  0.9485
 9403TIP3    H149624   3.312   1.255   2.444 -0.6151 -0.0602 -0.8215
 9403TIP3    H249625   3.401   1.339   2.534 -0.5434 -2.4297  1.4167
 9404TIP3   OH249626   3.845   2.501   1.632  0.4203  0.1237 -1.1470
 9404TIP3    H149627   3.857   2.571   1.696 -0.2139  0.2887 -1.2094
 9404TIP3    H249628   3.910   2.435   1.657 -0.3111 -0.1459  0.1259
 9405TIP3   OH249629   5.174   1.824   5.425 -0.0209  0.8725  0.6046
 9405TIP3    H149630   5.094   1.779   5.453  0.2216  0.1488  0.1588
 9405TIP3    H249631   5.188   1.891   5.492 -0.5019  0.4188  1.1738
 9406TIP3   OH249632   5.041   2.954  14.614 -0.3352  0.0927  0.1071
 9406TIP3    H149633   5.035   3.042  14.649 -0.4027  0.8039 -1.5923
 9406TIP3    H249634   4.951   2.932  14.587  0.1694  0.8331 -2.4280
 9407TIP3   OH249635   1.719   2.729  15.606  0.8114  0.1339 -0.3784
 9407TIP3    H149636   1.781   2.735  15.533 -0.1035 -2.9549 -1.6216
 9407TIP3    H249637   1.742   2.647  15.650 -1.5036 -0.4416 -0.1014
 9408TIP3   OH249638   1.374   2.296   4.353  0.0637 -0.4835 -0.0023
 9408TIP3    H149639   1.404   2.336   4.271 -1.0041  1.2610  0.3937
 9408TIP3    H249640   1.333   2.214   4.326 -0.1291 -0.0226 -1.2096
 9409TIP3   OH249641   2.044   4.374  12.739  0.5576  0.4040  0.1920
 9409TIP3    H149642   1.996   4.304  12.784 -0.3825  0.1043 -1.2090
 9409TIP3    H249643   2.082   4.332  12.662  1.3313  1.1061  0.1777
 9410TIP3   OH249644   3.319   5.229   3.509 -0.3186  0.2185 -0.0657
 9410TIP3    H149645   3.246   5.168   3.497 -0.3802 -0.0390  1.3675
 9410TIP3    H249646   3.309   5.260   3.599  1.8541 -0.5184  0.4976
 9411TIP3   OH249647   4.086   4.457   3.957  0.7010 -0.2556  0.1401
 9411TIP3    H149648   4.174   4.427   3.976  0.8346 -0.4577 -0.7354
 9411TIP3    H249649   4.044   4.382   3.915  0.1846 -0.0875  0.3499
 9412TIP3   OH249650   6.015   4.814  14.812 -0.5321 -0.8540 -0.1737
 9412TIP3    H149651   5.936   4.862  14.788 -0.6085 -1.6568 -1.6088
 9412TIP3    H249652   6.086   4.864  14.772 -0.6059 -1.8324 -1.6006
 9413TIP3   OH249653   4.083   5.686  13.741 -0.1640  0.0996  0.1839
 9413TIP3    H149654   4.040   5.677  13.826 -0.4547 -0.2873 -0.0021
 9413TIP3    H249655   4.141   5.610  13.736  1.3172  1.1240  0.8643
 9414TIP3   OH249656   6.658   4.889  10.739  0.6643  0.1232 -0.3784
 9414TIP3    H149657   6.586   4.953  10.741 -0.0711 -0.6680  1.5634
 9414TIP3    H249658   6.615   4.805  10.753  2.0501 -0.1480  3.7288
 9415TIP3   OH249659   3.336   0.315  12.893 -0.4048  0.3872  0.5204
 9415TIP3    H149660   3.326   0.255  12.967  1.3040 -0.7690 -0.1353
 9415TIP3    H249661   3.417   0.363  12.911 -0.9999  1.4934  0.3247
 9416TIP3   OH249662   1.541   6.062  13.152  0.1445  0.0127 -0.6393
 9416TIP3    H149663   1.583   6.117  13.218  1.2679 -2.4257  0.8118
 9416TIP3    H249664   1.564   6.102  13.068 -0.0754  2.3487  0.3591
 9417TIP3   OH249665   6.481   6.545  13.272 -0.0456 -0.1249  0.3497
 9417TIP3    H149666   6.468   6.580  13.184 -0.4180 -0.6810  0.1735
 9417TIP3    H249667   6.406   6.577  13.322 -0.5872 -0.9425  0.0921
 9418TIP3   OH249668   1.988   2.393  13.106  0.4203 -0.0139 -0.6134
 9418TIP3    H149669   1.908   2.359  13.067  0.7104 -0.3837 -0.8854
 9418TIP3    H249670   2.059   2.358  13.052  0.7688  0.2710 -0.3470
 9419TIP3   OH249671   0.219   6.729  17.302  0.3799 -0.6974 -0.0176
 9419TIP3    H149672   0.296   6.709  17.355  0.8142  0.2443 -0.2575
 9419TIP3    H249673   0.151   6.670  17.333  1.2104 -1.5721  0.1780
 9420TIP3   OH249674   5.311   5.342  16.217 -0.3186  0.0179  0.3982
 9420TIP3    H149675   5.358   5.394  16.153 -2.3927 -0.0431 -1.2806
 9420TIP3    H249676   5.304   5.399  16.294  0.4091  0.8868 -0.1613
 9421TIP3   OH249677   3.929   3.104   1.741 -0.0354 -0.2443  0.7880
 9421TIP3    H149678   3.943   3.083   1.833  1.4929  1.2087  0.9362
 9421TIP3    H249679   3.899   3.195   1.742  0.2142 -0.1447 -0.1632
 9422TIP3   OH249680   0.048   1.385  11.316  0.0715 -0.0020 -0.3784
 9422TIP3    H149681  -0.008   1.308  11.325  0.1911 -0.0607 -0.1255
 9422TIP3    H249682   0.088   1.377  11.230  2.6877 -1.9483  0.9174
 9423TIP3   OH249683   6.735   5.476  12.619  0.2684 -0.0668 -0.0039
 9423TIP3    H149684   6.791   5.422  12.674  0.0194 -0.5029 -0.1706
 9423TIP3    H249685   6.704   5.545  12.677 -0.1526 -0.6379  0.4637
 9424TIP3   OH249686   6.575   6.429  12.342  0.3223 -0.0318 -0.9553
 9424TIP3    H149687   6.527   6.510  12.326  0.3865 -0.0485 -1.2579
 9424TIP3    H249688   6.542   6.368  12.276  1.0916  0.1052 -1.4869
 9425TIP3   OH249689   2.517   4.565   4.855  0.1415  0.0093  0.1198
 9425TIP3    H149690   2.581   4.636   4.851  0.8839 -0.6536 -0.0120
 9425TIP3    H249691   2.506   4.547   4.949 -1.6287  1.6705  0.2879
 9426TIP3   OH249692   6.212   6.036   3.826 -0.2864 -0.0224 -0.1725
 9426TIP3    H149693   6.197   5.952   3.783  0.1806 -0.3993  0.3817
 9426TIP3    H249694   6.130   6.055   3.871 -0.4936 -0.0361 -0.5456
 9427TIP3   OH249695   6.460   5.418   5.373  0.2551 -0.0212 -0.1106
 9427TIP3    H149696   6.427   5.329   5.376  0.0616  0.0635  1.4944
 9427TIP3    H249697   6.384   5.473   5.395  0.2859  0.5789 -1.4222
 9428TIP3   OH249698   5.900   2.877  12.813  0.0670  0.7170 -0.1914
 9428TIP3    H149699   5.844   2.953  12.795  1.8214  2.5038  1.3371
 9428TIP3    H249700   5.989   2.909  12.795  0.6681 -2.2806 -3.4269
 9429TIP3   OH249701   3.937   3.376   0.794 -0.2423 -0.0715  0.1825
 9429TIP3    H149702   3.926   3.292   0.750  0.5488 -0.2455  0.3008
 9429TIP3    H249703   3.900   3.440   0.734  0.8719 -0.2975 -0.7774
 9430TIP3   OH249704   2.166   2.301  14.940 -0.7992 -0.0984  0.1325
 9430TIP3    H149705   2.073   2.284  14.950 -0.5448 -1.1683  0.8263
 9430TIP3    H249706   2.189   2.266  14.854 -0.7376 -1.2507  0.6072
 9431TIP3   OH249707   0.522   4.396  15.858 -0.5156 -0.0706 -0.1642
 9431TIP3    H149708   0.471   4.316  15.843 -2.3786  1.2174 -1.1481
 9431TIP3    H249709   0.582   4.400  15.784 -2.2322  0.7154 -1.5940
 9432TIP3   OH249710   2.492   0.809  16.769  0.3295 -0.6718 -0.0712
 9432TIP3    H149711   2.411   0.798  16.819  0.4232 -2.2275 -0.1968
 9432TIP3    H249712   2.521   0.719  16.751  2.6776 -0.1893  0.9154
 9433TIP3   OH249713   6.546   0.341  17.276 -0.1708  0.7455 -0.2918
 9433TIP3    H149714   6.470   0.390  17.245 -1.6215 -0.3429  1.3732
 9433TIP3    H249715   6.542   0.257  17.229 -0.5307  0.3404  0.4515
 9434TIP3   OH249716   3.736   0.848   1.447  0.4158  0.3949 -0.6984
 9434TIP3    H149717   3.815   0.874   1.494 -0.3579 -2.0747  2.3322
 9434TIP3    H249718   3.665   0.898   1.487 -0.0832 -0.7173 -0.1274
 9435TIP3   OH249719   6.551   0.018  13.848 -0.0416  0.0385 -0.4805
 9435TIP3    H149720   6.623  -0.044  13.839 -1.2820 -1.3393 -1.4194
 9435TIP3    H249721   6.504  -0.010  13.927 -0.0374  0.4131 -0.3400
 9436TIP3   OH249722   2.939   3.250  12.339  0.3572  0.2735  0.1627
 9436TIP3    H149723   2.912   3.309  12.268 -2.4607 -1.5883 -0.4796
 9436TIP3    H249724   2.979   3.175  12.294  1.1266  0.3073  0.7707
 9437TIP3   OH249725   5.015   6.192  14.661  0.2522  0.4048 -0.1981
 9437TIP3    H149726   5.045   6.261  14.603 -1.2158  0.8260 -0.5137
 9437TIP3    H249727   4.935   6.227  14.701 -0.9952 -1.3793 -0.9704
 9438TIP3   OH249728   0.834   1.307  11.262  0.6095 -0.0184 -0.2505
 9438TIP3    H149729   0.924   1.341  11.262  0.3902  0.6235 -1.2948
 9438TIP3    H249730   0.844   1.212  11.253  1.1835  0.0526 -0.3988
 9439TIP3   OH249731   2.147   1.103  15.988  0.0569  0.3230  0.1872
 9439TIP3    H149732   2.235   1.127  15.957  0.5941 -0.2252  1.2432
 9439TIP3    H249733   2.106   1.062  15.912  0.7984  0.3715 -0.2511
 9440TIP3   OH249734   1.268   6.301   6.307 -0.6770  0.2302  0.8208
 9440TIP3    H149735   1.254   6.322   6.215 -3.7439 -0.7248  0.9742
 9440TIP3    H249736   1.336   6.362   6.336 -0.7460  1.5828 -1.6548
 9441TIP3   OH249737   0.950   1.201   5.481  0.2201 -0.6408 -0.3798
 9441TIP3    H149738   1.031   1.208   5.530 -0.3837  0.2241  0.5213
 9441TIP3    H249739   0.959   1.265   5.410  0.4973 -0.8654 -0.5513
 9442TIP3   OH249740   4.187   0.238   4.143  0.6778  0.4734 -0.0047
 9442TIP3    H149741   4.263   0.201   4.187  1.6038  0.9003 -1.2120
 9442TIP3    H249742   4.154   0.305   4.203  1.8019  0.9266  0.1172
 9443TIP3   OH249743   1.518   3.148  14.687  0.0884 -0.5254 -0.2013
 9443TIP3    H149744   1.474   3.216  14.636 -1.6344 -1.6550 -0.3129
 9443TIP3    H249745   1.514   3.180  14.777  3.8940  1.8773 -0.6993
 9444TIP3   OH249746   1.520   4.433  14.145  0.0764  0.2856  0.9195
 9444TIP3    H149747   1.458   4.446  14.217  0.3030 -2.0148  1.6241
 9444TIP3    H249748   1.595   4.390  14.186  0.2381 -1.0396 -0.6735
 9445TIP3   OH249749   5.281   4.439  14.531  0.0600  0.0531 -0.0222
 9445TIP3    H149750   5.346   4.496  14.492  0.2917 -0.8862 -1.0579
 9445TIP3    H249751   5.221   4.498  14.576  0.4386  1.0828 -0.8344
 9446TIP3   OH249752   3.905   1.602  13.559 -0.2622  0.0386 -0.2784
 9446TIP3    H149753   3.829   1.610  13.502 -0.2462 -0.0440 -0.3123
 9446TIP3    H249754   3.892   1.668  13.627 -1.0666 -0.9232  0.5243
 9447TIP3   OH249755   2.700   6.614   4.680  0.2404 -0.2305  0.1018
 9447TIP3    H149756   2.620   6.582   4.722  0.4604 -0.5900  0.2562
 9447TIP3    H249757   2.752   6.648   4.753  0.0832  0.3194 -0.0410
 9448TIP3   OH249758   5.442   5.073   0.815  0.2347  0.0341 -0.2140
 9448TIP3    H149759   5.519   5.069   0.872 -1.3472 -1.0483  2.0029
 9448TIP3    H249760   5.446   4.993   0.763  0.1037 -0.5614  0.6631
 9449TIP3   OH249761   1.086   4.480  11.526 -0.0442 -0.0102  0.1795
 9449TIP3    H149762   1.007   4.532  11.541 -0.4961 -0.6895  0.1716
 9449TIP3    H249763   1.131   4.480  11.610  0.5684  1.3827 -0.1199
 9450TIP3   OH249764   5.965   4.021   5.307  0.0582 -0.4012 -0.6360
 9450TIP3    H149765   5.956   3.935   5.349  0.2674  0.2790  0.8336
 9450TIP3    H249766   5.875   4.049   5.290 -0.2716  0.8085  2.5364
 9451TIP3   OH249767   4.964   1.285   3.277 -0.3420  0.1265 -0.6507
 9451TIP3    H149768   4.971   1.247   3.189  2.4266 -0.7791 -0.1574
 9451TIP3    H249769   4.891   1.239   3.318 -1.2088  0.0522 -2.2255
 9452TIP3   OH249770   3.529   1.756   0.342 -0.1101  0.2599 -0.4193
 9452TIP3    H149771   3.525   1.774   0.248 -0.8056  0.2473 -0.3994
 9452TIP3    H249772   3.582   1.678   0.349 -2.0460 -1.1983 -1.0382
 9453TIP3   OH249773   2.709   5.790  11.150 -0.0771 -0.4580  0.0300
 9453TIP3    H149774   2.796   5.803  11.113  0.5909  0.7126  1.8796
 9453TIP3    H249775   2.653   5.854  11.106  0.6420  0.7234  0.7770
 9454TIP3   OH249776   1.129   1.494  15.215  0.2169  0.1826  0.3100
 9454TIP3    H149777   1.072   1.428  15.176 -0.5925  1.2736 -0.4099
 9454TIP3    H249778   1.073   1.540  15.278  0.7340  0.2748  0.7118
 9455TIP3   OH249779   2.827   6.412   5.164  0.2036  0.5415  0.1087
 9455TIP3    H149780   2.788   6.415   5.077  1.1673  0.4799 -0.3388
 9455TIP3    H249781   2.852   6.320   5.176  2.0045  0.9093 -0.4568
 9456TIP3   OH249782   6.110   3.323  14.502  0.4938  0.2294  0.3347
 9456TIP3    H149783   6.092   3.232  14.522 -2.0331  0.9217  1.5933
 9456TIP3    H249784   6.059   3.341  14.423  1.3245  0.4855 -0.1676
 9457TIP3   OH249785   6.173   0.099  17.313  0.2398 -0.1697 -0.2825
 9457TIP3    H149786   6.099   0.050  17.349 -1.0871  1.1600 -1.1404
 9457TIP3    H249787   6.139   0.143  17.236  1.6316  1.3865 -0.0757
 9458TIP3   OH249788   6.506   4.247  13.414 -0.0249  0.0079 -0.3263
 9458TIP3    H149789   6.443   4.303  13.368  0.4788 -0.9642 -2.2759
 9458TIP3    H249790   6.453   4.177  13.452 -0.5809  1.3818  1.6033
 9459TIP3   OH249791   5.667   3.752  15.301  0.2269 -0.4368  0.0273
 9459TIP3    H149792   5.728   3.794  15.362  0.3634 -0.0220 -0.3857
 9459TIP3    H249793   5.589   3.734  15.354  1.0121 -1.7825  0.7866
 9460TIP3   OH249794   2.519   4.336  11.453  0.4671  0.1874  0.4231
 9460TIP3    H149795   2.474   4.300  11.377  0.0055 -0.0525  0.8048
 9460TIP3    H249796   2.450   4.379  11.504  1.0222  1.7266 -0.0768
 9461TIP3   OH249797   4.922   3.014   6.148  0.0561  0.5093  0.3253
 9461TIP3    H149798   4.942   3.086   6.087  2.4616 -0.2836  0.0887
 9461TIP3    H249799   4.917   2.936   6.092  1.5540 -0.1122  1.0057
 9462TIP3   OH249800   3.859   3.296  14.171  0.5463  0.4351  0.1496
 9462TIP3    H149801   3.776   3.294  14.217 -0.8051  0.0967 -2.1624
 9462TIP3    H249802   3.845   3.356  14.098  2.1161 -0.1001 -0.6499
 9463TIP3   OH249803   2.734   2.181   4.549  0.3640  0.2986 -0.0162
 9463TIP3    H149804   2.773   2.158   4.633  0.4407  0.5453  0.0163
 9463TIP3    H249805   2.753   2.274   4.538  0.2957  0.2832 -0.2753
 9464TIP3   OH249806   6.647   3.486   4.866 -0.2761  0.4092 -0.1804
 9464TIP3    H149807   6.699   3.449   4.937  0.6503 -1.1927 -1.6337
 9464TIP3    H249808   6.571   3.428   4.859  1.2372 -1.4948 -2.5399
 9465TIP3   OH249809   3.016   0.815  11.830 -0.1555 -0.5250 -0.7490
 9465TIP3    H149810   3.002   0.721  11.815  0.2608 -0.9067  1.0400
 9465TIP3    H249811   3.090   0.837  11.774 -0.0869 -1.3327 -0.9949
 9466TIP3   OH249812   0.774   2.979   1.557  0.2749 -0.1025 -0.2531
 9466TIP3    H149813   0.865   2.995   1.580  0.5072  0.2360 -1.3807
 9466TIP3    H249814   0.776   2.905   1.497 -0.2612 -0.4953  0.1913
 9467TIP3   OH249815   1.187   0.834   0.973  0.0197  0.5596 -0.2144
 9467TIP3    H149816   1.158   0.775   0.903  0.0141  0.5599 -0.2123
 9467TIP3    H249817   1.270   0.798   1.002 -0.9911 -0.7238  1.2771
 9468TIP3   OH249818   3.737   0.711   3.895 -0.0244  0.9822 -0.5443
 9468TIP3    H149819   3.817   0.728   3.846  0.1044  1.9802 -0.0237
 9468TIP3    H249820   3.719   0.793   3.940  0.2841 -0.0997  1.6919
 9469TIP3   OH249821   3.272   3.736  14.397 -0.1707  0.5845  0.0424
 9469TIP3    H149822   3.303   3.827  14.396 -0.8282  0.9221  2.8673
 9469TIP3    H249823   3.192   3.738  14.343  0.4308  1.3948 -0.8564
 9470TIP3   OH249824   4.493   5.041   0.922 -0.3217  0.1753 -0.4938
 9470TIP3    H149825   4.553   5.106   0.885  0.2814 -0.5024 -0.7286
 9470TIP3    H249826   4.414   5.048   0.868  0.9807 -1.6842 -2.8494
 9471TIP3   OH249827   2.600   2.999  16.964 -0.2695 -0.0383  0.0616
 9471TIP3    H149828   2.541   3.037  16.899 -0.7180  0.0353  0.4999
 9471TIP3    H249829   2.681   2.982  16.916 -0.5054  0.2483 -0.4538
 9472TIP3   OH249830   2.812   5.165   3.971  0.6363  0.4421 -0.4877
 9472TIP3    H149831   2.863   5.222   3.914  0.0487  0.5691 -0.9001
 9472TIP3    H249832   2.722   5.173   3.939  0.2483  0.7091  0.6112
 9473TIP3   OH249833   1.213   0.740   5.812  0.4565  0.0543 -0.0409
 9473TIP3    H149834   1.258   0.687   5.746  0.9236 -0.3979  0.6220
 9473TIP3    H249835   1.252   0.826   5.805  1.3616 -0.3061  0.4507
 9474TIP3   OH249836   0.393   2.118  11.532  0.1512 -0.7644 -0.4020
 9474TIP3    H149837   0.308   2.112  11.577  0.1110  0.2041 -0.3157
 9474TIP3    H249838   0.384   2.193  11.473  0.6534 -1.2090 -1.0599
 9475TIP3   OH249839   3.227   0.250   2.871  0.3088  0.3932  0.2381
 9475TIP3    H149840   3.299   0.209   2.918  0.1327  0.5042  0.6124
 9475TIP3    H249841   3.191   0.180   2.816  0.8636  0.4093 -0.1491
 9476TIP3   OH249842   0.007   1.554  14.809 -0.4370  0.1101 -0.9105
 9476TIP3    H149843  -0.053   1.507  14.867  0.8027 -1.3467 -0.7640
 9476TIP3    H249844   0.062   1.605  14.868 -0.9374  0.7566 -0.9928
 9477TIP3   OH249845   2.092   2.802   3.723 -0.0207 -0.3309  0.1658
 9477TIP3    H149846   2.051   2.799   3.637 -1.1035  2.2848  0.4845
 9477TIP3    H249847   2.025   2.838   3.780  1.0199 -1.0211  1.9011
 9478TIP3   OH249848   3.011   3.227  11.357 -0.0510 -0.5363 -0.7219
 9478TIP3    H149849   2.953   3.189  11.292  0.3119 -2.1169 -0.1737
 9478TIP3    H249850   3.080   3.269  11.306  0.6138 -2.3592 -1.3942
 9479TIP3   OH249851   3.346   3.412  15.539  0.2414 -0.1999 -0.3335
 9479TIP3    H149852   3.389   3.488  15.579  0.6607  1.0661 -2.9723
 9479TIP3    H249853   3.382   3.337  15.585  0.4703  1.1159  1.7975
 9480TIP3   OH249854   4.933   1.455  15.339 -0.8433 -0.3028 -0.3685
 9480TIP3    H149855   4.851   1.463  15.289 -0.5439 -1.0378 -0.9819
 9480TIP3    H249856   4.959   1.364  15.328  0.9180  0.2933 -1.5304
 9481TIP3   OH249857   5.845   2.813  16.627  0.0102  0.1155 -0.0353
 9481TIP3    H149858   5.844   2.730  16.674  0.3325  0.4636  0.5977
 9481TIP3    H249859   5.760   2.853  16.646 -1.0182 -0.9628 -2.0139
 9482TIP3   OH249860   5.248   2.581  13.261 -0.5866  0.1821 -0.1031
 9482TIP3    H149861   5.237   2.674  13.239  0.9716  0.3414 -0.3103
 9482TIP3    H249862   5.307   2.547  13.193 -0.7633 -0.8477  0.2389
 9483TIP3   OH249863   1.107   1.648  12.105 -0.0283  0.6047  0.1849
 9483TIP3    H149864   1.177   1.699  12.064  0.7662  0.6488  1.5418
 9483TIP3    H249865   1.044   1.633  12.035  0.8078  1.5225 -0.7937
 9484TIP3   OH249866   2.356   3.128  15.884 -0.7192  0.0620 -0.2615
 9484TIP3    H149867   2.364   3.173  15.800 -1.8309 -0.4001 -0.6312
 9484TIP3    H249868   2.432   3.158  15.935 -1.9482  3.2102 -0.0762
 9485TIP3   OH249869   2.085   1.897   3.496 -0.0231  0.6254 -0.0826
 9485TIP3    H149870   2.118   1.875   3.409 -0.5960 -0.4585 -0.0355
 9485TIP3    H249871   2.139   1.846   3.556 -0.2629  0.6284  0.1378
 9486TIP3   OH249872   6.638   1.831   3.115  0.6856  0.1414  0.2564
 9486TIP3    H149873   6.553   1.862   3.145  1.1157  1.1095  0.5327
 9486TIP3    H249874   6.624   1.740   3.090 -0.4777  0.3597  0.0778
 9487TIP3   OH249875   4.441   5.468   1.773  0.7063  0.1159  0.1272
 9487TIP3    H149876   4.401   5.444   1.856 -0.5203 -1.4980 -0.8680
 9487TIP3    H249877   4.497   5.394   1.750  0.8815  0.4509 -0.5696
 9488TIP3   OH249878   1.235   3.846   0.643 -0.0077 -0.6803 -0.3433
 9488TIP3    H149879   1.318   3.853   0.595  0.4806  0.0427  0.5895
 9488TIP3    H249880   1.199   3.934   0.643 -0.3259 -0.8066  0.0620
 9489TIP3   OH249881   5.112   4.384  15.690 -0.1208 -0.0351  0.3594
 9489TIP3    H149882   5.132   4.292  15.673  0.9411  0.1243  0.6825
 9489TIP3    H249883   5.185   4.415  15.744 -1.9028  0.2458  2.7689
 9490TIP3   OH249884   0.188   3.791  11.407  0.0962 -0.1132 -0.2049
 9490TIP3    H149885   0.170   3.795  11.313  0.7674 -1.3125 -0.4114
 9490TIP3    H249886   0.277   3.825  11.416 -0.3328  0.9406  0.1352
 9491TIP3   OH249887   2.417   0.306  16.793  0.6889 -0.1650 -0.4730
 9491TIP3    H149888   2.334   0.286  16.750  0.6329 -0.2854 -0.3086
 9491TIP3    H249889   2.472   0.230  16.777  0.5918 -0.3105 -0.1436
 9492TIP3   OH249890   1.359   1.876  12.255  0.1719  0.2041  0.0315
 9492TIP3    H149891   1.453   1.879  12.276  0.2525 -0.5658 -0.1986
 9492TIP3    H249892   1.357   1.849  12.163 -0.2705  0.5523 -0.0623
 9493TIP3   OH249893   3.352   4.903   3.838 -0.1804 -0.4617  0.0488
 9493TIP3    H149894   3.307   4.863   3.764  0.4699 -2.0599  0.4649
 9493TIP3    H249895   3.297   4.881   3.914  0.1418 -0.5114  0.2728
 9494TIP3   OH249896   2.207   0.991   0.430 -0.0613 -0.2018 -0.1150
 9494TIP3    H149897   2.293   0.957   0.406 -0.2204 -0.2771 -0.5756
 9494TIP3    H249898   2.209   0.997   0.526  0.9590  1.1170 -0.1929
 9495TIP3   OH249899   5.399   6.394  13.148  0.0807 -0.0182  0.2146
 9495TIP3    H149900   5.447   6.377  13.067 -0.1764 -0.2644  0.1093
 9495TIP3    H249901   5.459   6.446  13.202 -0.6397  2.2484 -1.0820
 9496TIP3   OH249902   6.597   3.043   3.722  0.4473  0.5005 -0.1828
 9496TIP3    H149903   6.581   3.011   3.811 -0.2305 -1.4060 -0.9454
 9496TIP3    H249904   6.681   3.004   3.698 -0.0367 -0.1147 -0.8770
 9497TIP3   OH249905   0.864   3.473   0.256  0.1404  0.5100 -0.0711
 9497TIP3    H149906   0.860   3.382   0.287 -2.3077  0.5815  0.0184
 9497TIP3    H249907   0.914   3.468   0.174 -0.4944 -1.0197 -0.4023
 9498TIP3   OH249908   3.499   5.829   4.733  0.0251 -0.0032 -0.7239
 9498TIP3    H149909   3.458   5.907   4.769  0.0209 -0.9490  1.4840
 9498TIP3    H249910   3.578   5.861   4.690 -0.2860  1.2697 -0.3972
 9499TIP3   OH249911   5.891   5.738   2.678 -0.7936  0.1445  0.8247
 9499TIP3    H149912   5.938   5.773   2.603  1.8331 -0.9308  1.8671
 9499TIP3    H249913   5.861   5.651   2.649  0.8847 -0.5981  1.1792
 9500TIP3   OH249914   2.377   4.166  12.693  0.4828  0.5904  0.4634
 9500TIP3    H149915   2.413   4.078  12.681  1.1765  1.1741 -2.5342
 9500TIP3    H249916   2.400   4.188  12.783  1.1907 -1.8944  0.9831
 9501TIP3   OH249917   5.900   6.523   4.789 -0.0817  0.0257 -0.4512
 9501TIP3    H149918   5.805   6.532   4.800 -0.0926 -0.4626 -0.1553
 9501TIP3    H249919   5.910   6.471   4.709 -0.0408  0.8968 -1.0362
 9502TIP3   OH249920   2.330   3.441  14.399  0.1527 -0.2533 -0.2527
 9502TIP3    H149921   2.352   3.530  14.424 -0.6480 -0.2833  0.6143
 9502TIP3    H249922   2.413   3.393  14.404  0.7297  0.5775 -1.4299
 9503TIP3   OH249923   0.742   2.075  10.949  0.0106 -0.2418 -0.2836
 9503TIP3    H149924   0.698   2.159  10.931 -0.4036 -0.4946 -0.4775
 9503TIP3    H249925   0.673   2.009  10.936  0.3286 -0.6107 -0.1131
 9504TIP3   OH249926   3.386   5.734   1.710 -0.1935  0.6909  0.3485
 9504TIP3    H149927   3.454   5.782   1.664  0.1992  0.3465  0.5693
 9504TIP3    H249928   3.411   5.642   1.701  0.5584  0.6688  2.2835
 9505TIP3   OH249929   4.080   0.286   3.880  0.1227 -0.2832 -0.1035
 9505TIP3    H149930   4.113   0.283   3.969  1.5228 -0.4775 -0.6097
 9505TIP3    H249931   4.070   0.194   3.855 -1.0998 -0.2345  0.1271
 9506TIP3   OH249932   3.785   5.471   2.214 -0.0255  0.1023  0.1029
 9506TIP3    H149933   3.724   5.519   2.271  1.0942  0.1389  1.3171
 9506TIP3    H249934   3.808   5.392   2.263  0.5847 -0.1130 -0.5082
 9507TIP3   OH249935   6.478   5.163  12.649 -0.1606  0.1000  0.7512
 9507TIP3    H149936   6.538   5.178  12.722  0.5538  0.4262  0.1121
 9507TIP3    H249937   6.448   5.073  12.661  1.4548 -0.5159  0.3728
 9508TIP3   OH249938   3.034   1.453  16.041 -0.4454 -0.4051 -0.3873
 9508TIP3    H149939   3.029   1.403  15.959 -1.9922 -0.3338 -0.3648
 9508TIP3    H249940   3.084   1.531  16.019 -0.7951 -0.4150 -1.2631
 9509TIP3   OH249941   0.739   6.597   3.358  0.2074  0.2905 -0.4112
 9509TIP3    H149942   0.807   6.615   3.423  0.5903 -0.9565 -0.4399
 9509TIP3    H249943   0.660   6.580   3.409  0.2478  0.3921 -0.3154
 9510TIP3   OH249944   5.219   0.297  13.010  0.0956  0.3530 -0.4558
 9510TIP3    H149945   5.226   0.385  13.048  1.1083  0.2393 -0.3395
 9510TIP3    H249946   5.135   0.264  13.042 -1.1183  1.8974 -1.8762
 9511TIP3   OH249947   0.940   3.363   5.903  0.6805  0.3533 -0.4402
 9511TIP3    H149948   0.915   3.279   5.942 -0.3393  0.4608 -0.8094
 9511TIP3    H249949   1.024   3.384   5.942  0.2727 -0.1512  0.7527
 9512TIP3   OH249950   1.204   4.146   5.322 -0.2052 -0.6585  0.0626
 9512TIP3    H149951   1.241   4.200   5.392 -1.2531 -0.2159  0.2955
 9512TIP3    H249952   1.228   4.192   5.241  0.1474 -0.6370  0.1739
 9513TIP3   OH249953   5.555   4.852  12.720 -0.3326 -0.0012 -0.3390
 9513TIP3    H149954   5.574   4.930  12.668  0.0783 -0.4821 -0.9246
 9513TIP3    H249955   5.612   4.785  12.683 -0.8709 -0.6448 -0.0067
 9514TIP3   OH249956   2.184   1.247   2.642 -0.6289 -0.6023 -0.8974
 9514TIP3    H149957   2.110   1.190   2.623 -1.1887 -0.0763 -0.3483
 9514TIP3    H249958   2.228   1.259   2.558 -0.1033 -2.3852 -0.9031
 9515TIP3   OH249959   0.226   2.984   2.131 -0.3859  0.1014  0.1149
 9515TIP3    H149960   0.273   3.056   2.173  0.0236  0.4194 -0.8411
 9515TIP3    H249961   0.173   2.945   2.200 -1.1204  1.7328  0.5115
 9516TIP3   OH249962   1.289   5.117  13.323  0.3756  0.3860 -0.0839
 9516TIP3    H149963   1.372   5.069  13.314 -0.8138 -1.7974 -0.1990
 9516TIP3    H249964   1.232   5.077  13.257 -0.6231  2.2418 -0.3954
 9517TIP3   OH249965   1.764   0.673  11.599 -0.2883  0.0725 -0.1723
 9517TIP3    H149966   1.726   0.652  11.685  0.6366  0.1912  0.2798
 9517TIP3    H249967   1.764   0.590  11.552  0.4062 -0.2788  0.4312
 9518TIP3   OH249968   0.602   2.165  15.399 -0.1357  0.6803 -0.0544
 9518TIP3    H149969   0.678   2.168  15.342 -0.4848  0.7830 -0.5274
 9518TIP3    H249970   0.604   2.078  15.438 -0.6257  0.0854 -1.2760
 9519TIP3   OH249971   5.055   4.681   4.932 -0.7269  0.4858 -0.1038
 9519TIP3    H149972   5.041   4.725   5.016 -1.9312  0.5039 -0.3044
 9519TIP3    H249973   5.086   4.594   4.955 -3.3372 -0.3746  0.4734
 9520TIP3   OH249974   3.694   5.164   1.639  0.5996  0.3298  0.1517
 9520TIP3    H149975   3.606   5.185   1.610  0.1207  0.2863  1.5202
 9520TIP3    H249976   3.751   5.221   1.587 -0.4106  2.2381  1.0492
 9521TIP3   OH249977   5.789   3.700   0.937  0.1242 -0.7696 -0.0287
 9521TIP3    H149978   5.769   3.793   0.948  0.7038 -0.5298 -0.9023
 9521TIP3    H249979   5.825   3.673   1.021 -1.1976 -0.5229  0.6519
 9522TIP3   OH249980   5.596   4.320  16.847  1.0381  0.0816 -0.0849
 9522TIP3    H149981   5.639   4.376  16.783  1.2160 -0.4542 -0.4442
 9522TIP3    H249982   5.588   4.235  16.803  0.6440 -0.1362  0.3943
 9523TIP3   OH249983   1.058   4.324  13.742  0.2164 -0.6664 -0.2371
 9523TIP3    H149984   1.035   4.412  13.712  0.4702 -0.6356 -0.3417
 9523TIP3    H249985   1.153   4.319  13.733  0.1832 -1.0225 -0.4305
 9524TIP3   OH249986   1.668   6.737  15.878  0.5165  0.5759  0.1385
 9524TIP3    H149987   1.585   6.773  15.846 -0.5579 -0.8359  1.2256
 9524TIP3    H249988   1.687   6.664  15.819  0.7668  0.6214  0.1614
 9525TIP3   OH249989   2.792   1.771  13.715 -0.8092  0.2406 -0.4253
 9525TIP3    H149990   2.839   1.689  13.727 -2.6666 -1.2145 -2.4149
 9525TIP3    H249991   2.702   1.752  13.738 -0.8436  2.5970  1.9485
 9526TIP3   OH249992   6.168   4.983  13.705  0.3107 -0.1492  0.6599
 9526TIP3    H149993   6.137   5.048  13.643 -0.5374 -1.9338 -0.8679
 9526TIP3    H249994   6.260   4.971  13.684  0.4680  0.5025  0.9395
 9527TIP3   OH249995   4.633   3.118  15.423  0.5049 -0.3819 -0.2716
 9527TIP3    H149996   4.694   3.170  15.371 -0.6562  2.3063  0.8659
 9527TIP3    H249997   4.679   3.103  15.506  1.0556 -1.7631 -0.7923
 9528TIP3   OH249998   5.985   6.539   3.937 -0.8150 -0.0751  0.0095
 9528TIP3    H149999   5.950   6.628   3.946  0.8385  0.8228 -1.7121
 9528TIP3    H250000   5.972   6.518   3.845 -0.5411 -1.3458  0.2465
 9529TIP3   OH250001   5.311   3.715   0.301  0.0318 -0.1180 -0.0886
 9529TIP3    H150002   5.247   3.760   0.356  0.5998 -0.8901  1.2554
 9529TIP3    H250003   5.265   3.698   0.219 -0.8059  1.1576  0.0914
 9530TIP3   OH250004   6.651   4.635  12.200 -0.0505 -0.1665 -0.0548
 9530TIP3    H150005   6.626   4.665  12.113  2.0878 -1.9311 -1.3805
 9530TIP3    H250006   6.737   4.674  12.216 -0.2230 -0.2063  1.0834
 9531TIP3   OH250007   0.811   5.082  14.771  0.2342  0.4021  0.0876
 9531TIP3    H150008   0.748   5.012  14.788  0.6686 -0.0450 -0.1363
 9531TIP3    H250009   0.895   5.038  14.762  0.3485  0.8194 -1.1403
 9532TIP3   OH250010   5.716   2.992   6.493 -0.0427 -0.3972 -0.0440
 9532TIP3    H150011   5.722   3.058   6.424 -0.3421 -1.5144 -1.1811
 9532TIP3    H250012   5.622   2.987   6.513  0.0678  0.1208  0.6830
 9533TIP3   OH250013   6.194   1.127   1.116  0.5824 -0.0506  0.5647
 9533TIP3    H150014   6.216   1.055   1.058  0.5428  0.8004 -0.5504
 9533TIP3    H250015   6.200   1.091   1.204  0.0987 -1.5229  0.0130
 9534TIP3   OH250016   6.348   4.618  15.628 -0.2009  0.3744 -0.0792
 9534TIP3    H150017   6.401   4.671  15.569  1.7646 -0.2022  1.0747
 9534TIP3    H250018   6.328   4.539  15.577 -1.2478  1.2303 -1.0322
 9535TIP3   OH250019   5.687   2.592   5.061 -0.1055 -0.4233 -0.1242
 9535TIP3    H150020   5.642   2.562   4.982  0.1773 -1.5779  0.1328
 9535TIP3    H250021   5.767   2.633   5.029 -1.1456  1.3431 -0.5644
 9536TIP3   OH250022   5.939   3.741   6.554 -0.0497  0.5099 -0.2591
 9536TIP3    H150023   5.851   3.727   6.589 -0.1613  0.7028 -0.4608
 9536TIP3    H250024   5.996   3.739   6.631  0.0298 -1.6151 -0.3214
 9537TIP3   OH250025   0.891   2.145  13.391  0.1026 -0.3994 -0.1275
 9537TIP3    H150026   0.812   2.163  13.340 -0.3395 -0.4798  0.5262
 9537TIP3    H250027   0.963   2.159  13.329 -0.3216  1.4084 -0.2825
 9538TIP3   OH250028   0.204   6.684   3.177 -0.0911  0.0235 -0.7063
 9538TIP3    H150029   0.199   6.638   3.261  0.0769  0.2461 -0.5735
 9538TIP3    H250030   0.257   6.627   3.121 -1.2356 -0.7341 -1.0647
 9539TIP3   OH250031   1.521   2.457   1.951  0.1566 -0.9305  0.2867
 9539TIP3    H150032   1.498   2.491   2.037 -0.9204 -0.4326 -0.1805
 9539TIP3    H250033   1.509   2.531   1.892  1.6122 -1.0521 -0.2059
 9540TIP3   OH250034   6.513   0.524  15.365  0.3286  0.0042 -0.5494
 9540TIP3    H150035   6.492   0.617  15.355 -1.2488 -0.1329  0.9893
 9540TIP3    H250036   6.431   0.478  15.346  0.4551 -0.9078  0.8947
 9541TIP3   OH250037   4.292   3.104   1.758  0.2320  1.0385 -0.1544
 9541TIP3    H150038   4.258   3.193   1.751 -0.7884  0.7444  0.7671
 9541TIP3    H250039   4.217   3.051   1.783  0.8906 -0.0394 -0.3619
 9542TIP3   OH250040   1.116   1.709   5.556  0.8228  1.7762 -0.0346
 9542TIP3    H150041   1.105   1.652   5.479  1.0283  1.0174  0.4846
 9542TIP3    H250042   1.062   1.786   5.537  0.7339  1.5228 -0.8612
 9543TIP3   OH250043   2.851   4.028   5.657 -0.1904 -0.0622  0.4824
 9543TIP3    H150044   2.790   4.004   5.588  0.4833  0.1067 -0.1829
 9543TIP3    H250045   2.861   3.948   5.709  0.3322 -0.5906 -0.4065
 9544TIP3   OH250046   2.338   5.860   2.366 -0.0137 -0.3084  0.6657
 9544TIP3    H150047   2.399   5.840   2.295  0.8339  0.4833  1.1498
 9544TIP3    H250048   2.264   5.903   2.322  0.3815 -0.0546  0.2410
 9545TIP3   OH250049   3.833   1.694  14.124 -0.3803 -0.0079  0.2360
 9545TIP3    H150050   3.860   1.715  14.034 -2.2086  1.6073 -0.0363
 9545TIP3    H250051   3.737   1.686  14.118 -0.3045 -3.0238  1.5117
 9546TIP3   OH250052   3.277   2.386  11.785 -0.3499 -0.1636 -0.2635
 9546TIP3    H150053   3.247   2.384  11.695  0.9102 -1.4770 -0.6907
 9546TIP3    H250054   3.351   2.447  11.784  0.0935 -0.6989 -0.2677
 9547TIP3   OH250055   2.570   1.193  16.641  0.5380  0.4966  0.0051
 9547TIP3    H150056   2.486   1.172  16.601  0.0144  1.0105  0.8121
 9547TIP3    H250057   2.592   1.279  16.606 -0.2486  1.2524  1.2952
 9548TIP3   OH250058   5.751   3.203   0.989 -0.0290  0.5127 -0.1762
 9548TIP3    H150059   5.744   3.147   0.912  0.7734  2.3711 -1.6917
 9548TIP3    H250060   5.829   3.257   0.972  0.3268  0.7880  2.0818
 9549TIP3   OH250061   2.321   2.364   0.991 -0.0836  0.0764  0.5864
 9549TIP3    H150062   2.416   2.352   0.984 -0.0312  1.0099 -0.6319
 9549TIP3    H250063   2.302   2.352   1.084  1.0742 -1.1163  0.7003
 9550TIP3   OH250064   4.586   3.515   4.960  0.1789 -0.1800  0.2207
 9550TIP3    H150065   4.643   3.441   4.977  2.5208  1.2804 -0.7013
 9550TIP3    H250066   4.519   3.481   4.901 -0.3922 -2.1262  1.8913
 9551TIP3   OH250067   3.159   4.922  12.048  0.2185  0.2232 -0.0206
 9551TIP3    H150068   3.170   4.892  12.138  1.8630 -0.9421 -0.5732
 9551TIP3    H250069   3.189   4.849  11.994 -1.5557  0.5443 -1.5743
 9552TIP3   OH250070   5.521   4.536   4.902  0.4227 -0.4005  0.1303
 9552TIP3    H150071   5.485   4.601   4.961  1.0135  0.1912 -0.1435
 9552TIP3    H250072   5.600   4.505   4.947 -0.6367 -2.0455  0.9576
 9553TIP3   OH250073   0.513   2.969  12.135 -0.3486 -0.1403  0.1251
 9553TIP3    H150074   0.445   3.004  12.077 -1.9259 -2.3569  0.4789
 9553TIP3    H250075   0.550   2.895  12.087  0.9821  0.2965  0.4458
 9554TIP3   OH250076   2.545   4.252  17.267 -1.1577 -0.0214 -0.0791
 9554TIP3    H150077   2.502   4.183  17.217 -0.4936 -0.2001 -0.4131
 9554TIP3    H250078   2.474   4.296  17.313 -1.7246 -0.1237 -0.8503
 9555TIP3   OH250079   2.585   2.470  12.835  0.4109 -0.0755 -0.0926
 9555TIP3    H150080   2.516   2.509  12.782 -0.7584 -2.1287 -0.2087
 9555TIP3    H250081   2.549   2.386  12.863  2.8404 -1.2070 -0.0831
 9556TIP3   OH250082   2.641   0.608   4.604 -0.2548  0.6047 -0.3584
 9556TIP3    H150083   2.607   0.527   4.642 -1.0624  0.2029 -1.8414
 9556TIP3    H250084   2.673   0.658   4.678 -0.0063 -0.9470  0.6278
 9557TIP3   OH250085   0.800   4.433   2.740  0.5231  0.4147 -0.3850
 9557TIP3    H150086   0.731   4.367   2.735  1.4902 -0.6377 -0.1921
 9557TIP3    H250087   0.783   4.491   2.667 -0.7120  0.3175 -0.1903
 9558TIP3   OH250088   3.887   6.331  11.437  0.1947  0.3225  0.3280
 9558TIP3    H150089   3.844   6.246  11.428 -1.1125  1.0602 -0.6029
 9558TIP3    H250090   3.873   6.355  11.528 -0.2094 -0.0512  0.3677
 9559TIP3   OH250091   4.169   6.015  15.184  0.2000  0.1344  0.3517
 9559TIP3    H150092   4.187   5.998  15.091  0.4173  0.2857  0.3655
 9559TIP3    H250093   4.080   6.048  15.186  0.3937  0.6758  0.1358
 9560TIP3   OH250094   2.624   6.576  15.497 -0.2606 -0.5991  0.4163
 9560TIP3    H150095   2.695   6.639  15.483  1.0413 -1.9386  0.6287
 9560TIP3    H250096   2.580   6.570  15.412 -0.1527  0.2965  0.2918
 9561TIP3   OH250097   5.254   2.947   6.056  0.5231 -0.2818 -0.0436
 9561TIP3    H150098   5.294   2.956   5.970  1.5459 -0.5603  0.3946
 9561TIP3    H250099   5.212   3.032   6.072  1.5253  0.2650 -0.2225
 9562TIP3   OH250100   2.500   0.176  15.173 -0.1273  0.2926  0.2426
 9562TIP3    H150101   2.553   0.194  15.251 -0.4001 -1.4852  0.9028
 9562TIP3    H250102   2.410   0.169  15.206 -0.5287  1.3539 -0.5567
 9563TIP3   OH250103   4.803   5.775  16.155 -0.5094 -0.7594  0.5572
 9563TIP3    H150104   4.769   5.844  16.098 -1.0708 -0.2431  1.4861
 9563TIP3    H250105   4.808   5.698  16.099 -0.9501 -0.2403 -0.2196
 9564TIP3   OH250106   1.354   0.314   4.409 -0.0849 -0.1191 -0.2063
 9564TIP3    H150107   1.310   0.363   4.479 -0.8254  0.3277 -0.9543
 9564TIP3    H250108   1.402   0.245   4.454  1.2909  1.4824  0.9380
 9565TIP3   OH250109   0.611   2.391  14.482  0.1029 -0.1830 -0.1589
 9565TIP3    H150110   0.538   2.417  14.426 -1.4537 -1.0956  1.3359
 9565TIP3    H250111   0.595   2.298  14.501  2.2057 -0.6807 -0.5399
 9566TIP3   OH250112   4.984   3.050  11.461 -0.2387 -0.5110 -0.2951
 9566TIP3    H150113   5.020   3.037  11.549  1.2322 -0.7902 -0.9063
 9566TIP3    H250114   4.933   3.130  11.468 -2.2598 -1.8260  1.4229
 9567TIP3   OH250115   2.570   0.921   6.098 -0.2718  0.1010 -0.0787
 9567TIP3    H150116   2.527   0.901   6.182 -0.6407  0.4529 -0.1784
 9567TIP3    H250117   2.498   0.948   6.041  0.1632  1.5116 -0.0093
 9568TIP3   OH250118   1.269   2.480  15.397  0.5595  0.2932  0.3939
 9568TIP3    H150119   1.287   2.566  15.358  0.3206  0.8717  1.5061
 9568TIP3    H250120   1.354   2.450  15.430  0.3051  1.1235  1.9318
 9569TIP3   OH250121   1.797   6.199   1.096 -0.0125  0.2370 -0.3871
 9569TIP3    H150122   1.871   6.164   1.047  0.2598 -0.7379  0.6850
 9569TIP3    H250123   1.779   6.283   1.054  0.6558 -0.2392 -1.6875
 9570TIP3   OH250124   2.285   6.176  15.286 -0.2020  0.2771 -0.3987
 9570TIP3    H150125   2.367   6.160  15.333 -0.1466  0.9127 -0.2821
 9570TIP3    H250126   2.298   6.259  15.241 -0.3069 -0.2353 -1.4309
 9571TIP3   OH250127   3.284   2.506   0.240  0.6969 -0.0258  0.1365
 9571TIP3    H150128   3.370   2.489   0.203  1.3703  1.0026  1.1452
 9571TIP3    H250129   3.271   2.600   0.228 -1.4039 -0.5226 -2.2417
 9572TIP3   OH250130   3.234   3.983   4.250 -0.5276  0.1949 -0.3157
 9572TIP3    H150131   3.251   3.898   4.292 -1.2083 -0.3715 -1.1552
 9572TIP3    H250132   3.250   4.047   4.319 -2.0223 -0.7307  0.9573
 9573TIP3   OH250133   1.897   5.744   4.168  0.9256  0.5053  0.8761
 9573TIP3    H150134   1.980   5.753   4.215  0.6918  1.2202  1.1699
 9573TIP3    H250135   1.833   5.722   4.236  0.8241  0.2242  0.6910
 9574TIP3   OH250136   1.872   0.041   5.187  0.0432  0.3633  0.7786
 9574TIP3    H150137   1.837   0.028   5.275  0.3912 -3.1981  0.5037
 9574TIP3    H250138   1.795   0.045   5.130 -0.0994 -0.7344  0.8897
 9575TIP3   OH250139   6.718   3.216   2.952  0.4084 -0.0735  0.1185
 9575TIP3    H150140   6.724   3.205   3.047  0.6424  0.5029  0.1720
 9575TIP3    H250141   6.690   3.130   2.920  2.9912 -1.0995  0.4292
 9576TIP3   OH250142   5.925   6.481  11.830 -0.2744 -0.4240  0.0382
 9576TIP3    H150143   5.864   6.441  11.768  1.1299 -2.3287 -0.1967
 9576TIP3    H250144   6.001   6.506  11.777  0.2669 -0.5577  0.7321
 9577TIP3   OH250145   2.551   2.599   2.404  0.6018 -0.0921  0.2351
 9577TIP3    H150146   2.528   2.666   2.468 -1.6104 -1.2055  0.7099
 9577TIP3    H250147   2.609   2.539   2.451  0.3359  0.0085  0.6928
 9578TIP3   OH250148   4.581   2.378   5.572 -0.1369  0.2226  0.4435
 9578TIP3    H150149   4.505   2.321   5.586 -0.2070  0.5069  1.2871
 9578TIP3    H250150   4.627   2.338   5.498 -1.2058  0.1548 -0.2142
 9579TIP3   OH250151   3.777   3.448   2.762 -0.1717  0.1441  0.3498
 9579TIP3    H150152   3.792   3.524   2.705 -1.2643 -0.1509 -0.3598
 9579TIP3    H250153   3.711   3.479   2.825 -0.6011 -0.2018  0.0736
 9580TIP3   OH250154   2.453   3.377  12.724  0.3625 -0.6478 -0.6382
 9580TIP3    H150155   2.373   3.391  12.673  2.0808 -0.3813 -3.4851
 9580TIP3    H250156   2.433   3.300  12.778 -2.7093  1.0887  0.9577
 9581TIP3   OH250157   2.960   0.889   6.661  0.2874 -0.1702  0.2032
 9581TIP3    H150158   3.001   0.913   6.744  1.5917 -0.2002 -0.4168
 9581TIP3    H250159   3.032   0.863   6.605 -0.7213 -1.8971 -0.3811
 9582TIP3   OH250160   3.457   0.801  11.429  0.1822  0.3804  0.2412
 9582TIP3    H150161   3.439   0.891  11.404  1.4695  0.2259 -1.4727
 9582TIP3    H250162   3.409   0.788  11.510 -2.4417  1.6791 -0.9949
 9583TIP3   OH250163   5.842   3.485   5.857 -0.4061  0.1814  0.2811
 9583TIP3    H150164   5.931   3.496   5.889 -0.2009  0.8174 -0.4803
 9583TIP3    H250165   5.821   3.394   5.876 -0.0630  0.3618  1.6119
 9584TIP3   OH250166   0.143   6.646  12.142 -0.7744  0.6154 -0.2454
 9584TIP3    H150167   0.106   6.570  12.185  0.0094 -1.0636 -2.3437
 9584TIP3    H250168   0.229   6.658  12.183  0.1366 -1.2176 -1.4727
 9585TIP3   OH250169   4.207   1.133   3.847  0.7131  0.0025  0.4912
 9585TIP3    H150170   4.201   1.076   3.923  1.2905 -0.5455  0.1371
 9585TIP3    H250171   4.295   1.118   3.812  0.5996  0.5411 -0.0531
 9586TIP3   OH250172   5.305   6.182   5.349  0.4647 -0.3841  0.6619
 9586TIP3    H150173   5.212   6.204   5.338  0.4253 -1.3938 -1.7651
 9586TIP3    H250174   5.306   6.113   5.414 -0.6959 -1.3904 -0.3417
 9587TIP3   OH250175   4.436   0.460   0.168 -0.4760 -0.5710  0.9082
 9587TIP3    H150176   4.462   0.551   0.181 -2.1956 -0.0807  1.1826
 9587TIP3    H250177   4.399   0.434   0.252  0.5434 -1.7433  1.0177
 9588TIP3   OH250178   3.665   3.330  17.054 -0.3644  0.2740 -0.0945
 9588TIP3    H150179   3.673   3.359  16.964 -2.9860  0.7828 -0.2557
 9588TIP3    H250180   3.669   3.410  17.106  2.4684 -0.1237  0.4454
 9589TIP3   OH250181   5.761   1.263   0.564  0.4207  0.0164  0.5086
 9589TIP3    H150182   5.670   1.290   0.573  0.1839 -0.8925  0.9788
 9589TIP3    H250183   5.789   1.241   0.653  1.4198  1.2280  0.5298
 9590TIP3   OH250184   0.864   5.975  12.243 -0.0321  0.7421  0.5387
 9590TIP3    H150185   0.863   6.030  12.321  0.9712 -0.1462  1.2170
 9590TIP3    H250186   0.793   6.008  12.189 -3.2937 -0.8556  3.3854
 9591TIP3   OH250187   3.310   3.262  12.716  0.4098  0.7388 -0.1249
 9591TIP3    H150188   3.326   3.252  12.622  1.6768  0.9531  0.0468
 9591TIP3    H250189   3.216   3.279  12.723  0.3268  0.8676 -1.3639
 9592TIP3   OH250190   4.342   0.367  16.514  0.2449  0.6030  0.1764
 9592TIP3    H150191   4.301   0.410  16.440  0.5809  1.0309  0.2329
 9592TIP3    H250192   4.288   0.389  16.589 -0.0236  0.2745  0.0813
 9593TIP3   OH250193   1.867   2.980  12.702 -0.4744 -0.0283 -0.6642
 9593TIP3    H150194   1.813   2.972  12.780 -1.8652 -2.9417 -1.7650
 9593TIP3    H250195   1.952   2.945  12.727 -0.4169  0.5320 -0.0611
 9594TIP3   OH250196   6.361   5.875   4.095  0.6303  0.4576 -0.4498
 9594TIP3    H150197   6.451   5.906   4.088  0.7357  0.2730  0.0069
 9594TIP3    H250198   6.340   5.843   4.008  1.7824 -1.5529 -0.0580
 9595TIP3   OH250199   2.082   0.145   2.061  0.3881  0.2946  0.0562
 9595TIP3    H150200   2.022   0.073   2.079 -1.2715  1.4348 -0.6526
 9595TIP3    H250201   2.169   0.107   2.069 -0.4323 -1.9960 -1.0443
 9596TIP3   OH250202   0.366   1.749   2.454 -0.1720  0.1229 -0.3370
 9596TIP3    H150203   0.431   1.808   2.491 -0.4195 -0.1030  0.4712
 9596TIP3    H250204   0.350   1.783   2.366  0.2257  0.8242 -0.1434
 9597TIP3   OH250205   3.148   6.678   0.783  0.5477  0.0462  0.2275
 9597TIP3    H150206   3.107   6.597   0.815 -0.6221  1.0312  1.3243
 9597TIP3    H250207   3.219   6.695   0.844  2.1931 -1.2249 -1.2123
 9598TIP3   OH250208   0.077   4.827   0.391 -0.0993  0.0302 -0.8046
 9598TIP3    H150209   0.130   4.763   0.343 -1.4462 -1.9818  0.2557
 9598TIP3    H250210   0.046   4.888   0.325  0.0737 -1.2378 -2.0855
 9599TIP3   OH250211   2.730   2.292   5.837  0.5679 -0.7964  0.0317
 9599TIP3    H150212   2.732   2.262   5.746 -0.5766  0.0563 -0.3029
 9599TIP3    H250213   2.640   2.274   5.866  0.8038 -0.6849  0.8605
 9600TIP3   OH250214   3.059   4.049   0.662  0.0731 -0.0235  0.7896
 9600TIP3    H150215   3.121   3.999   0.608 -0.2929  0.2104  0.1429
 9600TIP3    H250216   2.979   3.995   0.662  0.2242 -0.2502  1.4923
 9601TIP3   OH250217   2.625   5.995  12.806  0.2787 -0.3580 -0.5421
 9601TIP3    H150218   2.630   6.058  12.734 -0.0998 -2.0109 -2.0804
 9601TIP3    H250219   2.561   5.931  12.777 -0.2301 -0.8412  1.4991
 9602TIP3   OH250220   6.704   3.987   1.404  0.4445  0.2440 -0.3398
 9602TIP3    H150221   6.654   4.069   1.410 -0.9720 -0.6688  1.4356
 9602TIP3    H250222   6.736   3.973   1.494 -2.5142 -2.9759  0.4267
 9603TIP3   OH250223   6.452   3.828  16.010 -0.2024  0.4625  0.3669
 9603TIP3    H150224   6.513   3.882  15.961  0.4190 -0.6813 -0.1699
 9603TIP3    H250225   6.366   3.857  15.982  0.1211  1.1103  0.0293
 9604TIP3   OH250226   2.255   0.630   3.300  0.0935  0.2583 -0.9195
 9604TIP3    H150227   2.289   0.636   3.210  1.1439 -2.1284 -0.7593
 9604TIP3    H250228   2.317   0.681   3.352  0.2268  0.5791 -1.3766
 9605TIP3   OH250229   2.504   6.779   5.847 -0.0754  0.7299 -0.8020
 9605TIP3    H150230   2.547   6.715   5.903 -1.6785  1.2972  1.2126
 9605TIP3    H250231   2.479   6.730   5.769  1.2120 -0.3938 -0.5343
 9606TIP3   OH250232   2.633   3.350  11.822  0.4635  0.7587  0.0250
 9606TIP3    H150233   2.587   3.282  11.774  0.7420  0.9507 -0.5266
 9606TIP3    H250234   2.577   3.369  11.897  0.5164 -0.2618  0.3319
 9607TIP3   OH250235   6.283   0.500  15.232  0.8606  0.2442  0.7376
 9607TIP3    H150236   6.285   0.516  15.138 -0.5606  0.9962  0.8022
 9607TIP3    H250237   6.219   0.563  15.266 -0.8798 -1.9221  1.8057
 9608TIP3   OH250238   5.028   2.864   3.653  0.0209 -0.2978 -0.7024
 9608TIP3    H150239   5.102   2.836   3.708 -0.5720  0.6377  0.6308
 9608TIP3    H250240   5.058   2.849   3.564  1.5379 -0.6396 -0.1787
 9609TIP3   OH250241   2.331   0.188   3.413  0.2512 -0.7041 -0.0570
 9609TIP3    H150242   2.361   0.098   3.417  1.6730 -0.3531 -1.8743
 9609TIP3    H250243   2.403   0.239   3.450 -0.4969 -0.2860  0.8566
 9610TIP3   OH250244   6.513   5.444   0.754  0.3053 -0.5621 -0.6064
 9610TIP3    H150245   6.498   5.460   0.661  0.1776 -0.1204 -0.5151
 9610TIP3    H250246   6.528   5.350   0.761 -2.1404 -1.0258 -0.7494
 9611TIP3   OH250247   1.623   3.806  14.164  0.8363 -0.2202  0.2852
 9611TIP3    H150248   1.637   3.893  14.127  0.4206 -0.4326 -0.3970
 9611TIP3    H250249   1.528   3.791  14.154  1.0755 -1.2235 -0.6984
 9612TIP3   OH250250   0.400   5.770   2.439 -0.4303  0.0557  0.2506
 9612TIP3    H150251   0.449   5.709   2.494 -2.0769 -0.1098  1.6294
 9612TIP3    H250252   0.402   5.852   2.487 -0.1455  0.4875 -0.4871
 9613TIP3   OH250253   5.779   0.621   5.251 -0.0248  0.7375  0.7421
 9613TIP3    H150254   5.854   0.672   5.220  0.1553  0.3669  0.5603
 9613TIP3    H250255   5.816   0.560   5.314 -0.2649  0.9343  1.0767
 9614TIP3   OH250256   4.141   1.552   1.927  0.1717  0.3370 -0.2760
 9614TIP3    H150257   4.066   1.556   1.867  1.4830 -0.2485 -2.0432
 9614TIP3    H250258   4.104   1.522   2.010 -1.7382  1.3084 -0.7211
 9615TIP3   OH250259   4.801   6.577  13.330 -0.0362  0.4478  0.3972
 9615TIP3    H150260   4.738   6.648  13.320 -1.1150 -0.3111  1.4715
 9615TIP3    H250261   4.884   6.620  13.350 -0.1464  1.4709 -1.1688
 9616TIP3   OH250262   4.851   6.616  14.659 -0.5115  0.1766 -0.2988
 9616TIP3    H150263   4.823   6.612  14.568 -1.1971  1.5582 -0.1676
 9616TIP3    H250264   4.809   6.694  14.694 -2.0934 -1.5095  1.8432
 9617TIP3   OH250265   6.112   4.076  16.582 -0.1818 -0.0890  0.1525
 9617TIP3    H150266   6.164   4.031  16.650  0.9561  0.8997 -0.0233
 9617TIP3    H250267   6.051   4.131  16.631 -0.1886 -0.2865  0.3688
 9618TIP3   OH250268   1.348   3.641  15.292 -0.0908 -0.1564  0.2646
 9618TIP3    H150269   1.365   3.696  15.216  1.7589 -0.9606  0.0423
 9618TIP3    H250270   1.279   3.581  15.264  0.3289 -0.2151 -0.6708
 9619TIP3   OH250271   5.631   3.636   5.237  0.0323  0.2368  0.2385
 9619TIP3    H150272   5.617   3.696   5.311 -3.5785 -0.0648 -0.0564
 9619TIP3    H250273   5.723   3.610   5.245  0.2427  1.5368  3.6135
 9620TIP3   OH250274   1.950   2.234   6.054  0.3768  0.0148 -0.1689
 9620TIP3    H150275   1.975   2.290   6.128 -1.2957  0.4843  0.0766
 9620TIP3    H250276   1.973   2.286   5.977 -0.3859  0.7094  0.0564
 9621TIP3   OH250277   6.538   0.169   0.532  0.6390 -0.0962  0.0259
 9621TIP3    H150278   6.480   0.097   0.508  0.7221  0.0853 -0.7578
 9621TIP3    H250279   6.527   0.233   0.462  0.7160  0.5720  0.6130
 9622TIP3   OH250280   1.147   3.008  12.482  0.0606  0.5633 -0.0015
 9622TIP3    H150281   1.081   2.942  12.502  0.2686  0.8200  1.7164
 9622TIP3    H250282   1.228   2.957  12.470 -0.3572  0.2695 -1.8977
 9623TIP3   OH250283   6.145   6.395  13.263  0.1176  0.1932 -0.6202
 9623TIP3    H150284   6.118   6.352  13.344 -0.9815  0.0899 -1.0148
 9623TIP3    H250285   6.167   6.484  13.290 -0.3662  0.1992 -0.2184
 9624TIP3   OH250286   2.579   2.701  14.984 -0.5615  0.0643 -0.2533
 9624TIP3    H150287   2.516   2.632  15.005 -0.8070  0.4390  0.2950
 9624TIP3    H250288   2.660   2.674  15.027 -1.4193  1.4896  2.5280
 9625TIP3   OH250289   4.085   2.130   5.160 -0.3519  0.2104 -0.4722
 9625TIP3    H150290   4.152   2.083   5.111  0.8171 -0.0375  1.2633
 9625TIP3    H250291   4.035   2.177   5.093  1.2743  0.0657 -1.8677
 9626TIP3   OH250292   6.362   6.227   5.479 -0.0640  0.2956 -1.0457
 9626TIP3    H150293   6.281   6.198   5.521  0.4510  1.4738  0.9019
 9626TIP3    H250294   6.338   6.240   5.387 -1.3513 -2.0187 -1.1345
 9627TIP3   OH250295   3.924   1.575   4.490  0.2077  0.5812 -0.7219
 9627TIP3    H150296   4.011   1.543   4.512 -0.7503 -1.5983  0.1781
 9627TIP3    H250297   3.895   1.517   4.419 -0.8517  0.6923 -0.3877
 9628TIP3   OH250298   4.029   3.431  16.927  0.4850 -0.1541  0.4179
 9628TIP3    H150299   3.956   3.454  16.870  1.0897  0.3251 -0.1798
 9628TIP3    H250300   4.106   3.437  16.871  1.2857  1.7670  1.6183
 9629TIP3   OH250301   1.590   1.790   3.898  0.0902  1.0263 -0.3595
 9629TIP3    H150302   1.529   1.852   3.857 -0.4325  0.9516  0.2863
 9629TIP3    H250303   1.538   1.710   3.910  0.2201  1.0612  0.4824
 9630TIP3   OH250304   3.254   6.732   5.261 -0.3699  0.1847  0.4201
 9630TIP3    H150305   3.184   6.675   5.293  0.7997 -1.2780  0.5188
 9630TIP3    H250306   3.282   6.781   5.338 -0.7925  0.2398  0.5410
 9631TIP3   OH250307   4.603   6.035  13.429  0.1338 -0.8048 -0.8178
 9631TIP3    H150308   4.517   5.999  13.448 -0.4602  0.5333 -0.8647
 9631TIP3    H250309   4.603   6.048  13.334  1.0122 -2.2887 -1.0577
 9632TIP3   OH250310   4.467   2.743   6.346  0.0946  0.2554 -0.4624
 9632TIP3    H150311   4.378   2.717   6.372  0.4339  0.0573  0.5506
 9632TIP3    H250312   4.491   2.812   6.407  1.3546 -1.0218  0.5631
 9633TIP3   OH250313   4.591   2.423  17.137 -0.4645 -0.6816  0.0540
 9633TIP3    H150314   4.562   2.391  17.051 -0.7433  0.0667 -0.1387
 9633TIP3    H250315   4.627   2.346  17.180  1.8132 -0.6624 -1.6075
 9634TIP3   OH250316   0.198   4.368   0.863  0.3355  0.1487  0.2706
 9634TIP3    H150317   0.193   4.422   0.784 -0.0213  0.3853  0.4525
 9634TIP3    H250318   0.162   4.283   0.836  0.3082  0.1981  0.1499
 9635TIP3   OH250319   3.275   3.234   1.483 -0.0838 -0.3362  0.5738
 9635TIP3    H150320   3.196   3.179   1.477 -0.7570  0.4580  1.7723
 9635TIP3    H250321   3.245   3.322   1.461  1.2524 -0.5606 -2.6286
 9636TIP3   OH250322   5.660   5.087  12.111  0.2981  0.1374  0.0178
 9636TIP3    H150323   5.720   5.078  12.036  0.6707  1.1467  0.1872
 9636TIP3    H250324   5.679   5.173  12.147 -0.0405 -0.2453  1.1493
 9637TIP3   OH250325   4.798   0.204   4.989 -0.4986  0.3269 -0.6729
 9637TIP3    H150326   4.821   0.286   4.944 -1.9052  0.5675 -1.0046
 9637TIP3    H250327   4.749   0.233   5.066  0.5489 -0.1547  0.2075
 9638TIP3   OH250328   0.863   3.717   5.060 -0.2359 -0.1786 -0.5062
 9638TIP3    H150329   0.919   3.650   5.020  1.5009  1.2953 -0.6794
 9638TIP3    H250330   0.863   3.695   5.153 -1.6811 -1.7699 -0.8334
 9639TIP3   OH250331   3.117   0.085   1.022 -0.2061 -0.1337  0.4243
 9639TIP3    H150332   3.087   0.031   0.949  1.9024 -2.5503  1.2145
 9639TIP3    H250333   3.203   0.117   0.995 -0.4084  0.8635  0.9281
 9640TIP3   OH250334   1.438   6.352  14.114  0.3661 -0.4499  0.2688
 9640TIP3    H150335   1.384   6.279  14.084 -0.0424 -0.3310  0.6959
 9640TIP3    H250336   1.460   6.330  14.204  1.7905 -0.9247 -0.1641
 9641TIP3   OH250337   2.249   2.680  12.290 -0.1128 -0.2522  0.0693
 9641TIP3    H150338   2.263   2.620  12.363 -0.5937  0.0762  0.4345
 9641TIP3    H250339   2.156   2.701  12.293  0.1079  0.7940  0.1722
 9642TIP3   OH250340   2.509   6.174   0.334 -0.1124  0.0934  0.1102
 9642TIP3    H150341   2.431   6.228   0.343  0.0491  0.8859 -2.4451
 9642TIP3    H250342   2.492   6.098   0.390 -1.9664  1.0097  0.8876
 9643TIP3   OH250343   2.590   4.101  12.079  0.5518 -0.1551  0.1158
 9643TIP3    H150344   2.673   4.125  12.038  1.3728 -1.5825  0.8853
 9643TIP3    H250345   2.528   4.098  12.006  1.7220 -1.4545 -0.8877
 9644TIP3   OH250346   4.555   6.407   4.706  0.6641  0.2406 -0.4785
 9644TIP3    H150347   4.598   6.349   4.769  1.3844  1.6548  0.3814
 9644TIP3    H250348   4.493   6.457   4.759  1.5064  1.6676 -0.7955
 9645TIP3   OH250349   2.384   3.917   5.481  0.7121 -0.2340 -0.0910
 9645TIP3    H150350   2.334   3.910   5.400  0.5006  0.3609 -0.0151
 9645TIP3    H250351   2.341   3.986   5.531  2.1997  1.0108 -0.4644
 9646TIP3   OH250352   2.074   4.278  16.300  0.3633 -0.2631 -0.0545
 9646TIP3    H150353   2.164   4.247  16.289  0.1781 -1.0931  0.6358
 9646TIP3    H250354   2.055   4.326  16.220  1.9857  1.3476  0.4723
 9647TIP3   OH250355   3.665   6.204   2.580 -0.0627 -0.0953  0.5506
 9647TIP3    H150356   3.723   6.278   2.566 -0.3350 -0.1514 -1.0594
 9647TIP3    H250357   3.695   6.165   2.662  0.8125  1.1106  0.8217
 9648TIP3   OH250358   0.994   2.561  15.557  0.5871  0.1267 -0.2351
 9648TIP3    H150359   0.910   2.605  15.569 -0.0732 -1.1070 -0.2088
 9648TIP3    H250360   1.037   2.612  15.488  0.1353  1.1886  0.2363
 9649TIP3   OH250361   6.598   0.031   0.947 -0.0826 -0.4318  0.0392
 9649TIP3    H150362   6.566  -0.049   0.906 -0.1698 -2.1218  3.1330
 9649TIP3    H250363   6.693   0.020   0.952 -0.0036  0.0619 -0.2895
 9650TIP3   OH250364   3.438   1.944  13.601  0.0935  0.3568  0.5654
 9650TIP3    H150365   3.472   1.915  13.686  0.3547  0.4946  0.5086
 9650TIP3    H250366   3.480   1.887  13.537  0.9430  1.1311  0.4174
 9651TIP3   OH250367   1.895   5.335  14.383 -0.4710  0.3004  0.2541
 9651TIP3    H150368   1.876   5.371  14.470 -1.9900 -1.1356  0.5713
 9651TIP3    H250369   1.813   5.347  14.334 -0.0172 -0.0042 -0.5978
 9652TIP3   OH250370   5.459   4.766  16.260 -0.8878  0.0241 -0.1455
 9652TIP3    H150371   5.501   4.793  16.178 -1.2798  1.1741  0.0118
 9652TIP3    H250372   5.367   4.788  16.248 -0.7783  1.2230  0.9950
 9653TIP3   OH250373   2.665   0.627  15.755 -0.4376  0.1677 -0.3549
 9653TIP3    H150374   2.600   0.693  15.779 -0.7586  1.2036 -3.5730
 9653TIP3    H250375   2.624   0.544  15.780 -1.7358  0.9636  0.3019
 9654TIP3   OH250376   0.545   4.334   3.183 -0.4490  0.4646  0.2734
 9654TIP3    H150377   0.533   4.364   3.093 -1.2215 -0.8362 -0.0958
 9654TIP3    H250378   0.529   4.239   3.179  0.9189  0.1385  1.5266
 9655TIP3   OH250379   6.670   2.350   0.318 -0.0746  0.2716  0.2069
 9655TIP3    H150380   6.606   2.384   0.381  1.4006  2.6117  0.5804
 9655TIP3    H250381   6.707   2.429   0.277  1.5050 -1.0557 -1.0418
 9656TIP3   OH250382   0.125   6.439  15.350  0.5288  0.5879  0.1999
 9656TIP3    H150383   0.032   6.463  15.353  0.3793 -0.1013  1.8792
 9656TIP3    H250384   0.133   6.365  15.409  2.3439  1.2671  0.8800
 9657TIP3   OH250385   6.094   6.349  15.052  0.2533 -0.1441  0.3988
 9657TIP3    H150386   6.046   6.326  15.131 -0.9794  1.4992  0.1839
 9657TIP3    H250387   6.058   6.433  15.026  2.6486  0.7399 -0.3128
 9658TIP3   OH250388   2.958   3.318  13.359 -0.5647  0.3242 -0.0354
 9658TIP3    H150389   2.940   3.409  13.381  0.6056  0.7599 -0.8076
 9658TIP3    H250390   2.907   3.268  13.422  0.7397  1.5034  2.0504
 9659TIP3   OH250391   1.633   4.683   1.421 -0.0952 -0.2789 -0.6375
 9659TIP3    H150392   1.721   4.710   1.394 -0.3286  2.3646  0.8671
 9659TIP3    H250393   1.599   4.634   1.346  2.1415 -0.2087 -1.7885
 9660TIP3   OH250394   4.992   4.533   2.437 -0.1808  0.0509 -0.3592
 9660TIP3    H150395   4.931   4.554   2.367 -0.0717  0.8779 -0.2155
 9660TIP3    H250396   4.953   4.571   2.516  0.4495  0.4767 -0.2419
 9661TIP3   OH250397   5.243   4.193  11.538  0.1957  0.2046  0.2481
 9661TIP3    H150398   5.263   4.255  11.609  1.7087  1.4699 -1.2116
 9661TIP3    H250399   5.320   4.196  11.481 -0.2364 -2.0851 -0.5756
 9662TIP3   OH250400   4.256   6.676   0.920  0.9047  0.7605 -0.5680
 9662TIP3    H150401   4.350   6.693   0.925  1.1394 -0.1294 -1.6234
 9662TIP3    H250402   4.249   6.583   0.900 -0.2841 -0.2295  3.4319
 9663TIP3   OH250403   4.792   2.062   1.038  0.1908  0.1596  0.5629
 9663TIP3    H150404   4.731   2.065   0.964 -0.0895 -1.7412  0.6594
 9663TIP3    H250405   4.878   2.079   0.998 -0.1985  1.4330  0.2039
 9664TIP3   OH250406   6.372   6.747   5.612 -0.5645 -0.1991 -0.0172
 9664TIP3    H150407   6.374   6.754   5.707 -1.0477 -1.8502  0.1513
 9664TIP3    H250408   6.353   6.654   5.595 -1.7783  0.3046 -1.7061
 9665TIP3   OH250409   1.270   0.675  11.390  0.5324 -0.2232  0.2482
 9665TIP3    H150410   1.210   0.740  11.426  0.4389  0.2445 -0.7327
 9665TIP3    H250411   1.214   0.616  11.340  0.9629  0.8520 -1.6115
 9666TIP3   OH250412   4.452   1.879  13.796  0.2112  0.3800 -0.3706
 9666TIP3    H150413   4.373   1.847  13.840 -0.5353  1.5089 -0.8660
 9666TIP3    H250414   4.524   1.835  13.842 -0.4688  1.9439  2.4001
 9667TIP3   OH250415   2.859   4.208   3.630  0.3535 -0.3075  0.0701
 9667TIP3    H150416   2.920   4.163   3.572  0.8826 -0.3934  0.6765
 9667TIP3    H250417   2.798   4.254   3.572  0.4707 -0.9229 -0.5477
 9668TIP3   OH250418   0.476   2.604   1.753 -0.1308 -0.1632 -0.0128
 9668TIP3    H150419   0.477   2.673   1.820 -0.4369  0.3497 -0.5318
 9668TIP3    H250420   0.454   2.524   1.802  1.3444 -0.1126  0.7770
 9669TIP3   OH250421   0.130   0.894  14.857  0.2496  0.0783  0.0886
 9669TIP3    H150422   0.040   0.901  14.827  0.3196 -1.9638 -0.8384
 9669TIP3    H250423   0.175   0.969  14.817 -0.5739 -0.1836 -1.4236
 9670TIP3   OH250424   3.843   1.701   0.564 -0.3491 -0.2169  0.1130
 9670TIP3    H150425   3.915   1.727   0.621 -0.0265 -3.0199  1.1359
 9670TIP3    H250426   3.766   1.741   0.603  0.0038 -1.3106  2.0516
 9671TIP3   OH250427   5.129   2.030   1.596 -0.1688  0.1442  0.9762
 9671TIP3    H150428   5.208   2.071   1.631 -0.4657  0.1340  1.6912
 9671TIP3    H250429   5.151   1.938   1.584 -0.0186  0.1779  0.9999
 9672TIP3   OH250430   2.786   2.159   3.513  0.1668  0.1889  0.9654
 9672TIP3    H150431   2.857   2.125   3.458  0.3490 -0.2131  1.4474
 9672TIP3    H250432   2.794   2.254   3.506 -1.2591  0.2284 -1.5963
 9673TIP3   OH250433   3.619   1.125   3.714 -0.3654 -0.2162  0.4351
 9673TIP3    H150434   3.627   1.171   3.798  4.8653  0.1187  0.0514
 9673TIP3    H250435   3.601   1.194   3.650 -2.3783 -0.2156  0.9397
 9674TIP3   OH250436   5.721   0.596   4.944  0.4066 -0.4562  0.2189
 9674TIP3    H150437   5.715   0.626   5.035  0.1966  2.1172 -0.5579
 9674TIP3    H250438   5.631   0.598   4.913  0.6651  0.4249 -0.5177
 9675TIP3   OH250439   1.117   0.842   3.992  0.3892  0.0571  0.0333
 9675TIP3    H150440   1.140   0.857   4.084  3.3796 -0.5629 -0.5096
 9675TIP3    H250441   1.160   0.912   3.944  1.0449 -1.0624 -1.0893
 9676TIP3   OH250442   5.043   4.851   6.023 -0.6602  0.3585 -0.6040
 9676TIP3    H150443   5.129   4.817   6.048 -0.4693 -1.0553 -2.8633
 9676TIP3    H250444   5.063   4.931   5.975 -0.6043  0.1149 -0.9913
 9677TIP3   OH250445   2.211   6.180  14.528 -0.5275 -0.8379  0.0569
 9677TIP3    H150446   2.294   6.205  14.570 -0.4144  0.5689 -0.9350
 9677TIP3    H250447   2.231   6.175  14.435 -1.8422  0.9029 -0.3684
 9678TIP3   OH250448   2.886   4.916  11.454  0.0696  0.1192  0.3505
 9678TIP3    H150449   2.956   4.876  11.505  0.4053 -2.7813 -2.1199
 9678TIP3    H250450   2.811   4.857  11.464 -1.6491  2.3091  1.6217
 9679TIP3   OH250451   3.054   1.848  14.482  0.2411 -0.4243 -0.3364
 9679TIP3    H150452   2.996   1.923  14.494 -0.1839 -0.9499  1.1097
 9679TIP3    H250453   3.054   1.831  14.388 -0.1116  1.0218 -0.6098
 9680TIP3   OH250454   4.251   4.321   0.128 -0.3991 -0.3957  0.4717
 9680TIP3    H150455   4.163   4.283   0.135 -0.7716  0.6369  1.8465
 9680TIP3    H250456   4.270   4.354   0.216 -0.0547  2.4394 -0.5579
 9681TIP3   OH250457   5.026   1.967  10.821 -0.2253  0.0668 -0.0830
 9681TIP3    H150458   4.955   1.918  10.862 -0.7311  0.7844 -0.0733
 9681TIP3    H250459   5.038   1.925  10.736 -1.6056  0.7520 -0.6578
 9682TIP3   OH250460   0.401   2.752  16.555  0.2448 -0.2403 -0.0044
 9682TIP3    H150461   0.369   2.720  16.471 -0.6673 -0.3262  0.3592
 9682TIP3    H250462   0.342   2.713  16.620  0.3098  0.6077  0.5919
 9683TIP3   OH250463   1.399   0.259   2.992 -0.6534 -0.5626  0.2059
 9683TIP3    H150464   1.361   0.306   2.918 -1.7115 -1.0160  0.4364
 9683TIP3    H250465   1.488   0.291   2.998 -0.7490 -0.0575 -0.8747
 9684TIP3   OH250466   3.043   4.534   1.226  0.5112  0.0069 -0.2397
 9684TIP3    H150467   2.991   4.610   1.199  1.1130  0.2556 -0.7306
 9684TIP3    H250468   3.014   4.464   1.169  0.6033  0.1096 -0.4154
 9685TIP3   OH250469   0.291   1.621   1.248 -0.1602 -0.1197 -0.1021
 9685TIP3    H150470   0.329   1.539   1.278  0.7370  0.5795  0.7766
 9685TIP3    H250471   0.250   1.600   1.165  1.7520 -1.0599 -0.8757
 9686TIP3   OH250472   3.498   2.742  15.058  0.1849 -0.3287  0.6004
 9686TIP3    H150473   3.514   2.816  15.000 -0.5878  0.2580  1.1256
 9686TIP3    H250474   3.529   2.666  15.008 -0.2325  0.1882 -0.4814
 9687TIP3   OH250475   1.742   3.747   5.649 -0.1224 -0.3387  0.2652
 9687TIP3    H150476   1.812   3.749   5.584  1.2206 -0.0471  1.6624
 9687TIP3    H250477   1.662   3.766   5.599  0.7794 -0.6609 -1.3664
 9688TIP3   OH250478   0.599   1.147  17.194 -0.5419  0.1167 -0.0698
 9688TIP3    H150479   0.610   1.052  17.201 -0.5611  0.1986  1.2552
 9688TIP3    H250480   0.551   1.159  17.112  0.1546 -0.9526 -0.6610
 9689TIP3   OH250481   2.099   4.928   0.997  0.0735 -0.2073  0.4392
 9689TIP3    H150482   2.094   4.918   1.092 -1.6548  0.2588  0.4383
 9689TIP3    H250483   2.048   5.007   0.979  1.6615  0.6068 -0.7619
 9690TIP3   OH250484   0.691   1.014  11.786 -0.1624 -0.0435  0.2826
 9690TIP3    H150485   0.697   0.968  11.870  0.5383  0.3431  0.4517
 9690TIP3    H250486   0.741   0.961  11.725  0.4468  0.3600  0.4226
 9691TIP3   OH250487   3.021   2.545  12.754 -0.0313  0.8919  0.4399
 9691TIP3    H150488   2.977   2.541  12.669  0.4438 -1.1137  0.2459
 9691TIP3    H250489   3.113   2.528  12.735 -0.2146 -1.9665  1.5032
 9692TIP3   OH250490   6.086   3.376  13.648  0.0183 -0.2033 -0.1959
 9692TIP3    H150491   6.122   3.426  13.721 -0.5737  0.6577 -0.4791
 9692TIP3    H250492   6.001   3.345  13.680  0.0963 -0.4742 -0.2507
 9693TIP3   OH250493   2.024   4.521  15.727 -0.3098 -0.5538  0.2743
 9693TIP3    H150494   2.024   4.430  15.754  0.1387 -0.7260 -0.2899
 9693TIP3    H250495   2.102   4.530  15.671 -0.6726  0.0202 -0.1566
 9694TIP3   OH250496   0.433   1.498  16.156  0.1062  0.0932  0.1971
 9694TIP3    H150497   0.451   1.585  16.192 -0.6623 -0.8008  2.9895
 9694TIP3    H250498   0.437   1.440  16.232 -0.6960 -2.1344 -1.3793
 9695TIP3   OH250499   4.315   6.740  13.436 -0.0970  0.1100 -0.2225
 9695TIP3    H150500   4.295   6.649  13.411 -2.9344  0.8302 -1.0280
 9695TIP3    H250501   4.261   6.793  13.376  1.7431  2.3657 -0.0187
 9696TIP3   OH250502   1.015   4.162   2.798 -0.4440 -0.1039 -0.8940
 9696TIP3    H150503   0.962   4.237   2.771 -0.7154  0.4077  0.9214
 9696TIP3    H250504   1.037   4.118   2.716 -1.4200  1.1820 -1.9029
 9697TIP3   OH250505   0.236   6.504  14.685  0.4459 -0.1898 -0.6663
 9697TIP3    H150506   0.303   6.441  14.712 -0.1398 -1.6273 -2.3361
 9697TIP3    H250507   0.189   6.460  14.614 -0.6073  1.7803 -1.2831
 9698TIP3   OH250508   4.252   1.390   0.486 -0.0569  0.4893  0.1135
 9698TIP3    H150509   4.299   1.379   0.403  0.0027  1.2291  0.0364
 9698TIP3    H250510   4.185   1.322   0.485 -0.2719  0.6954 -0.7101
 9699TIP3   OH250511   6.657   0.492   3.345 -0.4949  0.2224 -0.1821
 9699TIP3    H150512   6.630   0.583   3.354  0.1433  0.3716  0.2533
 9699TIP3    H250513   6.729   0.481   3.407 -0.6834 -0.6283 -0.0938
 9700TIP3   OH250514   5.457   2.332  13.314 -0.1849 -0.2922  0.6189
 9700TIP3    H150515   5.487   2.366  13.230  2.5335 -0.4277  1.4360
 9700TIP3    H250516   5.366   2.306  13.299 -0.2896  1.2025 -1.7961
 9701TIP3   OH250517   1.394   1.437   5.654  0.2114 -0.2831  1.0686
 9701TIP3    H150518   1.483   1.463   5.630  0.3676 -1.4396  0.3062
 9701TIP3    H250519   1.390   1.344   5.631 -1.2269 -0.2202  1.0136
 9702TIP3   OH250520   0.338   3.663  11.051 -0.2573  0.1235  0.1175
 9702TIP3    H150521   0.243   3.657  11.063 -0.3401  1.6521  0.3643
 9702TIP3    H250522   0.366   3.571  11.043 -1.9689 -0.3304 -1.7574
 9703TIP3   OH250523   3.072   4.042  13.845 -0.0227 -0.3572 -0.0468
 9703TIP3    H150524   2.986   4.066  13.811 -0.2895 -0.9754  0.1576
 9703TIP3    H250525   3.083   3.950  13.820  0.6811 -0.2248 -0.2671
 9704TIP3   OH250526   2.936   6.386   5.715  0.4488 -0.4094 -0.5798
 9704TIP3    H150527   2.897   6.323   5.775  1.6548 -0.7156 -0.1076
 9704TIP3    H250528   2.868   6.453   5.704 -0.5423 -1.3602 -0.4678
 9705TIP3   OH250529   6.739   0.292  16.735  0.2304 -0.2652  0.0506
 9705TIP3    H150530   6.758   0.234  16.808  2.1475 -3.6384 -2.8478
 9705TIP3    H250531   6.643   0.292  16.729  0.0110  0.2848  2.5718
 9706TIP3   OH250532   6.223   5.439  14.428 -0.1844  0.2400  0.4878
 9706TIP3    H150533   6.290   5.385  14.469 -1.4070 -1.1871  0.6735
 9706TIP3    H250534   6.267   5.523  14.411  0.9977  0.1136  2.6131
 9707TIP3   OH250535   2.591   5.048  15.413  0.0124  0.4128  0.2265
 9707TIP3    H150536   2.687   5.043  15.420 -0.1164 -1.7778  1.4640
 9707TIP3    H250537   2.560   5.042  15.504 -1.3095  1.4687 -0.1286
 9708TIP3   OH250538   4.954   0.232   0.396 -0.2454  0.1703 -0.5016
 9708TIP3    H150539   5.012   0.156   0.402 -2.0103 -1.2832 -0.9990
 9708TIP3    H250540   5.002   0.294   0.340  1.3420 -0.4443  0.1265
 9709TIP3   OH250541   6.764   1.449   1.770 -0.1851 -0.0619  0.2186
 9709TIP3    H150542   6.705   1.444   1.846 -0.7761  0.7408 -0.1686
 9709TIP3    H250543   6.812   1.531   1.783 -1.4047  0.8970 -1.0388
 9710TIP3   OH250544   4.092   0.401   0.015  0.2698  0.2945 -0.0334
 9710TIP3    H150545   4.092   0.344   0.093  0.6333 -0.9439 -0.9073
 9710TIP3    H250546   4.173   0.450   0.021  0.8169 -0.5729 -0.1655
 9711TIP3   OH250547   4.987   3.323   3.810  0.4505  0.4519  0.1912
 9711TIP3    H150548   5.050   3.392   3.790  0.5143 -0.1813 -2.1076
 9711TIP3    H250549   4.908   3.348   3.764 -0.0375 -0.2108  0.6493
 9712TIP3   OH250550   5.719   2.379  16.612 -0.3433 -0.2329  0.0409
 9712TIP3    H150551   5.645   2.319  16.609 -0.4139 -0.1132 -1.6826
 9712TIP3    H250552   5.682   2.463  16.639 -0.9036 -0.1122 -1.0519
 9713TIP3   OH250553   3.547   0.936  15.440 -0.0635 -0.2312 -0.4541
 9713TIP3    H150554   3.456   0.966  15.441 -0.5459 -1.6259  0.2374
 9713TIP3    H250555   3.594   1.005  15.394 -1.5075  0.4054 -1.0480
 9714TIP3   OH250556   2.346   1.996  16.856 -0.3129 -0.2545 -0.2042
 9714TIP3    H150557   2.388   2.081  16.844 -0.0132 -0.0582  1.8766
 9714TIP3    H250558   2.252   2.016  16.857 -0.2140  0.2671  1.4170
 9715TIP3   OH250559   1.042   6.306  12.017 -0.5449  0.2741  0.5094
 9715TIP3    H150560   1.018   6.269  11.932 -1.4441 -0.9542  1.2739
 9715TIP3    H250561   0.960   6.336  12.055 -0.0958  1.1756  0.7934
 9716TIP3   OH250562   5.173   2.762   1.819 -0.0329  0.4077  0.4104
 9716TIP3    H150563   5.177   2.737   1.912 -1.1185  0.2207  0.4169
 9716TIP3    H250564   5.148   2.855   1.821  0.6541  0.6027  0.3095
 9717TIP3   OH250565   4.470   5.757  16.343 -0.5440  0.4701  0.8441
 9717TIP3    H150566   4.514   5.684  16.300 -1.1807 -0.1129  1.1739
 9717TIP3    H250567   4.477   5.829  16.280  1.8174  0.7318  1.3149
 9718TIP3   OH250568   4.510   5.332  14.867 -0.4632  0.4309  0.1005
 9718TIP3    H150569   4.484   5.285  14.946 -1.7270  1.3757  0.2996
 9718TIP3    H250570   4.429   5.339  14.816  0.6427 -1.6138 -2.1190
 9719TIP3   OH250571   5.416   5.762  14.794 -0.4755 -0.5879 -0.7702
 9719TIP3    H150572   5.323   5.770  14.815 -0.6074  0.7593 -1.7025
 9719TIP3    H250573   5.422   5.791  14.703  0.8104 -1.0652 -0.8606
 9720TIP3   OH250574   2.282   3.595   6.573 -0.5451 -0.3445 -0.2345
 9720TIP3    H150575   2.244   3.668   6.622  0.7673  0.0115  0.2722
 9720TIP3    H250576   2.293   3.630   6.484  1.6072  0.6669  0.3807
 9721TIP3   OH250577   4.848   3.304   2.614  0.0247  0.2683  0.1683
 9721TIP3    H150578   4.860   3.209   2.621  0.9511  0.3266 -0.4774
 9721TIP3    H250579   4.866   3.323   2.522  1.0497  1.2279  0.5477
 9722TIP3   OH250580   0.768   4.778   2.460 -0.5376 -0.5414 -0.3633
 9722TIP3    H150581   0.764   4.819   2.374 -0.7838 -0.3071 -0.2458
 9722TIP3    H250582   0.708   4.704   2.454 -1.0028 -0.1834 -0.2226
 9723TIP3   OH250583   3.047   4.097   3.469  0.7948 -0.7993 -0.3642
 9723TIP3    H150584   3.048   4.008   3.435  1.2922 -0.5515 -0.9973
 9723TIP3    H250585   3.117   4.142   3.423  0.4331 -0.0273 -0.1793
 9724TIP3   OH250586   0.389   2.448  14.803 -0.0709  0.6101  0.1431
 9724TIP3    H150587   0.313   2.478  14.853  0.2007  1.2164  0.1988
 9724TIP3    H250588   0.354   2.380  14.745 -0.1907 -0.9909  1.9810
 9725TIP3   OH250589   2.492   1.946   6.229 -0.1183  0.0980  0.6216
 9725TIP3    H150590   2.424   1.891   6.267 -0.8967  0.7933  0.2766
 9725TIP3    H250591   2.457   1.972   6.143  0.4722  0.6635  0.5421
 9726TIP3   OH250592   3.056   1.560   2.432 -0.4746  0.0044  0.6336
 9726TIP3    H150593   3.108   1.523   2.503  0.2981 -0.8733 -0.3362
 9726TIP3    H250594   3.094   1.646   2.416  0.8569 -0.7047 -0.1895
 9727TIP3   OH250595   2.590   4.116  14.788  0.2202 -0.3775  0.2942
 9727TIP3    H150596   2.515   4.057  14.787  0.1325 -0.2903  1.0293
 9727TIP3    H250597   2.618   4.118  14.879  0.0862  0.8665  0.3348
 9728TIP3   OH250598   2.811   0.607   6.396 -0.3693 -0.2902 -0.4981
 9728TIP3    H150599   2.881   0.671   6.401  2.2867 -3.0267  0.8065
 9728TIP3    H250600   2.739   0.645   6.446  1.2366  1.4537  0.6340
 9729TIP3   OH250601   2.887   0.571  11.765 -0.1351 -0.0061  0.2294
 9729TIP3    H150602   2.830   0.555  11.690  1.3226 -0.0984 -0.9104
 9729TIP3    H250603   2.907   0.484  11.799  2.5494 -0.3500 -1.9285
 9730TIP3   OH250604   5.659   1.374   4.099 -0.1975 -0.0764  0.3741
 9730TIP3    H150605   5.675   1.359   4.192 -2.3776 -2.0086  0.5257
 9730TIP3    H250606   5.731   1.328   4.055  0.4869  0.3019  1.0786
 9731TIP3   OH250607   2.713   4.463  15.780  0.2106  0.1286  0.2714
 9731TIP3    H150608   2.718   4.381  15.731 -1.1157 -0.1951  0.6382
 9731TIP3    H250609   2.649   4.516  15.732  1.2786  1.0857 -0.1308
 9732TIP3   OH250610   5.833   2.865  14.471  0.2892 -0.5396  0.5141
 9732TIP3    H150611   5.744   2.892  14.494  0.0100 -0.8602 -0.1547
 9732TIP3    H250612   5.884   2.881  14.550 -0.1903  0.4220  0.6413
 9733TIP3   OH250613   3.890   1.512   5.448  0.2332 -0.3122 -0.1248
 9733TIP3    H150614   3.811   1.563   5.431  1.7115  2.3680  0.4012
 9733TIP3    H250615   3.902   1.518   5.543  0.7622 -1.1890 -0.1308
 9734TIP3   OH250616   1.121   2.387   5.914  0.2158 -0.7577 -0.2100
 9734TIP3    H150617   1.063   2.366   5.841  2.1267 -1.0980 -1.7115
 9734TIP3    H250618   1.132   2.304   5.960  0.5895 -1.0133 -0.7480
 9735TIP3   OH250619   2.060   4.996  14.090  0.1187 -0.3101  0.2022
 9735TIP3    H150620   1.980   5.010  14.141  0.7801  0.8239  0.9801
 9735TIP3    H250621   2.037   4.927  14.028 -0.4575 -2.3169  2.5357
 9736TIP3   OH250622   0.917   0.592  16.199 -0.3374 -0.2936 -0.4160
 9736TIP3    H150623   0.969   0.600  16.119 -0.5492  2.8107 -0.3730
 9736TIP3    H250624   0.841   0.649  16.185 -1.3169 -1.0974  1.2942
 9737TIP3   OH250625   4.424   3.227   3.615  0.6082 -0.2488  0.4412
 9737TIP3    H150626   4.509   3.223   3.658 -0.4404 -0.9473  2.6617
 9737TIP3    H250627   4.393   3.136   3.614  0.1313 -0.0953 -0.8880
 9738TIP3   OH250628   6.044   0.459  14.406 -0.5272  0.5287 -0.5022
 9738TIP3    H150629   5.995   0.418  14.477  0.0137 -0.1389 -0.4980
 9738TIP3    H250630   6.136   0.455  14.434 -0.4399  1.6223 -0.5703
 9739TIP3   OH250631   0.568   6.184  12.978  0.6245  0.4984  0.0712
 9739TIP3    H150632   0.664   6.180  12.981  0.6375 -0.1874 -0.7830
 9739TIP3    H250633   0.544   6.130  12.902 -0.4107  1.1157 -0.0623
 9740TIP3   OH250634   6.399   5.413   0.015  0.1277 -0.0079  0.0451
 9740TIP3    H150635   6.314   5.414  -0.030 -0.5038  1.0218  1.1891
 9740TIP3    H250636   6.428   5.503   0.012  1.0326 -0.2970 -0.0224
 9741TIP3   OH250637   4.853   2.399  17.041  0.2789 -0.0870  0.4253
 9741TIP3    H150638   4.762   2.399  17.074  0.6339 -0.8197  1.4781
 9741TIP3    H250639   4.902   2.449  17.106  0.7752 -0.4247  0.3164
 9742TIP3   OH250640   3.965   5.771   2.565  0.2983 -0.0549 -0.0772
 9742TIP3    H150641   4.031   5.729   2.620 -0.4769  0.4143  1.2543
 9742TIP3    H250642   3.980   5.865   2.577  1.3386  0.1201 -2.2039
 9743TIP3   OH250643   4.876   5.523  14.141  0.0945  0.5406 -0.1521
 9743TIP3    H150644   4.873   5.528  14.236 -1.0754 -0.0530 -0.1490
 9743TIP3    H250645   4.886   5.614  14.113  0.1318  0.7511  0.5188
 9744TIP3   OH250646   4.449   6.312   3.623 -0.3529  0.0449  0.3329
 9744TIP3    H150647   4.515   6.336   3.558 -0.6190 -0.4837 -0.1336
 9744TIP3    H250648   4.374   6.283   3.572 -0.0241 -1.8856  0.8452
 9745TIP3   OH250649   1.758   0.961   2.606  0.4831  0.1943  0.2757
 9745TIP3    H150650   1.727   0.929   2.522  2.0401  0.4654 -0.4359
 9745TIP3    H250651   1.693   1.025   2.633  0.9886  1.6709 -1.7627
 9746TIP3   OH250652   0.665   4.001  13.940 -0.2438  0.1972 -0.0411
 9746TIP3    H150653   0.738   4.063  13.931  0.7651 -1.1807 -2.5068
 9746TIP3    H250654   0.589   4.055  13.958  0.7845  2.0624 -1.0159
 9747TIP3   OH250655   5.091   4.283   6.406 -0.3295 -0.0237  0.6890
 9747TIP3    H150656   5.167   4.282   6.348  0.3195  3.2253  1.2586
 9747TIP3    H250657   5.109   4.216   6.472  0.9641 -0.8240 -0.4229
 9748TIP3   OH250658   3.557   3.221   4.414 -0.8035 -0.0361  0.6258
 9748TIP3    H150659   3.487   3.254   4.470 -0.2879  1.6957  0.3090
 9748TIP3    H250660   3.638   3.249   4.456 -0.1935 -2.4248  1.2430
 9749TIP3   OH250661   6.225   2.754   0.787  0.0256 -0.2355  0.2438
 9749TIP3    H150662   6.320   2.740   0.789  0.0105 -0.4738 -0.3860
 9749TIP3    H250663   6.214   2.830   0.730 -0.1788 -0.3678  0.1054
 9750TIP3   OH250664   1.660   1.111  14.305  0.0347 -0.2080  0.0448
 9750TIP3    H150665   1.612   1.041  14.261  0.2928 -1.2509  1.3279
 9750TIP3    H250666   1.645   1.095  14.399  0.3097  1.3217  0.3813
 9751TIP3   OH250667   3.116   5.806  17.142 -0.5634  0.3138 -0.4872
 9751TIP3    H150668   3.088   5.740  17.206 -0.8755  2.0471  1.2818
 9751TIP3    H250669   3.173   5.864  17.192 -0.2001  1.3172 -2.0142
 9752TIP3   OH250670   1.188   3.407   1.845  0.0827 -0.3809  0.1765
 9752TIP3    H150671   1.238   3.435   1.921  1.2388 -1.0465 -0.3137
 9752TIP3    H250672   1.171   3.488   1.796 -0.5389  0.0294  1.0438
 9753TIP3   OH250673   4.551   5.641  11.384  0.5756 -0.2658 -0.1717
 9753TIP3    H150674   4.560   5.553  11.348 -1.3120 -0.1981 -0.9383
 9753TIP3    H250675   4.457   5.658  11.383  0.8790  1.6951  0.1376
 9754TIP3   OH250676   3.888   1.290   2.484  0.1948 -0.6608  0.0053
 9754TIP3    H150677   3.955   1.222   2.488 -0.4271 -1.3684 -1.1331
 9754TIP3    H250678   3.811   1.246   2.449 -0.1958  0.6363 -0.8328
 9755TIP3   OH250679   2.961   4.590  11.260 -0.5629  0.1557  0.1664
 9755TIP3    H150680   2.949   4.685  11.263  0.1940  0.2767  2.9962
 9755TIP3    H250681   2.873   4.555  11.246 -1.1752  1.2779  0.9813
 9756TIP3   OH250682   1.821   3.969  15.988  0.3991 -0.2160 -0.3624
 9756TIP3    H150683   1.797   4.054  16.025  0.0998 -0.0858 -0.8453
 9756TIP3    H250684   1.837   3.913  16.065  1.2119  0.4376 -0.0406
 9757TIP3   OH250685   5.786   0.411  17.319 -0.5538  0.3903 -0.2552
 9757TIP3    H150686   5.851   0.352  17.358 -0.8205 -0.0184 -0.4120
 9757TIP3    H250687   5.715   0.413  17.383 -1.0194 -0.3315 -0.7385
 9758TIP3   OH250688   6.247   6.722   5.133 -0.4811  0.2804  0.2145
 9758TIP3    H150689   6.337   6.720   5.100 -0.5631 -0.6204  0.0249
 9758TIP3    H250690   6.253   6.773   5.214  0.2966 -0.1683  0.4574
 9759TIP3   OH250691   4.601   4.700  17.253  0.1290 -0.0346 -0.1634
 9759TIP3    H150692   4.655   4.653  17.190  3.7470  4.5627 -1.0455
 9759TIP3    H250693   4.605   4.647  17.333 -0.1732 -3.4067 -2.1923
 9760TIP3   OH250694   6.763   3.628   0.332 -0.2636 -0.5460  0.1708
 9760TIP3    H150695   6.749   3.685   0.257  0.1063 -1.3197 -0.4963
 9760TIP3    H250696   6.695   3.561   0.325  0.9235 -1.7144 -0.5580
 9761TIP3   OH250697   1.679   3.366  12.040 -0.6217  0.0003  0.0717
 9761TIP3    H150698   1.738   3.350  12.113 -1.1160 -0.2492  0.4233
 9761TIP3    H250699   1.654   3.279  12.010 -0.8642  0.1045 -0.0330
 9762TIP3   OH250700   4.575   6.119   5.340 -0.3589 -0.1926  0.1917
 9762TIP3    H150701   4.560   6.043   5.284  0.3228 -0.9109  0.9519
 9762TIP3    H250702   4.649   6.165   5.299  0.7574 -1.2246  0.9626
 9763TIP3   OH250703   4.557   4.051  13.632  0.1092  0.5823 -0.1097
 9763TIP3    H150704   4.508   4.080  13.555 -0.0516 -2.5564 -1.3366
 9763TIP3    H250705   4.489   4.019  13.692  0.4185 -1.0717 -0.5892
 9764TIP3   OH250706   4.193   4.463   3.127 -0.2238  0.0437 -0.4032
 9764TIP3    H150707   4.113   4.451   3.179 -0.5948  0.4504 -0.8650
 9764TIP3    H250708   4.177   4.415   3.046  0.7040 -1.3142  0.1954
 9765TIP3   OH250709   3.027   2.991   2.866  0.5418 -0.5687 -0.4487
 9765TIP3    H150710   3.026   3.016   2.774 -0.5384 -0.5603 -0.4497
 9765TIP3    H250711   3.035   3.074   2.913 -0.7143 -0.4057 -0.5040
 9766TIP3   OH250712   4.913   4.705   2.683  0.0346  0.4183  0.0741
 9766TIP3    H150713   4.842   4.672   2.738 -0.3910  0.6585 -0.3269
 9766TIP3    H250714   4.989   4.710   2.742 -0.6264  1.4990  0.8677
 9767TIP3   OH250715   5.509   3.998   5.734 -0.5307  0.1430  0.5457
 9767TIP3    H150716   5.480   4.050   5.809 -0.4998  1.4335 -0.2998
 9767TIP3    H250717   5.575   4.053   5.691 -1.6084  0.1161 -1.2537
 9768TIP3   OH250718   3.481   6.061  12.366 -0.5025 -0.3950  0.0781
 9768TIP3    H150719   3.432   6.036  12.288 -1.1110  1.3949 -0.1760
 9768TIP3    H250720   3.573   6.053  12.341 -0.6843  0.5713 -1.0129
 9769TIP3   OH250721   0.183   3.565   4.794  0.0770  0.3100  0.7367
 9769TIP3    H150722   0.099   3.608   4.782  0.4953  1.1081  0.6066
 9769TIP3    H250723   0.198   3.518   4.712 -0.8928 -1.0265  1.2844
 9770TIP3   OH250724   4.012   0.849  14.531  0.0034  0.0743  0.1217
 9770TIP3    H150725   3.936   0.794  14.513 -0.1914  0.0833  0.8766
 9770TIP3    H250726   4.024   0.844  14.626 -0.2914  1.6907  0.2818
 9771TIP3   OH250727   4.424   5.311   3.134 -0.1566  0.3875  0.2591
 9771TIP3    H150728   4.390   5.249   3.070 -0.1937  1.6013 -0.9414
 9771TIP3    H250729   4.383   5.394   3.111  0.5821  1.0528  1.2565
 9772TIP3   OH250730   4.530   3.752  16.732 -0.0184  0.5522  0.1403
 9772TIP3    H150731   4.561   3.757  16.822 -2.6547 -0.7051  1.1966
 9772TIP3    H250732   4.599   3.794  16.681  2.3838 -0.2705  2.5065
 9773TIP3   OH250733   2.829   0.814  15.162 -0.1016 -0.4921 -0.2032
 9773TIP3    H150734   2.799   0.870  15.234 -0.1035  1.5511 -1.6942
 9773TIP3    H250735   2.918   0.844  15.144 -0.5571 -0.0854 -1.8618
 9774TIP3   OH250736   0.478   6.303   6.002  0.1986 -0.2867  0.3432
 9774TIP3    H150737   0.422   6.249   5.947 -0.4972  0.1051  0.6562
 9774TIP3    H250738   0.538   6.241   6.043 -1.3389 -1.0013  1.6095
 9775TIP3   OH250739   5.266   6.404   5.957 -0.0552 -0.2142  1.3865
 9775TIP3    H150740   5.327   6.421   6.029  0.0724  0.3837  1.1392
 9775TIP3    H250741   5.219   6.324   5.984  0.1975 -0.1650  1.9922
 9776TIP3   OH250742   1.395   6.190  13.467 -0.4707  0.2366  0.2864
 9776TIP3    H150743   1.486   6.217  13.477  0.6253 -3.2451  0.9189
 9776TIP3    H250744   1.347   6.241  13.532  0.9726  2.0902 -0.0205
 9777TIP3   OH250745   0.038   3.535  11.969 -0.1450 -0.2872  0.0346
 9777TIP3    H150746  -0.035   3.484  12.006  0.3044  0.3104  1.8254
 9777TIP3    H250747   0.089   3.562  12.045  2.0668 -0.8359 -1.1916
 9778TIP3   OH250748   0.243   1.738   5.415  0.0413  0.3341 -0.5695
 9778TIP3    H150749   0.336   1.717   5.420  0.3337  1.7117  0.5571
 9778TIP3    H250750   0.239   1.833   5.427 -1.4725  0.3764 -1.1791
 9779TIP3   OH250751   3.986   5.939  13.818 -0.3194  0.3811 -0.3639
 9779TIP3    H150752   4.053   5.875  13.793 -1.1186 -0.4888 -0.3698
 9779TIP3    H250753   4.031   6.023  13.819  1.0904 -0.3451  0.8989
 9780TIP3   OH250754   2.643   2.265   3.933 -0.0529 -0.3156  0.4048
 9780TIP3    H150755   2.622   2.345   3.885  1.5459 -0.8661 -1.3780
 9780TIP3    H250756   2.651   2.292   4.024  0.5784  1.5947 -0.1684
 9781TIP3   OH250757   5.999   5.309  13.910 -0.1346 -0.1101 -0.4338
 9781TIP3    H150758   6.064   5.338  13.973  1.1308  0.0386 -1.7374
 9781TIP3    H250759   6.030   5.344  13.826 -0.9866 -1.4383 -1.3476
 9782TIP3   OH250760   5.876   4.786  15.732  0.4397 -0.2254  0.1412
 9782TIP3    H150761   5.957   4.755  15.692  0.3353  0.7539 -0.9035
 9782TIP3    H250762   5.807   4.731  15.695  0.3396  0.7056 -1.0990
 9783TIP3   OH250763   4.093   1.943   0.010 -0.3043  0.0867  0.2232
 9783TIP3    H150764   4.010   1.914   0.047 -0.0786  1.3734  1.8792
 9783TIP3    H250765   4.070   1.982  -0.074 -1.4648  0.7899  0.8390
 9784TIP3   OH250766   5.673   2.904   3.637 -0.2006  0.2637 -0.2919
 9784TIP3    H150767   5.633   2.882   3.721  0.3166  0.8227  0.1178
 9784TIP3    H250768   5.762   2.869   3.643 -0.3485 -0.2143 -0.8451
 9785TIP3   OH250769   2.677   5.222   0.202  0.0452  0.4425  0.1796
 9785TIP3    H150770   2.766   5.189   0.189  0.0378 -0.9154  2.9161
 9785TIP3    H250771   2.622   5.164   0.148  0.7055  0.6447 -0.7315
 9786TIP3   OH250772   3.651   6.635   1.852 -0.0493  0.0926  0.4920
 9786TIP3    H150773   3.685   6.585   1.778 -1.1488 -1.0160  0.7045
 9786TIP3    H250774   3.618   6.716   1.814  1.2918  0.4762  0.0738
 9787TIP3   OH250775   6.457   4.384   4.783 -0.2068  0.1120  0.0040
 9787TIP3    H150776   6.390   4.326   4.819 -0.0590 -0.1796 -0.1839
 9787TIP3    H250777   6.415   4.425   4.707  0.4482 -1.6031 -1.3585
 9788TIP3   OH250778   4.215   4.634  16.307 -0.4942  0.3601  0.0022
 9788TIP3    H150779   4.181   4.593  16.228 -1.1354  0.5973  0.1376
 9788TIP3    H250780   4.309   4.644  16.292 -0.4571 -0.4646 -0.3349
 9789TIP3   OH250781   6.511   1.766   1.446 -0.4083  0.1295 -0.2062
 9789TIP3    H150782   6.456   1.717   1.507 -0.0501  0.9382  0.8000
 9789TIP3    H250783   6.492   1.858   1.466  2.1164  0.4642  0.9880
 9790TIP3   OH250784   0.765   1.703  15.209 -0.1182  0.3925 -0.4449
 9790TIP3    H150785   0.723   1.629  15.253  0.7760 -0.0743 -0.3705
 9790TIP3    H250786   0.704   1.776  15.222 -1.2202 -0.4154 -0.8766
 9791TIP3   OH250787   0.407   4.652   3.998 -0.0548  0.0606  0.8013
 9791TIP3    H150788   0.389   4.694   4.082 -1.0885  0.1571  0.5400
 9791TIP3    H250789   0.364   4.567   4.004  0.7167 -0.3392  0.7425
 9792TIP3   OH250790   6.748   4.818  13.052 -0.6056  0.6755 -0.3160
 9792TIP3    H150791   6.785   4.736  13.019 -1.3660 -0.5240  1.6329
 9792TIP3    H250792   6.783   4.886  12.994 -0.5161 -1.0839 -2.4155
 9793TIP3   OH250793   1.747   6.612  15.596 -0.1857  0.0257 -0.4491
 9793TIP3    H150794   1.808   6.547  15.630  0.7297  1.7150  1.4080
 9793TIP3    H250795   1.664   6.566  15.587 -0.0789 -0.9944  2.7098
 9794TIP3   OH250796   4.846   1.293   3.652 -0.1797  0.5663 -0.1504
 9794TIP3    H150797   4.926   1.263   3.695  0.6324  3.2922  0.4315
 9794TIP3    H250798   4.791   1.324   3.724 -0.3589  1.7556 -0.7906
 9795TIP3   OH250799   1.762   2.133  13.971  0.4144 -0.0229  0.2375
 9795TIP3    H150800   1.765   2.128  14.067  0.6900  0.3717  0.2510
 9795TIP3    H250801   1.677   2.095  13.948 -0.5544  1.7138  0.7628
 9796TIP3   OH250802   4.804   4.798   5.542 -0.2109 -0.2064 -0.4890
 9796TIP3    H150803   4.876   4.802   5.605 -0.5742  0.0540 -0.0851
 9796TIP3    H250804   4.840   4.750   5.468 -0.2282 -1.7869  0.4999
 9797TIP3   OH250805   5.315   4.115  11.926  0.2796 -0.0979 -0.2554
 9797TIP3    H150806   5.370   4.072  11.861  1.9559 -0.1848  1.1104
 9797TIP3    H250807   5.362   4.197  11.946  0.4459 -0.5855  1.6000
 9798TIP3   OH250808   4.371   5.634  13.551  0.0707  0.1037  0.4050
 9798TIP3    H150809   4.340   5.569  13.614  0.2325 -0.2557  0.1151
 9798TIP3    H250810   4.333   5.606  13.467 -0.8285  1.0429  0.4841
 9799TIP3   OH250811   4.132   6.432  15.427  0.3117 -0.1362  0.5354
 9799TIP3    H150812   4.164   6.343  15.415  0.2824 -0.1959  0.8858
 9799TIP3    H250813   4.044   6.421  15.463 -0.4396  0.0153 -1.1552
 9800TIP3   OH250814   5.538   3.369   0.972  0.1335  0.5380 -0.1627
 9800TIP3    H150815   5.618   3.317   0.974 -0.0594  0.2505  1.3527
 9800TIP3    H250816   5.480   3.327   1.035 -1.3350  0.5959 -1.3976
 9801TIP3   OH250817   4.822   4.904   3.778 -0.5956 -0.6962  0.0212
 9801TIP3    H150818   4.916   4.920   3.765 -0.9256  3.5138  1.1739
 9801TIP3    H250819   4.790   4.874   3.693  1.4973 -0.2859 -0.9725
 9802TIP3   OH250820   4.988   3.925   1.035 -0.1015 -0.2505 -0.1205
 9802TIP3    H150821   4.907   3.970   1.060  0.1326 -0.3308  0.8340
 9802TIP3    H250822   4.962   3.834   1.021 -0.2479 -0.1990 -0.1798
 9803TIP3   OH250823   6.390   0.380   3.915  0.0959 -0.7514 -0.0679
 9803TIP3    H150824   6.422   0.450   3.972 -1.6838  0.4208 -0.4368
 9803TIP3    H250825   6.456   0.311   3.923  1.5034  0.6331  0.9315
 9804TIP3   OH250826   1.280   6.430   2.671 -0.7012 -0.3362 -1.0421
 9804TIP3    H150827   1.280   6.346   2.717 -0.0339 -1.0436 -2.2868
 9804TIP3    H250828   1.370   6.440   2.641  0.1687  2.4394  1.8702
 9805TIP3   OH250829   4.931   0.643  15.152  0.1835 -0.1186 -0.3488
 9805TIP3    H150830   4.913   0.650  15.245  0.8827 -2.2940  0.0165
 9805TIP3    H250831   4.881   0.567  15.123 -0.3136  0.7417 -1.8514
 9806TIP3   OH250832   2.227   1.964  13.355  0.0524 -0.8185 -0.8323
 9806TIP3    H150833   2.223   1.875  13.319 -2.0042 -0.4014 -1.7680
 9806TIP3    H250834   2.151   2.008  13.318  1.7757  1.7909 -1.5131
 9807TIP3   OH250835   1.911   2.308   1.048 -0.1780 -0.3652 -0.3931
 9807TIP3    H150836   1.857   2.355   0.984 -0.2063  1.8150  1.1005
 9807TIP3    H250837   1.984   2.273   0.998  0.0600  1.6755 -1.5593
 9808TIP3   OH250838   1.993   4.812   3.726 -0.6637 -0.5591  0.2665
 9808TIP3    H150839   1.923   4.799   3.790 -1.0041  0.8508  0.2120
 9808TIP3    H250840   1.957   4.779   3.644 -0.2760 -2.2542  0.7298
 9809TIP3   OH250841   0.755   5.500  12.719 -0.0581 -0.2337  0.3855
 9809TIP3    H150842   0.682   5.446  12.688 -0.0924  0.9698 -1.8827
 9809TIP3    H250843   0.716   5.559  12.783 -0.5748 -1.1445  0.9258
 9810TIP3   OH250844   0.056   2.880   3.182 -0.1562 -0.1933 -0.3792
 9810TIP3    H150845  -0.015   2.877   3.118 -0.2613 -2.3279 -0.2174
 9810TIP3    H250846   0.070   2.789   3.207  0.9613  0.4285  1.4610
 9811TIP3   OH250847   0.275   3.965  14.407 -0.3439  0.9481 -0.3536
 9811TIP3    H150848   0.229   4.021  14.469  0.9795  3.1163 -1.2118
 9811TIP3    H250849   0.367   3.972  14.433 -0.2188 -2.2692  0.5585
 9812TIP3   OH250850   2.513   2.124   5.649 -0.9595 -0.0096 -0.1376
 9812TIP3    H150851   2.507   2.036   5.610 -0.9711  0.6215 -1.6085
 9812TIP3    H250852   2.430   2.135   5.695 -1.6412 -0.1517 -1.2992
 9813TIP3   OH250853   2.695   5.913   4.387 -0.1272 -0.5122 -0.1576
 9813TIP3    H150854   2.785   5.906   4.420 -0.5053 -0.2331  0.9461
 9813TIP3    H250855   2.703   5.970   4.310  0.3317  1.4651  1.2875
 9814TIP3   OH250856   0.126   1.819  16.508  0.1048  0.1225 -0.1360
 9814TIP3    H150857   0.157   1.861  16.428 -1.1610  0.2245 -0.5956
 9814TIP3    H250858   0.206   1.800  16.557  0.7879  2.5735 -0.1420
 9815TIP3   OH250859   4.143   0.924   0.423  0.2298 -0.6109 -0.1209
 9815TIP3    H150860   4.171   0.841   0.463  0.3498 -0.1540  0.7836
 9815TIP3    H250861   4.202   0.936   0.349  0.3708 -1.2155 -0.1124
 9816TIP3   OH250862   1.174   0.291  14.270  0.0544  0.2438  0.1741
 9816TIP3    H150863   1.208   0.202  14.279  0.7152  0.4797  0.1167
 9816TIP3    H250864   1.079   0.281  14.264  0.2378 -0.7899 -3.1719
 9817TIP3   OH250865   5.324   6.339  14.846 -0.0104  0.3277 -0.0903
 9817TIP3    H150866   5.412   6.342  14.811 -0.0629  0.5603 -0.2024
 9817TIP3    H250867   5.289   6.427  14.833 -1.0363 -0.3184 -2.0504
 9818TIP3   OH250868   1.497   3.162   0.760  0.2099 -0.3159 -0.3117
 9818TIP3    H150869   1.407   3.131   0.758  0.5666 -1.4190 -0.2254
 9818TIP3    H250870   1.544   3.095   0.811  1.0664  0.2489 -0.3375
 9819TIP3   OH250871   1.339   0.401  12.567  0.4632 -0.1174 -0.2049
 9819TIP3    H150872   1.309   0.489  12.543  1.0925  0.6269  1.5501
 9819TIP3    H250873   1.261   0.359  12.604  0.3282 -0.0693 -0.4286
 9820TIP3   OH250874   5.799   2.273   3.627 -0.4260  0.1002 -0.4384
 9820TIP3    H150875   5.805   2.302   3.718 -1.9642 -0.5418 -0.0978
 9820TIP3    H250876   5.886   2.240   3.606  0.2085  1.1357  0.4829
 9821TIP3   OH250877   5.712   1.148  15.778 -0.3258  0.0267 -0.2274
 9821TIP3    H150878   5.641   1.123  15.837 -1.3204 -1.8557 -2.1029
 9821TIP3    H250879   5.768   1.071  15.774  0.3140  0.5184 -0.8940
 9822TIP3   OH250880   2.649   1.272   2.348  0.4062 -0.2554 -0.3306
 9822TIP3    H150881   2.725   1.298   2.400  0.1488  0.3185 -0.2310
 9822TIP3    H250882   2.649   1.333   2.274 -0.8233  0.7517  0.4650
 9823TIP3   OH250883   2.946   5.711  11.377 -0.0675 -0.1733  0.1223
 9823TIP3    H150884   2.906   5.775  11.318 -1.3059 -0.3783  0.7114
 9823TIP3    H250885   3.030   5.751  11.402 -0.7496  1.1694  0.3734
 9824TIP3   OH250886   0.635   4.773  12.750 -0.3840 -0.1163  0.0549
 9824TIP3    H150887   0.640   4.858  12.708  0.0123  0.4753  1.2679
 9824TIP3    H250888   0.634   4.792  12.844 -2.2075 -1.3398  0.3339
 9825TIP3   OH250889   5.994   3.908  17.247  0.1393 -0.2275 -0.6022
 9825TIP3    H150890   5.992   3.877  17.337 -1.3248  0.9824 -0.1983
 9825TIP3    H250891   5.924   3.859  17.203  0.0933  0.0143 -0.8009
 9826TIP3   OH250892   2.433   2.393   0.614  0.1040  0.0560  0.4036
 9826TIP3    H150893   2.489   2.446   0.557 -0.7411  0.6597  0.1229
 9826TIP3    H250894   2.359   2.450   0.636 -0.1607 -0.5601  1.1753
 9827TIP3   OH250895   2.288   1.927   1.931  0.4010  0.6162  0.4214
 9827TIP3    H150896   2.255   1.996   1.988 -1.2430  0.0108  0.2622
 9827TIP3    H250897   2.226   1.924   1.858 -0.4104 -1.9380  1.1248
 9828TIP3   OH250898   2.006   6.633   1.591  0.2219  0.0069 -0.3913
 9828TIP3    H150899   1.995   6.538   1.583  2.1508 -0.3725  0.9285
 9828TIP3    H250900   2.036   6.660   1.504  0.3732 -0.6975 -0.5684
 9829TIP3   OH250901   1.873   5.314   3.891  0.1978  0.1489 -0.5165
 9829TIP3    H150902   1.793   5.323   3.838  0.3549 -0.2852 -0.8330
 9829TIP3    H250903   1.892   5.403   3.920 -0.4614  0.2430 -0.3480
 9830TIP3   OH250904   4.051   5.767  12.787  0.6565  0.4037 -0.2173
 9830TIP3    H150905   4.020   5.694  12.733  0.9139  0.0277  0.1425
 9830TIP3    H250906   4.033   5.845  12.734 -2.3201  0.3674  0.5902
 9831TIP3   OH250907   3.322   6.246  13.049 -0.1046  0.1924 -0.1787
 9831TIP3    H150908   3.253   6.235  12.985  0.1543 -1.1154 -0.2444
 9831TIP3    H250909   3.294   6.322  13.101 -0.5721  0.9299 -1.4758
 9832TIP3   OH250910   0.155   6.682  11.404  0.1731 -0.5428 -0.0009
 9832TIP3    H150911   0.168   6.768  11.366  0.9449 -1.9135 -3.1929
 9832TIP3    H250912   0.243   6.644  11.409 -0.3489 -2.0881 -1.3645
 9833TIP3   OH250913   0.035   0.644   1.011  0.0233 -0.4341 -0.2665
 9833TIP3    H150914   0.067   0.647   0.921  1.4954  0.4601  0.2445
 9833TIP3    H250915   0.089   0.578   1.054  0.6280  0.4590  0.3935
 9834TIP3   OH250916   5.042   5.889  16.237  0.4807 -0.2459  0.1572
 9834TIP3    H150917   4.947   5.881  16.232  0.5381 -0.4417 -0.8753
 9834TIP3    H250918   5.075   5.809  16.194  1.0902  1.0578 -1.9310
 9835TIP3   OH250919   4.185   2.990   6.724 -0.2796  0.6122  0.1530
 9835TIP3    H150920   4.091   3.007   6.738 -0.1120  2.0048 -0.2486
 9835TIP3    H250921   4.190   2.895   6.711 -1.5795  0.4529  0.5925
 9836TIP3   OH250922   1.853   1.668   2.569  0.0117  0.3559  0.4273
 9836TIP3    H150923   1.838   1.593   2.511 -2.1557  1.0385 -0.0208
 9836TIP3    H250924   1.876   1.739   2.510  0.6777  0.3792  0.7114
 9837TIP3   OH250925   6.518   2.442   0.542  0.1142 -0.2639  0.2525
 9837TIP3    H150926   6.546   2.515   0.596  4.0670 -1.5957  0.3385
 9837TIP3    H250927   6.459   2.392   0.597  0.4574  0.8052  1.6471
 9838TIP3   OH250928   3.218   2.072   4.252 -0.6945  0.5795  0.7279
 9838TIP3    H150929   3.188   2.009   4.186  0.4950 -2.7715  3.1591
 9838TIP3    H250930   3.137   2.110   4.286 -1.4366  0.6538 -1.0174
 9839TIP3   OH250931   1.052   0.222  16.234 -0.0086 -0.3702 -0.2838
 9839TIP3    H150932   1.037   0.192  16.145  0.9988 -1.9352  0.0233
 9839TIP3    H250933   0.965   0.241  16.269 -0.3399  1.3768 -1.9264
 9840TIP3   OH250934   3.011   4.392  16.550 -0.6413  0.1460  0.3734
 9840TIP3    H150935   3.001   4.298  16.539  0.1602  0.0883  0.1318
 9840TIP3    H250936   3.070   4.419  16.480 -2.2419  1.1204 -0.6970
 9841TIP3   OH250937   1.155   3.456  15.245  0.1647  0.1824 -0.5015
 9841TIP3    H150938   1.099   3.434  15.320  1.5504  1.3626  0.9556
 9841TIP3    H250939   1.188   3.371  15.215  1.0187 -0.2406  1.4324
 9842TIP3   OH250940   3.846   2.328   6.016  0.6893 -0.0614 -0.6170
 9842TIP3    H150941   3.891   2.402   5.975  0.1042  0.2068 -0.7810
 9842TIP3    H250942   3.766   2.366   6.053  0.0887 -0.7069 -1.2196
 9843TIP3   OH250943   2.953   1.413   1.721 -0.5116  0.4982 -0.2429
 9843TIP3    H150944   2.872   1.406   1.670 -0.7014  1.3631 -0.0724
 9843TIP3    H250945   2.928   1.386   1.810 -0.2635 -0.6565 -0.5040
 9844TIP3   OH250946   6.065   2.616  15.626  0.0991 -0.1041  0.4633
 9844TIP3    H150947   6.106   2.533  15.651 -2.0163 -1.0365  1.0927
 9844TIP3    H250948   6.133   2.681  15.639  2.2264 -1.8439 -1.2021
 9845TIP3   OH250949   3.710   4.012   2.557 -0.6925  0.0851 -0.6607
 9845TIP3    H150950   3.651   4.084   2.535  0.1203  1.1272  0.4366
 9845TIP3    H250951   3.729   4.024   2.650  0.3457 -0.8905 -0.7196
 9846TIP3   OH250952   0.818   3.567  11.956  0.1198  0.0414 -0.3331
 9846TIP3    H150953   0.896   3.622  11.949  0.0406  0.0906 -0.8950
 9846TIP3    H250954   0.783   3.564  11.867 -0.4494 -0.0844 -0.1079
 9847TIP3   OH250955   4.628   5.293  12.699  0.1658  0.6601  0.0609
 9847TIP3    H150956   4.623   5.386  12.676  2.0317  0.5406 -1.0168
 9847TIP3    H250957   4.667   5.292  12.787  1.2558  0.8934 -0.4029
 9848TIP3   OH250958   2.007   5.784  14.760 -0.1807  0.2665 -0.2430
 9848TIP3    H150959   2.010   5.699  14.803 -1.2916 -0.1850 -1.0282
 9848TIP3    H250960   1.930   5.780  14.704 -1.6969  2.6397  1.4885
 9849TIP3   OH250961   0.517   1.421  14.766 -0.4123 -0.3007  0.5002
 9849TIP3    H150962   0.467   1.502  14.750  1.9113  1.0538 -0.3504
 9849TIP3    H250963   0.516   1.376  14.681 -0.5271 -0.4985  0.6048
 9850TIP3   OH250964   0.678   2.665   5.631  0.2954  0.1833 -0.6177
 9850TIP3    H150965   0.597   2.658   5.681 -0.5719  0.3494 -1.9570
 9850TIP3    H250966   0.742   2.699   5.694 -0.2213 -1.4772  0.8967
 9851TIP3   OH250967   0.805   6.585  11.659 -0.3821  0.3406 -0.6795
 9851TIP3    H150968   0.750   6.663  11.668 -0.9454  0.1919 -2.3973
 9851TIP3    H250969   0.894   6.617  11.670 -0.6670  1.0031 -0.1688
 9852TIP3   OH250970   2.860   6.352  15.830  0.6191  0.3605  0.5346
 9852TIP3    H150971   2.863   6.265  15.868 -0.3301  0.2221  0.3214
 9852TIP3    H250972   2.867   6.338  15.735  0.5070  0.5184  0.5018
 9853TIP3   OH250973   6.730   1.861  15.671  0.1979 -0.0130  0.0884
 9853TIP3    H150974   6.713   1.818  15.587  1.0327  1.3822 -0.8453
 9853TIP3    H250975   6.656   1.920  15.683  0.2762  0.0754  0.1377
 9854TIP3   OH250976   3.734   1.287   5.783  0.0821 -0.6608  0.0383
 9854TIP3    H150977   3.685   1.320   5.707  0.9865  0.6413 -0.0058
 9854TIP3    H250978   3.826   1.297   5.758  0.3899 -0.7691  1.0883
 9855TIP3   OH250979   3.130   0.947  14.636 -0.0072 -0.1568 -0.4129
 9855TIP3    H150980   3.089   1.009  14.696 -1.6762  0.0460 -1.6891
 9855TIP3    H250981   3.072   0.870  14.638 -0.7710  0.2925 -2.5684
 9856TIP3   OH250982   5.276   3.179  13.265 -0.1873  0.1517 -0.1138
 9856TIP3    H150983   5.360   3.138  13.241 -0.2902  0.4279 -0.9834
 9856TIP3    H250984   5.281   3.267  13.229 -0.9090  0.1262 -0.2944
 9857TIP3   OH250985   1.443   0.146  17.312 -0.5488  0.1909 -0.3614
 9857TIP3    H150986   1.438   0.075  17.376 -1.7706  0.4330 -0.1742
 9857TIP3    H250987   1.368   0.133  17.255  0.4364  0.0688 -1.6830
 9858TIP3   OH250988   4.052   1.093  16.780 -0.3346 -0.0707  0.8593
 9858TIP3    H150989   3.974   1.041  16.764 -0.3851  0.5037 -1.0959
 9858TIP3    H250990   4.020   1.172  16.824 -0.9660  0.3879 -0.3734
 9859TIP3   OH250991   1.761   1.951   3.483 -0.3741  0.0095  0.5828
 9859TIP3    H150992   1.730   1.861   3.495  0.2336 -0.4853 -1.2201
 9859TIP3    H250993   1.692   1.993   3.432  0.0043  0.1201  0.1515
 9860TIP3   OH250994   3.069   2.321  13.050 -0.1721 -0.1400 -0.2117
 9860TIP3    H150995   3.130   2.376  13.002  0.2280 -1.3893 -1.1961
 9860TIP3    H250996   3.005   2.292  12.985 -1.4283  0.5522  0.6506
 9861TIP3   OH250997   6.338   0.274   6.180  0.0390 -0.1296  0.4018
 9861TIP3    H150998   6.272   0.213   6.146 -0.0226 -1.0521  2.0679
 9861TIP3    H250999   6.351   0.246   6.271  2.9232 -0.1305  0.0626
 9862TIP3   OH251000   5.903   4.061  14.559  0.2155 -0.5796 -0.1837
 9862TIP3    H151001   5.873   4.009  14.634  1.3096 -0.3605  0.4207
 9862TIP3    H251002   5.895   4.152  14.588  1.7221 -0.5220  0.1113
 9863TIP3   OH251003   5.679   5.420   1.550  0.0615 -0.0433  0.0652
 9863TIP3    H151004   5.699   5.328   1.566  0.8835  0.2461  0.8357
 9863TIP3    H251005   5.685   5.461   1.637  0.7609  0.9072 -0.4049
 9864TIP3   OH251006   2.473   2.732   0.214 -0.3634 -0.0177  0.2232
 9864TIP3    H151007   2.401   2.669   0.210 -0.5909 -0.1004  3.2018
 9864TIP3    H251008   2.551   2.678   0.229  0.0338  0.2079 -0.9587
 9865TIP3   OH251009   5.099   2.216   3.058 -0.2088 -0.2829 -0.5482
 9865TIP3    H151010   5.096   2.121   3.069 -1.3752 -0.5353 -2.6430
 9865TIP3    H251011   5.116   2.229   2.965 -3.5345  1.4686 -1.0867
 9866TIP3   OH251012   6.524   2.958  15.286 -0.7999 -0.5523 -0.1343
 9866TIP3    H151013   6.573   2.908  15.220  0.2836  2.4748 -1.8281
 9866TIP3    H251014   6.580   2.957  15.364  0.1099 -0.4385 -0.7692
 9867TIP3   OH251015   5.088   1.736  12.917  0.4436  0.1091 -0.0025
 9867TIP3    H151016   5.115   1.827  12.906 -0.6160  0.3600 -0.7212
 9867TIP3    H251017   5.062   1.729  13.009  1.0501  0.3831  0.1910
 9868TIP3   OH251018   3.368   0.805  14.998 -0.2665  0.1956 -0.2035
 9868TIP3    H151019   3.429   0.793  14.926  2.0312  0.2734  1.6024
 9868TIP3    H251020   3.403   0.879  15.047 -3.2247  1.8978 -0.3715
 9869TIP3   OH251021   0.712   2.526  11.897  0.3959  0.2217  1.3432
 9869TIP3    H151022   0.784   2.557  11.842 -0.8709 -0.9523 -1.1151
 9869TIP3    H251023   0.729   2.432  11.907 -1.9671 -0.6072 -1.3664
 9870TIP3   OH251024   4.545   3.504  12.032  0.0697 -0.2812 -0.3819
 9870TIP3    H151025   4.490   3.437  12.073 -0.7760  0.1286 -0.8153
 9870TIP3    H251026   4.534   3.489  11.938 -0.9421  1.0731 -0.5139
 9871TIP3   OH251027   4.673   2.850   2.477  0.8070 -0.4452 -0.1878
 9871TIP3    H151028   4.580   2.828   2.489  0.8086 -1.1637 -1.3284
 9871TIP3    H251029   4.696   2.899   2.555 -0.9981  1.3017 -0.6590
 9872TIP3   OH251030   3.025   5.036  13.450  0.2247  0.0017  0.6279
 9872TIP3    H151031   2.952   5.097  13.438 -0.3561 -0.5481  1.3023
 9872TIP3    H251032   2.987   4.962  13.497  0.6172 -1.5086 -1.3258
 9873TIP3   OH251033   0.565   6.153   2.320  0.3305 -0.2341  0.3019
 9873TIP3    H151034   0.568   6.113   2.233  2.0235 -0.1518  0.2913
 9873TIP3    H251035   0.490   6.112   2.363 -0.1304 -0.7531 -0.9587
 9874TIP3   OH251036   2.744   1.450  16.229 -0.1232 -0.1045 -0.1276
 9874TIP3    H151037   2.695   1.408  16.299 -2.2542  2.7172  0.2535
 9874TIP3    H251038   2.684   1.450  16.154 -0.1425  1.9320 -0.1689
 9875TIP3   OH251039   1.360   6.649  13.305 -0.0890 -0.2059  0.2506
 9875TIP3    H151040   1.267   6.674  13.305 -0.1671 -0.4627  0.9168
 9875TIP3    H251041   1.358   6.553  13.297  0.1834 -0.1012 -1.6374
 9876TIP3   OH251042   1.451   4.883  14.826  0.4678  0.0316  0.0995
 9876TIP3    H151043   1.531   4.907  14.873 -1.1233  2.0825  1.9658
 9876TIP3    H251044   1.457   4.929  14.743  1.3224 -0.0038  0.1362
 9877TIP3   OH251045   2.803   3.338  13.031  0.8948  0.3825 -0.7838
 9877TIP3    H151046   2.783   3.247  13.052  0.3041  0.6535 -0.1031
 9877TIP3    H251047   2.892   3.337  12.998  0.3977 -0.6317 -2.1665
 9878TIP3   OH251048   5.688   1.931   1.791  0.0776  0.3747  0.5269
 9878TIP3    H151049   5.652   2.013   1.824 -0.6847  0.0566  0.4902
 9878TIP3    H251050   5.708   1.879   1.869  1.3606  0.9073  0.5906
 9879TIP3   OH251051   4.750   5.864  13.575  0.1809 -0.8496  0.8992
 9879TIP3    H151052   4.820   5.876  13.511  0.0779 -0.4074  0.8706
 9879TIP3    H251053   4.677   5.915  13.541  0.4825  0.3037  1.9277
 9880TIP3   OH251054   6.510   2.287  15.822 -0.3020 -0.6389  0.4806
 9880TIP3    H151055   6.572   2.340  15.872  1.0779 -0.8159 -0.9530
 9880TIP3    H251056   6.429   2.289  15.873  0.0163  1.9363  0.9943
 9881TIP3   OH251057   6.181   1.246  12.304 -0.6924  0.0151 -0.7811
 9881TIP3    H151058   6.189   1.151  12.314  0.9831 -0.1398 -2.8539
 9881TIP3    H251059   6.142   1.276  12.386  0.2970 -2.2644  0.6062
 9882TIP3   OH251060   2.434   1.489  14.857 -0.2599  0.0837 -0.5080
 9882TIP3    H151061   2.426   1.469  14.764 -2.0839 -1.1148 -0.1446
 9882TIP3    H251062   2.411   1.407  14.902  2.4064  0.0577  1.0310
 9883TIP3   OH251063   6.699   6.164  15.171  0.4432  0.1830  0.0286
 9883TIP3    H151064   6.715   6.103  15.242 -1.0438 -0.8096 -0.4428
 9883TIP3    H251065   6.676   6.247  15.214 -3.1809 -1.0875  0.8687
 9884TIP3   OH251066   4.600   1.832  16.597 -0.6181  0.5489  0.3722
 9884TIP3    H151067   4.642   1.855  16.680 -0.8738  1.6361  0.2183
 9884TIP3    H251068   4.509   1.861  16.608 -1.0192 -0.6301  0.2442
 9885TIP3   OH251069   1.163   3.768  13.050  0.0752  0.2602  0.0858
 9885TIP3    H151070   1.171   3.700  13.117 -1.4868 -0.9958 -0.9172
 9885TIP3    H251071   1.178   3.850  13.096 -0.6599 -0.5772  1.9040
 9886TIP3   OH251072   1.293   3.135  16.783 -0.6026 -0.1104 -0.7128
 9886TIP3    H151073   1.215   3.163  16.736 -0.5828 -1.2604 -1.4575
 9886TIP3    H251074   1.264   3.064  16.839 -0.7837  1.6876  1.6506
 9887TIP3   OH251075   4.109   6.749  13.946 -0.2666  0.8025  0.0408
 9887TIP3    H151076   4.192   6.714  13.914 -0.4031  1.1798 -0.7354
 9887TIP3    H251077   4.056   6.672  13.964 -0.2628  0.5854 -0.8521
 9888TIP3   OH251078   0.951   0.273  13.329  0.3085 -0.2674 -0.2982
 9888TIP3    H151079   0.981   0.278  13.239  1.0451 -1.7444 -0.1574
 9888TIP3    H251080   1.031   0.266  13.381 -0.1394 -2.3828  0.2188
 9889TIP3   OH251081   0.131   5.301  16.819  0.0164  0.2395  0.2637
 9889TIP3    H151082   0.104   5.231  16.879  0.9659 -1.5945 -1.3101
 9889TIP3    H251083   0.226   5.304  16.827 -0.0234  1.5596  0.4712
 9890TIP3   OH251084   0.928   4.133  12.112 -0.1804  0.2338  0.0660
 9890TIP3    H151085   0.869   4.164  12.180  0.9055  2.9803 -0.1122
 9890TIP3    H251086   0.897   4.177  12.032 -0.8399 -2.1725 -1.0820
 9891TIP3   OH251087   0.620   4.883   0.359 -0.0621  0.6157  0.6611
 9891TIP3    H151088   0.533   4.900   0.394 -0.5329  0.6094 -0.4712
 9891TIP3    H251089   0.634   4.790   0.375 -0.7715  0.3412 -0.1852
 9892TIP3   OH251090   3.125   5.778   0.447  0.3364  0.0307 -0.0189
 9892TIP3    H151091   3.106   5.704   0.505  1.2590 -0.8740 -0.8102
 9892TIP3    H251092   3.181   5.835   0.500  1.1864 -0.7904  0.0150
 9893TIP3   OH251093   0.060   2.386  14.191  0.1596 -0.3443  0.3412
 9893TIP3    H151094   0.097   2.473  14.180  1.0166 -0.6478  0.7340
 9893TIP3    H251095   0.101   2.333  14.123 -0.3808 -0.4371  0.0844
 9894TIP3   OH251096   2.647   3.101  16.069  0.1393 -0.3890  0.9219
 9894TIP3    H151097   2.733   3.133  16.043 -0.3750 -0.5802 -1.2277
 9894TIP3    H251098   2.593   3.179  16.076 -0.6426 -0.4770 -2.4727
 9895TIP3   OH251099   0.489   4.412  12.405  0.0834 -0.0287 -0.3285
 9895TIP3    H151100   0.523   4.383  12.321  0.3148  1.4534 -0.7714
 9895TIP3    H251101   0.552   4.380  12.469  0.8017  0.2690 -0.8796
 9896TIP3   OH251102   3.948   1.468  11.904  0.1508 -0.4829  0.2460
 9896TIP3    H151103   3.989   1.536  11.957 -2.4503  0.2970  1.4366
 9896TIP3    H251104   4.002   1.390  11.919  0.5286  0.1612  2.6631
 9897TIP3   OH251105   0.946   6.363  12.713 -0.7701  0.7026 -0.2883
 9897TIP3    H151106   1.032   6.366  12.673 -1.6558  0.1404 -2.3668
 9897TIP3    H251107   0.885   6.350  12.640 -2.4269 -1.2285  1.2956
 9898TIP3   OH251108   1.889   4.251  15.136 -0.6328  0.5948  0.1794
 9898TIP3    H151109   1.916   4.205  15.216 -0.2066  0.1616 -0.2107
 9898TIP3    H251110   1.860   4.181  15.077 -1.1223  0.9276  0.0151
 9899TIP3   OH251111   2.982   1.880  12.324 -0.2560 -0.4030  0.5313
 9899TIP3    H151112   2.969   1.963  12.371  0.9840 -0.5929  1.2645
 9899TIP3    H251113   3.072   1.885  12.291  1.2445 -2.9032  3.7295
 9900TIP3   OH251114   2.705   2.877  12.085 -0.4364 -0.1150  0.4046
 9900TIP3    H151115   2.695   2.943  12.153 -0.2619 -0.7817  1.0910
 9900TIP3    H251116   2.635   2.897  12.022 -0.5828  0.5214  0.7598
 9901TIP3   OH251117   0.162   5.032  12.109  0.1476 -0.0692 -0.1764
 9901TIP3    H151118   0.207   5.093  12.051 -0.6449 -0.3907 -1.1658
 9901TIP3    H251119   0.069   5.041  12.085 -0.0371 -1.2405  0.0481
 9902TIP3   OH251120   1.582   6.323   0.176 -0.0205 -0.4554 -0.4725
 9902TIP3    H151121   1.616   6.236   0.153  2.9345 -0.0780  1.8137
 9902TIP3    H251122   1.502   6.306   0.225  1.1530 -2.0745  1.0122
 9903TIP3   OH251123   5.162   3.344   0.261 -0.2194  0.3020  0.1082
 9903TIP3    H151124   5.109   3.406   0.212 -0.8499 -0.3166 -0.0001
 9903TIP3    H251125   5.250   3.352   0.223 -0.9286 -1.0093 -1.9586
 9904TIP3   OH251126   4.737   3.529  13.265 -0.2545 -0.1190  0.2459
 9904TIP3    H151127   4.705   3.517  13.175  1.0678 -2.3719 -0.0073
 9904TIP3    H251128   4.664   3.500  13.320 -0.4906 -0.3031 -0.1575
 9905TIP3   OH251129   0.755   2.370  15.527 -0.6896  0.2222 -0.1300
 9905TIP3    H151130   0.827   2.337  15.581 -2.4643 -0.9339  1.6531
 9905TIP3    H251131   0.701   2.293  15.509 -0.9700  0.8747 -2.3220
 9906TIP3   OH251132   6.386   6.130  15.969 -0.4036 -0.2530 -0.0391
 9906TIP3    H151133   6.435   6.207  15.998 -0.3418 -0.1792 -0.3360
 9906TIP3    H251134   6.328   6.163  15.901  0.6862 -0.7384 -1.2302
 9907TIP3   OH251135   3.590   2.996  16.287 -0.0967  0.0363  0.1845
 9907TIP3    H151136   3.591   3.085  16.252 -2.5064 -0.2627 -0.7980
 9907TIP3    H251137   3.672   2.989  16.336  0.7839  2.3279 -0.8221
 9908TIP3   OH251138   5.054   3.862  13.713  0.1556 -0.0995 -0.3375
 9908TIP3    H151139   5.059   3.771  13.744 -0.5530 -0.8053 -2.1293
 9908TIP3    H251140   4.969   3.894  13.745  0.2545 -0.1756  0.0069
 9909TIP3   OH251141   0.593   6.215   5.517 -0.3314 -0.1117  0.2268
 9909TIP3    H151142   0.583   6.196   5.423  0.9233 -2.0256  0.4277
 9909TIP3    H251143   0.585   6.130   5.559 -0.5724  0.6864  1.8618
 9910TIP3   OH251144   3.013   6.203  15.574 -0.0885 -0.0938 -0.0283
 9910TIP3    H151145   3.073   6.274  15.598 -0.8665  0.9105 -1.0005
 9910TIP3    H251146   2.980   6.227  15.488 -0.9164 -1.2863 -0.0637
 9911TIP3   OH251147   1.195   0.469  17.010 -0.0462 -0.2380 -0.1252
 9911TIP3    H151148   1.223   0.556  17.040 -0.5744 -0.1561  0.1456
 9911TIP3    H251149   1.128   0.487  16.944  0.2630 -0.4364 -0.4982
 9912TIP3   OH251150   0.861   5.284  14.607 -0.0162 -0.1421  0.2500
 9912TIP3    H151151   0.818   5.213  14.656  0.5318  0.7760  2.1499
 9912TIP3    H251152   0.910   5.332  14.673  0.3447  1.4917 -1.1482
 9913TIP3   OH251153   3.402   2.720  13.787  0.4034 -0.9978  0.0613
 9913TIP3    H151154   3.397   2.760  13.874  0.0837  0.9927 -0.8141
 9913TIP3    H251155   3.326   2.661  13.784 -0.7299  0.3754  0.4744
 9914TIP3   OH251156   1.871   0.411  16.688 -1.2609  0.0230 -0.1389
 9914TIP3    H151157   1.890   0.490  16.738 -1.4678  0.4573 -0.7257
 9914TIP3    H251158   1.876   0.439  16.597  2.5945 -1.5205 -0.5625
 9915TIP3   OH251159   3.543   3.230  12.079 -0.2256  0.2471 -0.3409
 9915TIP3    H151160   3.587   3.312  12.058 -0.5327  0.3460 -0.6259
 9915TIP3    H251161   3.497   3.207  11.997  1.1773 -1.0601 -0.7967
 9916TIP3   OH251162   4.116   1.919  13.584  0.7238  0.2358  0.1836
 9916TIP3    H151163   4.067   1.895  13.505 -0.0620  0.5037  0.5883
 9916TIP3    H251164   4.206   1.929  13.553  0.6564 -0.8756 -0.4435
 9917TIP3   OH251165   3.157   3.493   1.412 -0.5963  0.2455  0.2178
 9917TIP3    H151166   3.128   3.537   1.492 -1.3692  0.5969 -0.2491
 9917TIP3    H251167   3.079   3.487   1.358  0.3475  2.0461 -1.4779
 9918TIP3   OH251168   1.419   0.062   4.528 -0.2671  0.3916 -0.7785
 9918TIP3    H151169   1.508   0.049   4.493 -0.5727  0.6904 -1.6797
 9918TIP3    H251170   1.407  -0.011   4.589  0.4782  0.1579 -0.8972
 9919TIP3   OH251171   2.419   5.427   0.432 -0.4787  0.6592  0.1859
 9919TIP3    H151172   2.386   5.485   0.363 -1.0211 -0.8214 -0.8574
 9919TIP3    H251173   2.514   5.428   0.420 -0.6395 -0.8271 -1.7126
 9920TIP3   OH251174   5.013   5.280  10.692  0.1281 -0.4380  0.4606
 9920TIP3    H151175   5.040   5.355  10.745  0.2288 -0.3451  0.2803
 9920TIP3    H251176   4.940   5.312  10.639  0.6766 -0.2334 -0.1908
 9921TIP3   OH251177   2.449   6.622  11.170  0.0939 -0.2752 -0.2673
 9921TIP3    H151178   2.464   6.616  11.265  2.3455  2.2499 -0.3351
 9921TIP3    H251179   2.416   6.711  11.157 -0.3236 -0.6417 -1.8439
 9922TIP3   OH251180   5.109   3.359   4.213  0.0743  0.4166 -0.3699
 9922TIP3    H151181   5.092   3.413   4.289 -0.7963  1.3894 -1.2191
 9922TIP3    H251182   5.037   3.295   4.212 -1.2326  1.8353 -1.5924
 9923TIP3   OH251183   2.969   3.503  10.834 -0.6173 -0.4235  0.4742
 9923TIP3    H151184   3.004   3.587  10.806  2.4938 -2.1313 -1.3828
 9923TIP3    H251185   2.884   3.497  10.790 -0.3985  1.2916 -0.2512
 9924TIP3   OH251186   3.682   6.588  12.769  0.6698  0.1886 -0.3253
 9924TIP3    H151187   3.599   6.542  12.775  1.4547 -1.1812  0.4983
 9924TIP3    H251188   3.663   6.677  12.800 -0.2602 -0.4145  0.9247
 9925TIP3   OH251189   5.401   2.016  12.610  0.1265  1.0178 -0.5835
 9925TIP3    H151190   5.479   1.962  12.620 -0.6089 -0.3159 -1.5887
 9925TIP3    H251191   5.402   2.044  12.519 -2.1889 -1.8529 -1.6772
 9926TIP3   OH251192   3.854   2.417   5.022 -0.2520  0.4270  0.1130
 9926TIP3    H151193   3.855   2.364   4.942  1.1471  0.7091 -0.0862
 9926TIP3    H251194   3.771   2.396   5.064 -0.7588 -0.1550 -1.1299
 9927TIP3   OH251195   2.089   2.415  15.485  0.1470  0.3787 -0.0365
 9927TIP3    H151196   2.120   2.344  15.429 -0.4639  0.1955 -0.1419
 9927TIP3    H251197   2.092   2.492  15.429  0.9675  0.4798  0.1259
 9928TIP3   OH251198   2.530   3.664   5.357  0.1704  0.3360 -0.2600
 9928TIP3    H151199   2.476   3.714   5.417 -1.4007 -0.8343 -0.6360
 9928TIP3    H251200   2.561   3.589   5.408 -2.2316 -1.3822 -1.0986
 9929TIP3   OH251201   2.597   4.012  12.344 -0.5441  0.3790  0.0409
 9929TIP3    H151202   2.518   4.062  12.365 -0.4255  0.7857 -0.4409
 9929TIP3    H251203   2.607   4.023  12.249 -0.3437 -0.3121 -0.0229
 9930TIP3   OH251204   3.942   3.698  14.005 -0.2376  0.4165 -0.1315
 9930TIP3    H151205   3.951   3.739  14.091  0.3608 -2.0357  1.0736
 9930TIP3    H251206   4.027   3.656  13.989 -1.5825 -2.5629  0.0069
 9931TIP3   OH251207   4.400   1.814  13.516 -0.9580  0.2592  0.1199
 9931TIP3    H151208   4.419   1.880  13.583 -0.9176  0.1881  0.1787
 9931TIP3    H251209   4.450   1.842  13.440 -1.5086  0.6984 -0.0930
 9932TIP3   OH251210   1.645   6.234  16.733 -0.2508 -0.3240  0.1587
 9932TIP3    H151211   1.688   6.196  16.657  0.4794 -0.1602  0.4853
 9932TIP3    H251212   1.605   6.160  16.778  0.3775 -0.5777  0.2953
 9933TIP3   OH251213   2.247   5.604  10.377  0.2136 -0.0038  0.2159
 9933TIP3    H151214   2.305   5.543  10.330 -1.0507  0.0965 -1.5795
 9933TIP3    H251215   2.216   5.554  10.452  0.4574 -1.0310 -0.3344
 9934TIP3   OH251216   3.171   0.855   1.241 -0.4781 -0.3560  0.0857
 9934TIP3    H151217   3.077   0.869   1.237 -0.2459  1.4681  0.0333
 9934TIP3    H251218   3.195   0.825   1.153 -0.6378  2.1312 -0.8731
 9935TIP3   OH251219   0.491   5.433   6.058 -0.0983  0.4408 -0.0264
 9935TIP3    H151220   0.572   5.451   6.106 -1.9102  1.4571  2.9519
 9935TIP3    H251221   0.496   5.340   6.036  1.6034  0.3404  0.6216
 9936TIP3   OH251222   2.827   4.066  13.739  0.2545  0.3665  0.3889
 9936TIP3    H151223   2.734   4.045  13.740  0.1659  0.6115 -0.8753
 9936TIP3    H251224   2.866   4.001  13.680  1.0378 -0.2660  1.5588
 9937TIP3   OH251225   2.967   3.549   5.088 -0.4382 -0.1714 -0.1581
 9937TIP3    H151226   2.939   3.636   5.060  1.6701  0.5501 -0.1522
 9937TIP3    H251227   2.944   3.492   5.014 -1.7297  0.3740 -0.2057
 9938TIP3   OH251228   2.196   5.948  15.176  0.3824  0.2051  0.0931
 9938TIP3    H151229   2.214   6.033  15.217  0.4915  0.1963  0.0635
 9938TIP3    H251230   2.135   5.968  15.105 -0.5903  0.0836  0.8816
 9939TIP3   OH251231   0.685   5.009  15.155 -0.0403  0.0654 -0.3458
 9939TIP3    H151232   0.720   5.038  15.240  0.1917  0.0196 -0.4253
 9939TIP3    H251233   0.645   5.087  15.118  3.3190  1.1918 -1.9830
 9940TIP3   OH251234   4.065   4.603  16.014  0.3059  0.2147 -0.4186
 9940TIP3    H151235   4.130   4.560  15.958  0.1209  0.0456 -0.5041
 9940TIP3    H251236   4.019   4.664  15.955  2.6218  2.8961  0.2939
 9941TIP3   OH251237   2.257   5.454  16.122  0.0019  0.4199  0.2388
 9941TIP3    H151238   2.208   5.535  16.135  1.4227  1.2831  0.4116
 9941TIP3    H251239   2.281   5.454  16.029 -1.8941 -0.9582 -0.3212
 9942TIP3   OH251240   3.033   3.784  11.580 -0.0459  0.1931  1.1984
 9942TIP3    H151241   3.029   3.692  11.608 -1.8026 -0.0795  0.1926
 9942TIP3    H251242   2.941   3.810  11.570  0.3883  0.8879 -2.2270
 9943TIP3   OH251243   5.064   4.241   2.448 -0.2808  0.0045  0.0930
 9943TIP3    H151244   4.976   4.274   2.433 -0.7456 -0.8508  0.8847
 9943TIP3    H251245   5.120   4.319   2.445 -1.2111  0.7176  0.8017
 9944TIP3   OH251246   3.521   2.284  14.510  0.0516 -0.0627  0.0515
 9944TIP3    H151247   3.607   2.292  14.468  0.5693  0.0283  1.0864
 9944TIP3    H251248   3.487   2.373  14.511  0.0133 -0.0727 -0.2079
 9945TIP3   OH251249   1.647   0.196  13.905  0.0368 -0.1139 -0.4598
 9945TIP3    H151250   1.706   0.139  13.954  1.3326  0.7925 -0.9100
 9945TIP3    H251251   1.633   0.272  13.962  1.7255  1.0465 -1.5001
 9946TIP3   OH251252   2.945   0.808  13.948  0.3322 -0.3022 -0.9530
 9946TIP3    H151253   3.021   0.752  13.963 -1.1166 -1.7794  1.3460
 9946TIP3    H251254   2.926   0.847  14.033 -0.7935  0.9978 -1.7444
 9947TIP3   OH251255   5.737   2.704   2.137 -0.4356 -0.1295  0.1988
 9947TIP3    H151256   5.748   2.721   2.230 -2.1895 -0.9614  0.6095
 9947TIP3    H251257   5.714   2.612   2.132 -1.5225  0.1719 -0.9292
 9948TIP3   OH251258   6.737   4.158   2.206 -0.6915 -0.4137 -0.1690
 9948TIP3    H151259   6.809   4.176   2.267  0.6237 -1.8841 -1.2055
 9948TIP3    H251260   6.747   4.225   2.138 -0.4183 -0.4965 -0.2128
 9949TIP3   OH251261   5.736   6.611   1.084 -0.1214 -0.3566 -0.2800
 9949TIP3    H151262   5.698   6.635   1.168  0.4122 -2.9513  0.7838
 9949TIP3    H251263   5.672   6.640   1.019 -2.0995 -1.1524  1.2235
 9950TIP3   OH251264   6.710   4.341   4.659  0.2349  0.5303 -0.1677
 9950TIP3    H151265   6.757   4.344   4.742  0.1417  1.9942 -0.1537
 9950TIP3    H251266   6.618   4.329   4.683  0.4996 -2.2621 -0.1931
 9951TIP3   OH251267   1.583   3.935   3.959  0.4726  0.1046  0.2805
 9951TIP3    H151268   1.565   3.849   3.921 -0.7062  1.0116 -1.3310
 9951TIP3    H251269   1.505   3.954   4.013  1.0253 -0.1017  1.1724
 9952TIP3   OH251270   1.880   5.903  16.850  0.0439 -0.7062  0.3179
 9952TIP3    H151271   1.787   5.892  16.869  0.0722 -0.6517  0.4929
 9952TIP3    H251272   1.925   5.863  16.925  0.1779 -2.1224 -0.4813
 9953TIP3   OH251273   2.434   6.004   1.464 -0.3624  0.6034  0.2230
 9953TIP3    H151274   2.441   5.915   1.427  0.4958  1.7311 -2.6134
 9953TIP3    H251275   2.523   6.025   1.492  0.0865  1.5052 -1.6991
 9954TIP3   OH251276   0.006   6.157  16.637  0.0462 -0.2247  0.3106
 9954TIP3    H151277   0.089   6.112  16.617  0.3411  0.3999  0.1180
 9954TIP3    H251278   0.012   6.177  16.730 -0.7281 -1.8903  0.7575
 9955TIP3   OH251279   2.506   1.399   2.027 -0.1691 -0.0205 -0.0823
 9955TIP3    H151280   2.532   1.465   2.092 -3.6150  0.1790  1.3221
 9955TIP3    H251281   2.588   1.353   2.006  1.6766  2.0893  1.8653
 9956TIP3   OH251282   0.043   1.728   0.962 -0.1789  0.3842 -0.5119
 9956TIP3    H151283   0.016   1.790   0.894 -2.1809  1.0815  0.8320
 9956TIP3    H251284  -0.004   1.756   1.040  0.7896 -1.3749  0.7720
 9957TIP3   OH251285   0.505   3.187  13.598 -0.8785  0.2836 -0.0113
 9957TIP3    H151286   0.425   3.141  13.571 -0.6215 -0.4459  0.4638
 9957TIP3    H251287   0.512   3.170  13.692 -1.1773  1.9110  0.3456
 9958TIP3   OH251288   0.516   5.732  10.610 -0.6671 -0.1179  0.0737
 9958TIP3    H151289   0.606   5.765  10.621 -0.0992 -1.0591 -1.5065
 9958TIP3    H251290   0.479   5.785  10.539 -1.7395  0.9135  1.3380
 9959TIP3   OH251291   3.921   6.075  16.227 -0.2942  0.0442 -0.0587
 9959TIP3    H151292   3.878   6.161  16.224  0.6959  0.6281 -4.1209
 9959TIP3    H251293   4.000   6.090  16.279 -0.9648  1.1326  0.6872
 9960TIP3   OH251294   1.092   0.740  14.187  0.1626  0.2415 -0.2616
 9960TIP3    H151295   1.065   0.831  14.174 -1.6812 -0.2444 -0.1873
 9960TIP3    H251296   1.131   0.739  14.274  0.5446  1.0166 -0.4121
 9961TIP3   OH251297   3.062   0.895   3.347  0.1368 -0.6512  0.1483
 9961TIP3    H151298   3.098   0.928   3.264  0.6549 -0.5251  0.4242
 9961TIP3    H251299   3.022   0.811   3.323 -0.1693 -0.3807 -0.3282
 9962TIP3   OH251300   5.385   3.927  13.454 -0.5094 -0.0868 -0.2707
 9962TIP3    H151301   5.374   4.020  13.437 -1.7006  0.1375  1.4508
 9962TIP3    H251302   5.296   3.893  13.458 -0.1088 -1.1446 -0.0932
 9963TIP3   OH251303   0.754   2.635  14.136  0.1330  0.8802 -0.4909
 9963TIP3    H151304   0.803   2.718  14.129  0.5509  0.8967  1.7933
 9963TIP3    H251305   0.719   2.636  14.225 -0.2499 -1.2085 -0.5816
 9964TIP3   OH251306   1.562   2.838  11.909 -0.0773  0.1189  0.2147
 9964TIP3    H151307   1.539   2.931  11.903  1.1318  0.4400  0.3774
 9964TIP3    H251308   1.580   2.812  11.818  1.2077  0.4862  0.3488
 9965TIP3   OH251309   1.491   5.835  16.547 -0.0857 -0.3608 -0.2503
 9965TIP3    H151310   1.503   5.883  16.465  0.6224  0.2124  0.1752
 9965TIP3    H251311   1.506   5.743  16.524 -1.6007 -0.4230 -1.1039
 9966TIP3   OH251312   5.878   5.289  14.864  0.3538 -0.1947  0.5266
 9966TIP3    H151313   5.817   5.291  14.791  0.4842 -1.5133  0.3569
 9966TIP3    H251314   5.923   5.374  14.860 -0.9305  0.4977  0.2180
 9967TIP3   OH251315   1.829   6.121   2.566  0.0538  0.3548 -0.0621
 9967TIP3    H151316   1.815   6.177   2.490  0.2825  2.4355  1.3535
 9967TIP3    H251317   1.745   6.120   2.612 -0.7788 -2.7013 -1.3554
 9968TIP3   OH251318   6.322   5.400  13.326 -0.1035  0.4025 -0.0033
 9968TIP3    H151319   6.298   5.315  13.363  1.9370 -0.3874 -0.3514
 9968TIP3    H251320   6.361   5.447  13.399 -0.6261  0.7907  0.0284
 9969TIP3   OH251321   3.181   3.498  11.041 -0.1182  0.0892 -0.1133
 9969TIP3    H151322   3.220   3.570  10.992  0.2419 -0.4957 -0.7054
 9969TIP3    H251323   3.107   3.469  10.987 -1.1905  0.9595  0.8307
 9970TIP3   OH251324   0.724   0.107   0.934 -0.6708 -0.3397 -0.3842
 9970TIP3    H151325   0.669   0.077   1.006  0.3594 -1.0157  0.1431
 9970TIP3    H251326   0.670   0.094   0.856 -1.2045 -1.1253  0.1025
 9971TIP3   OH251327   5.477   4.435   1.574 -0.2314  0.2284  0.5067
 9971TIP3    H151328   5.464   4.526   1.546  0.5768  0.6795  1.5624
 9971TIP3    H251329   5.494   4.388   1.492 -2.3021  0.6870 -0.2641
 9972TIP3   OH251330   2.199   0.691   4.673  0.2779 -0.1158 -0.0499
 9972TIP3    H151331   2.218   0.770   4.723 -1.1405  0.8608 -0.9816
 9972TIP3    H251332   2.130   0.647   4.722 -3.2137  2.2963 -2.3695
 9973TIP3   OH251333   5.308   0.535  13.399  0.6715 -0.1832 -0.4202
 9973TIP3    H151334   5.229   0.589  13.401  0.8089 -0.0071  1.1568
 9973TIP3    H251335   5.368   0.577  13.460  0.2553 -2.8784  2.0356
 9974TIP3   OH251336   3.514   6.395   1.906  0.3830  0.1213  0.5753
 9974TIP3    H151337   3.521   6.482   1.867  1.6393 -0.1281  0.2146
 9974TIP3    H251338   3.506   6.335   1.831 -0.5578 -0.0784  0.8220
 9975TIP3   OH251339   6.449   4.153   3.119  0.1406 -0.6669 -0.6352
 9975TIP3    H151340   6.413   4.239   3.096  0.4651  0.0441  1.3544
 9975TIP3    H251341   6.530   4.172   3.165  0.6681 -2.1002 -0.9204
 9976TIP3   OH251342   4.744   1.488   0.700 -0.7864 -0.4012  0.2031
 9976TIP3    H151343   4.724   1.398   0.674 -0.6665 -0.2634 -0.3798
 9976TIP3    H251344   4.707   1.542   0.629 -0.2542 -0.0318  0.2035
 9977TIP3   OH251345   2.400   3.213  15.244  0.0122  0.1248  0.2302
 9977TIP3    H151346   2.373   3.249  15.329 -0.6355  0.8215 -0.2607
 9977TIP3    H251347   2.339   3.251  15.181 -0.1813 -1.2097 -0.4234
 9978TIP3   OH251348   4.359   4.302  14.652  0.0043  0.5483  0.2808
 9978TIP3    H151349   4.426   4.351  14.603 -0.5875  1.3149  0.2180
 9978TIP3    H251350   4.409   4.247  14.712  0.6852  1.3622  0.4767
 9979TIP3   OH251351   4.590   2.043  14.249  0.1181  0.5734 -0.1726
 9979TIP3    H151352   4.530   1.984  14.295  0.3975  1.1441  0.9474
 9979TIP3    H251353   4.671   2.040  14.300  1.0230 -0.0597 -1.5686
 9980TIP3   OH251354   2.567   3.991  13.627 -0.1795 -0.2879 -0.2888
 9980TIP3    H151355   2.543   3.931  13.698  0.8903  0.5527  0.8060
 9980TIP3    H251356   2.489   3.994  13.572 -1.3825 -0.2229  1.3544
 9981TIP3   OH251357   1.845   3.238   3.450 -0.0796 -0.6523 -0.1987
 9981TIP3    H151358   1.810   3.278   3.370 -1.0322 -1.1203 -0.0282
 9981TIP3    H251359   1.842   3.308   3.515  1.6998  0.0593 -0.7983
 9982TIP3   OH251360   6.488   1.588   1.098 -0.2189 -0.0494 -0.0429
 9982TIP3    H151361   6.414   1.642   1.070 -0.0275 -0.8506 -2.2798
 9982TIP3    H251362   6.450   1.502   1.113  0.0966 -0.2097 -0.1652
 9983TIP3   OH251363   4.000   4.535  17.037 -0.4629  0.2121  0.0319
 9983TIP3    H151364   4.011   4.630  17.024 -0.1863  0.0029 -1.3603
 9983TIP3    H251365   4.060   4.515  17.109  1.0925  0.7613 -1.0568
 9984TIP3   OH251366   2.318   1.535  12.191 -0.1801  0.0076  0.0624
 9984TIP3    H151367   2.284   1.448  12.210 -1.2194  0.2708 -0.5431
 9984TIP3    H251368   2.257   1.572  12.127  1.0077  0.6668 -0.7331
 9985TIP3   OH251369   4.697   1.507  13.736  0.1932  0.0902 -0.2530
 9985TIP3    H151370   4.728   1.573  13.674  0.2907 -0.1434 -0.4529
 9985TIP3    H251371   4.723   1.423  13.698  0.3817 -0.0495  0.1719
 9986TIP3   OH251372   6.144   5.083  11.976  0.2554  0.0436 -0.4146
 9986TIP3    H151373   6.112   5.173  11.979  0.2987  0.0729 -0.7916
 9986TIP3    H251374   6.113   5.044  12.058  1.5713  0.8307  0.4908
 9987TIP3   OH251375   6.688   1.247   2.652  0.6345  0.7298  0.4055
 9987TIP3    H151376   6.697   1.263   2.558 -0.9600  1.3570  0.3147
 9987TIP3    H251377   6.659   1.156   2.659 -1.5947  1.3428  0.0652
 9988TIP3   OH251378   0.662   3.789  16.393  0.2422 -0.3770 -0.2376
 9988TIP3    H151379   0.567   3.800  16.382  0.1399 -0.5298  0.4785
 9988TIP3    H251380   0.681   3.827  16.478  0.8863 -0.0346 -0.5321
 9989TIP3   OH251381   0.279   3.443  15.005 -0.2358  0.5641 -0.1316
 9989TIP3    H151382   0.279   3.534  15.037 -1.1629  0.9597 -1.1680
 9989TIP3    H251383   0.273   3.452  14.910 -1.4039 -0.5769 -0.1924
 9990TIP3   OH251384   2.418   0.476  15.287  0.5962  0.5059 -0.2942
 9990TIP3    H151385   2.339   0.426  15.267 -0.2314  1.3543  0.7705
 9990TIP3    H251386   2.488   0.428  15.242 -0.3305 -0.9438 -0.2631
 9991TIP3   OH251387   6.592   6.712   4.856 -0.2625 -0.3392  0.1861
 9991TIP3    H151388   6.516   6.771   4.861 -0.6245 -0.6908 -0.9884
 9991TIP3    H251389   6.554   6.625   4.852  0.2583 -0.6248  1.2084
 9992TIP3   OH251390   4.760   3.717   3.595  0.3954 -0.7153  0.0530
 9992TIP3    H151391   4.813   3.776   3.542 -1.0156 -0.1852 -0.8360
 9992TIP3    H251392   4.679   3.765   3.609  0.2637 -1.3707  1.6510
 9993TIP3   OH251393   5.358   3.434  12.840 -0.5816  0.1439 -0.6677
 9993TIP3    H151394   5.425   3.408  12.776 -0.4777  0.4206 -0.6734
 9993TIP3    H251395   5.347   3.528  12.826 -1.1498  0.0552 -0.8290
 9994TIP3   OH251396   5.246   6.389  11.809  0.0512 -0.1744 -0.0436
 9994TIP3    H151397   5.220   6.373  11.900  1.9102 -1.3383  0.3382
 9994TIP3    H251398   5.166   6.421  11.767 -0.9881 -0.0780  1.8632
 9995TIP3   OH251399   5.004   1.285  12.136 -0.1442  0.1465  0.0344
 9995TIP3    H151400   5.024   1.267  12.228  3.7109  1.3354 -0.3943
 9995TIP3    H251401   5.003   1.381  12.131 -0.6498  0.0888 -1.1438
 9996TIP3   OH251402   5.313   6.208   4.185  0.4180 -0.4126  0.0957
 9996TIP3    H151403   5.337   6.132   4.132  2.0782 -0.1128  0.3868
 9996TIP3    H251404   5.228   6.235   4.150  0.7187 -1.1960 -1.3280
 9997TIP3   OH251405   1.780   2.335  16.989  0.3794 -0.0702  0.1316
 9997TIP3    H151406   1.829   2.287  16.923  1.2037  1.0045 -0.0749
 9997TIP3    H251407   1.690   2.335  16.957  0.5087 -0.7633 -0.2655
 9998TIP3   OH251408   0.220   5.325   2.030 -0.0882  0.5512  0.1449
 9998TIP3    H151409   0.139   5.286   2.064  0.8254 -1.5998  0.0041
 9998TIP3    H251410   0.289   5.287   2.083  1.3825 -2.5303 -3.4984
 9999TIP3   OH251411   2.310   4.853  14.295  0.4321  0.3301 -0.5389
 9999TIP3    H151412   2.288   4.815  14.210  0.9001 -0.2310 -0.4140
 9999TIP3    H251413   2.230   4.844  14.346  1.1032 -2.4460  0.1806
10000TIP3   OH251414   6.089   3.837   4.503 -0.1023 -0.1896 -0.7373
10000TIP3    H151415   5.994   3.839   4.492 -0.4562 -0.8757  1.5977
10000TIP3    H251416   6.104   3.871   4.591  1.8890  0.4345 -1.2618
10001TIP3   OH251417   2.943   1.758   5.504  0.4288  0.3614  0.2719
10001TIP3    H151418   2.876   1.690   5.514  1.4766 -0.6162  0.8695
10001TIP3    H251419   2.901   1.824   5.449 -0.5470 -0.8614 -0.5143
10002TIP3   OH251420   3.141   4.146  11.490 -0.2037  0.1933  0.2332
10002TIP3    H151421   3.062   4.169  11.441 -0.7966 -0.8596  0.6525
10002TIP3    H251422   3.192   4.227  11.494 -1.6682  1.1373  0.6969
10003TIP3   OH251423   3.895   0.369  12.505 -0.7613  0.3959 -0.1751
10003TIP3    H151424   3.960   0.402  12.567 -0.8093 -0.1194  0.1527
10003TIP3    H251425   3.880   0.279  12.532 -0.0870 -0.1488 -1.4984
10004TIP3   OH251426   1.431   0.150  13.349  0.0764  0.0151  0.1556
10004TIP3    H151427   1.486   0.159  13.272 -0.8577  2.8384 -0.3038
10004TIP3    H251428   1.394   0.062  13.342  2.9326 -1.2434 -0.5194
10005TIP3   OH251429   3.175   2.374   5.551  0.2842 -0.2011  0.5256
10005TIP3    H151430   3.264   2.368   5.515  0.4145  1.0492  0.5788
10005TIP3    H251431   3.175   2.312   5.624  0.7545 -1.0374 -0.1691
10006TIP3   OH251432   1.183   4.876  14.760  0.0002  0.1908 -0.0786
10006TIP3    H151433   1.279   4.876  14.760  0.0759  0.8660  2.5631
10006TIP3    H251434   1.159   4.903  14.848 -2.6471 -1.9438 -0.0227
10007TIP3   OH251435   4.937   3.654   1.940  0.2321 -0.2039  0.1836
10007TIP3    H151436   4.972   3.744   1.943 -0.8053  0.1771  1.3378
10007TIP3    H251437   4.861   3.656   1.998  0.8859 -2.1376  1.1598
10008TIP3   OH251438   1.585   2.815   2.397  0.1212 -0.2414 -0.0246
10008TIP3    H151439   1.619   2.887   2.450  0.1151  0.2616 -0.6906
10008TIP3    H251440   1.626   2.736   2.434  3.3955  0.4419 -1.7723
10009TIP3   OH251441   2.958   2.150  12.414 -0.3143 -0.2068  0.3972
10009TIP3    H151442   3.047   2.152  12.450  0.6170  1.5929 -1.7567
10009TIP3    H251443   2.906   2.200  12.477  0.7232  0.6841  0.5906
10010TIP3   OH251444   1.136   6.767  12.048  0.3888 -0.2904  0.2153
10010TIP3    H151445   1.074   6.840  12.051  0.1665 -0.5085  1.1242
10010TIP3    H251446   1.089   6.693  12.085  0.4629 -1.0322 -1.1387
10011TIP3   OH251447   2.420   2.663   5.248  0.2082 -0.6251  0.1378
10011TIP3    H151448   2.382   2.715   5.177  0.5860 -0.2655  0.1972
10011TIP3    H251449   2.477   2.724   5.295  1.1393 -1.2368 -0.1606
10012TIP3   OH251450   4.541   1.078  15.297 -0.5800  0.2398 -0.0817
10012TIP3    H151451   4.471   1.119  15.348 -0.0865  0.0035  0.8068
10012TIP3    H251452   4.603   1.046  15.363 -0.7711 -1.5962 -0.7358
10013TIP3   OH251453   3.657   1.384   2.299 -0.8986  0.6656 -0.5759
10013TIP3    H151454   3.650   1.477   2.317 -0.5107  0.7484 -0.8280
10013TIP3    H251455   3.583   1.344   2.345 -1.8930  1.2504 -1.6326
10014TIP3   OH251456   1.311   5.724   3.433  0.3734  0.4840  1.0334
10014TIP3    H151457   1.223   5.686   3.437 -0.4282  1.9857 -0.8534
10014TIP3    H251458   1.296   5.818   3.421  2.2869  1.0641  2.6291
10015TIP3   OH251459   3.589   5.679   3.795 -0.1261 -0.6737 -0.3404
10015TIP3    H151460   3.579   5.742   3.866  1.5001 -1.7767  0.9332
10015TIP3    H251461   3.684   5.663   3.790 -0.4086 -2.2697 -1.2930
10016TIP3   OH251462   1.756   6.268   6.194 -0.4679 -0.1425 -0.1820
10016TIP3    H151463   1.741   6.291   6.285 -0.2908 -0.7147  0.0027
10016TIP3    H251464   1.746   6.172   6.192  2.4917 -0.5523 -0.1199
10017TIP3   OH251465   2.833   2.899   3.813  0.3879  0.2193 -0.2576
10017TIP3    H151466   2.837   2.985   3.855 -0.0847 -0.1871  0.6588
10017TIP3    H251467   2.845   2.917   3.720  0.9207  1.2098 -0.0136
10018TIP3   OH251468   3.734   0.072  14.507 -0.6188 -0.3083  0.8541
10018TIP3    H151469   3.809   0.129  14.492 -0.5568  0.3292  3.2464
10018TIP3    H251470   3.746  -0.000  14.445  1.1495  0.5322  0.1606
10019TIP3   OH251471   3.062   1.903  11.589 -0.8148 -0.3266  0.4435
10019TIP3    H151472   3.113   1.930  11.665  1.1443 -2.1958 -0.1023
10019TIP3    H251473   3.099   1.955  11.516 -1.3042 -0.0033  0.4223
10020TIP3   OH251474   4.930   0.746   0.409  0.1930 -0.3811 -0.1825
10020TIP3    H151475   4.966   0.821   0.362 -0.5981 -0.5863 -1.1412
10020TIP3    H251476   4.862   0.783   0.465 -1.9014 -0.5948 -2.4251
10021TIP3   OH251477   1.663   1.101   5.374  0.4499 -0.7845  0.4919
10021TIP3    H151478   1.610   1.068   5.302 -1.8777 -1.6636  2.4572
10021TIP3    H251479   1.752   1.104   5.339 -0.9184  1.9958 -3.4189
10022TIP3   OH251480   6.103   6.322   4.660  0.2302  0.0238 -0.0796
10022TIP3    H151481   6.014   6.333   4.626 -0.1035  2.0012  1.2710
10022TIP3    H251482   6.105   6.231   4.691 -2.4892  0.7715  2.8142
10023TIP3   OH251483   0.463   2.288  13.309 -0.6689 -1.0071  0.6205
10023TIP3    H151484   0.483   2.308  13.400 -1.7580 -0.8070  0.8361
10023TIP3    H251485   0.440   2.195  13.309  0.0587 -1.1900  0.4128
10024TIP3   OH251486   4.513   1.563   4.069 -0.1200 -0.1509  0.0254
10024TIP3    H151487   4.430   1.611   4.073  1.5630  2.9329  1.9566
10024TIP3    H251488   4.489   1.473   4.090 -3.1415  0.2472 -1.1274
10025TIP3   OH251489   6.021   5.988   1.839  0.0166  0.0060 -0.3594
10025TIP3    H151490   5.977   5.939   1.769 -0.4707  0.7673 -0.5994
10025TIP3    H251491   5.956   5.990   1.910  0.7857 -1.4095  0.4207
10026TIP3   OH251492   1.049   3.553   4.000 -0.3627 -0.3340  0.0291
10026TIP3    H151493   1.030   3.645   3.979 -0.1219 -0.2933 -0.0155
10026TIP3    H251494   1.145   3.547   3.996 -0.2386 -0.1549  1.7809
10027TIP3   OH251495   3.097   4.293  14.995 -0.2104  0.1530  0.1467
10027TIP3    H151496   3.064   4.371  14.951  0.4022  0.3489  0.0247
10027TIP3    H251497   3.136   4.241  14.924  2.2879  1.2371  0.6428
10028TIP3   OH251498   2.726   6.082  14.043  0.7080  0.0461 -0.2988
10028TIP3    H151499   2.764   6.161  14.081  0.6009 -0.1970  0.3161
10028TIP3    H251500   2.662   6.114  13.980 -1.8048  0.5191  2.3063
10029TIP3   OH251501   2.675   5.564   4.620 -0.1980  0.1567  0.2825
10029TIP3    H151502   2.756   5.546   4.573 -0.6511  0.2007 -0.5479
10029TIP3    H251503   2.631   5.479   4.626 -0.7922  0.3827 -0.6502
10030TIP3   OH251504   6.778   3.092   2.320  0.2498 -0.3082 -0.2308
10030TIP3    H151505   6.689   3.096   2.287  0.2662 -0.2433 -0.2660
10030TIP3    H251506   6.797   2.998   2.326  0.8759 -0.3302 -2.0937
10031TIP3   OH251507   6.154   3.465   2.947 -0.5245 -0.6099  0.4888
10031TIP3    H151508   6.250   3.473   2.949 -0.6706  2.1013  0.1945
10031TIP3    H251509   6.138   3.402   2.877  1.0483  1.4055 -1.8796
10032TIP3   OH251510   2.080   1.386  11.688 -0.1084 -0.2851  0.1639
10032TIP3    H151511   2.059   1.457  11.628 -2.3103 -2.3645 -1.7610
10032TIP3    H251512   2.111   1.315  11.631 -0.0473 -1.5802  1.7287
10033TIP3   OH251513   6.253   4.151   4.882 -0.4963  0.0992  0.2550
10033TIP3    H151514   6.319   4.113   4.941  0.6010 -0.0302 -1.0014
10033TIP3    H251515   6.169   4.132   4.924  0.2753  1.0571  2.3750
10034TIP3   OH251516   5.937   0.128  12.869  1.2451  0.0847 -0.6374
10034TIP3    H151517   5.917   0.141  12.776 -2.2555 -2.0369 -0.3647
10034TIP3    H251518   5.863   0.078  12.903  3.2030 -0.7291  2.9715
10035TIP3   OH251519   1.609   2.736  11.660  0.1248 -0.1094 -0.1890
10035TIP3    H151520   1.653   2.651  11.670  1.2903  0.2993 -1.5419
10035TIP3    H251521   1.522   2.714  11.627  0.2284 -0.7958 -0.0321
10036TIP3   OH251522   3.181   4.394   4.711  0.4164 -0.3734 -0.2234
10036TIP3    H151523   3.186   4.479   4.669 -1.9718  0.8142  1.6529
10036TIP3    H251524   3.254   4.393   4.773  0.8258  0.0149 -0.6941
10037TIP3   OH251525   4.092   6.718  16.194 -0.0265 -0.1184 -0.0977
10037TIP3    H151526   4.112   6.625  16.193  2.0019  0.1730  2.3065
10037TIP3    H251527   3.997   6.723  16.193 -0.1594 -2.1732 -0.6528
10038TIP3   OH251528   6.584   4.305   0.724 -1.4101 -0.0062 -0.6525
10038TIP3    H151529   6.576   4.372   0.792  2.3318  0.5122 -0.5439
10038TIP3    H251530   6.535   4.340   0.650 -1.8393  1.5065  0.3109
10039TIP3   OH251531   1.950   3.867   3.937  0.1922 -0.6690  0.0745
10039TIP3    H151532   1.971   3.776   3.919  0.8994 -0.7248  1.1165
10039TIP3    H251533   1.919   3.868   4.027  1.0648  0.2446  0.3785
10040TIP3   OH251534   0.187   0.791  10.573 -0.1751 -0.2212 -0.1310
10040TIP3    H151535   0.195   0.696  10.581 -0.1726 -0.1586  0.7788
10040TIP3    H251536   0.105   0.806  10.527 -1.0229 -0.6394  1.2077
10041TIP3   OH251537   3.006   2.131  11.409 -0.6698 -0.1470 -0.3171
10041TIP3    H151538   3.071   2.081  11.360 -0.2246 -0.7805  0.8708
10041TIP3    H251539   2.924   2.116  11.362 -0.3182 -0.9960 -0.6831
10042TIP3   OH251540   3.289   5.451   4.811  0.2391 -0.6561  0.1126
10042TIP3    H151541   3.309   5.540   4.841  0.2518  0.5838 -3.1644
10042TIP3    H251542   3.344   5.438   4.734 -0.3910 -3.2246 -0.0105
10043TIP3   OH251543   1.050   2.597  11.515  0.1339  0.2180 -0.1063
10043TIP3    H151544   1.053   2.514  11.468 -1.3887  0.7111 -1.1608
10043TIP3    H251545   1.027   2.661  11.447  0.4158  1.3587  0.8503
10044TIP3   OH251546   5.076   2.199  12.116  0.4009  0.8551 -0.1481
10044TIP3    H151547   5.021   2.217  12.193  0.1318  2.0906 -0.6104
10044TIP3    H251548   5.164   2.225  12.143  0.3452  1.0840 -0.1871
10045TIP3   OH251549   2.956   3.491   3.503 -0.2890  0.3843 -0.1420
10045TIP3    H151550   2.908   3.572   3.519 -0.6410 -0.3214  3.2668
10045TIP3    H251551   2.899   3.439   3.447 -1.2580  1.4775 -0.1968
10046TIP3   OH251552   0.409   3.008   4.421  0.0104  0.6854  0.7849
10046TIP3    H151553   0.493   3.036   4.459  0.2146 -0.9149  1.5904
10046TIP3    H251554   0.357   2.982   4.497 -0.6261  0.1212  0.1596
10047TIP3   OH251555   6.269   5.344  14.950  0.5640  0.4432  0.2909
10047TIP3    H151556   6.213   5.272  14.978 -1.9691  1.9734 -0.5176
10047TIP3    H251557   6.356   5.304  14.938 -0.3369 -2.0684  1.4392
10048TIP3   OH251558   1.056   2.284  11.444 -0.3717 -0.2372  0.4572
10048TIP3    H151559   1.011   2.203  11.467 -0.1269 -1.1536 -1.9681
10048TIP3    H251560   1.017   2.311  11.361 -0.6832  2.3714  1.3478
10049TIP3   OH251561   3.672   0.926   4.059  0.5982 -0.2795  0.2602
10049TIP3    H151562   3.698   1.017   4.048  0.9905 -0.0517  2.6590
10049TIP3    H251563   3.694   0.904   4.149 -1.8082 -1.9955  0.5579
10050TIP3   OH251564   1.474   0.443   0.156  0.3840 -0.0601  0.6925
10050TIP3    H151565   1.403   0.379   0.166  0.1659  0.1178  0.3324
10050TIP3    H251566   1.554   0.394   0.175  0.1895 -0.3456  0.7812
10051TIP3   OH251567   3.831   6.535  14.436  0.2172  0.1820 -0.2238
10051TIP3    H151568   3.811   6.442  14.426  0.2019 -0.2439  2.8129
10051TIP3    H251569   3.917   6.545  14.395 -0.2827 -0.8788 -1.6205
10052TIP3   OH251570   5.228   4.913  16.258 -0.3752  0.2661  0.6785
10052TIP3    H151571   5.168   4.839  16.270 -1.2249  0.8879  0.3197
10052TIP3    H251572   5.233   4.924  16.163  1.5922 -0.8034  0.6095
10053TIP3   OH251573   4.687   3.977  14.628 -0.4112 -0.1996  0.3070
10053TIP3    H151574   4.647   3.894  14.653 -0.4963 -0.2489  0.0063
10053TIP3    H251575   4.780   3.966  14.648 -0.0993 -1.0308 -1.4275
10054TIP3   OH251576   2.050   1.674  10.999  0.1249  0.1111 -0.0312
10054TIP3    H151577   2.048   1.669  11.094 -1.6289  0.1645 -0.0226
10054TIP3    H251578   1.979   1.616  10.971 -0.4523  1.3376 -1.2183
10055TIP3   OH251579   2.399   1.245  14.985 -0.4261 -0.0847 -0.7556
10055TIP3    H151580   2.353   1.165  14.960  2.5486 -2.0331 -0.4305
10055TIP3    H251581   2.367   1.264  15.073 -2.9966  0.6224 -1.7514
10056TIP3   OH251582   4.317   4.455   5.411 -0.1734 -0.0604  0.5506
10056TIP3    H151583   4.284   4.472   5.500  1.0466 -0.1272  1.0347
10056TIP3    H251584   4.316   4.360   5.403 -1.0569 -0.0230  0.1837
10057TIP3   OH251585   1.168   6.710   1.831  0.0797 -0.3722 -0.0251
10057TIP3    H151586   1.099   6.723   1.766  0.0489 -0.0677  0.0660
10057TIP3    H251587   1.186   6.798   1.865  1.4710 -0.2458 -1.0200
10058TIP3   OH251588   3.689   0.043   1.233 -0.1066  0.3965  0.0455
10058TIP3    H151589   3.674   0.084   1.148 -0.7721 -0.0040 -0.0445
10058TIP3    H251590   3.716  -0.047   1.212 -0.2355  0.3076  0.2535
10059TIP3   OH251591   5.162   1.359  17.264 -0.7885  0.3967 -0.6512
10059TIP3    H151592   5.224   1.290  17.238 -2.4675 -0.5602 -2.4322
10059TIP3    H251593   5.214   1.439  17.267  1.1930 -0.8434  1.2932
10060TIP3   OH251594   0.723   1.199  14.965 -0.2113 -0.3995 -0.0610
10060TIP3    H151595   0.632   1.218  14.987  0.2287  1.2397  0.5516
10060TIP3    H251596   0.721   1.168  14.874 -1.3948 -0.6350  0.0382
10061TIP3   OH251597   1.520   5.460   1.796  0.2610 -0.3347  0.3826
10061TIP3    H151598   1.469   5.426   1.870 -1.3930  1.2017  0.0428
10061TIP3    H251599   1.466   5.440   1.719  1.7750 -1.5760 -0.4199
10062TIP3   OH251600   6.011   1.175  15.596 -0.7057 -0.2812 -0.2170
10062TIP3    H151601   5.980   1.085  15.608 -0.6382 -0.1938  0.7372
10062TIP3    H251602   6.101   1.174  15.628 -1.1147  0.3902  1.0480
10063TIP3   OH251603   6.573   1.347  17.139  0.4829  0.4029 -0.0172
10063TIP3    H151604   6.634   1.392  17.197  4.6714 -2.0889 -1.9949
10063TIP3    H251605   6.564   1.405  17.064  1.8029  0.1263 -0.4100
10064TIP3   OH251606   5.337   5.763  13.335  0.2196  0.1262  0.4043
10064TIP3    H151607   5.389   5.744  13.257  1.0376  2.9924  0.1240
10064TIP3    H251608   5.247   5.747  13.308  0.4687  1.1992 -1.2216
10065TIP3   OH251609   4.326   1.514   3.305 -0.1191 -0.2438  0.3972
10065TIP3    H151610   4.415   1.516   3.339 -0.1705 -0.9729  0.5871
10065TIP3    H251611   4.272   1.496   3.382 -0.3517 -0.6410  0.1422
10066TIP3   OH251612   1.350   6.631   5.153  0.0051 -0.2895 -0.3269
10066TIP3    H151613   1.280   6.671   5.101  0.5655  0.4009 -0.5687
10066TIP3    H251614   1.429   6.679   5.127  0.4639 -0.6362  0.4084
10067TIP3   OH251615   4.671   2.005  15.755  0.2152  0.5267 -0.3467
10067TIP3    H151616   4.664   1.922  15.707 -0.5220  0.8796 -0.8711
10067TIP3    H251617   4.676   2.072  15.686 -1.4720  1.0977  0.0370
10068TIP3   OH251618   0.782   4.477   0.485 -0.1126 -0.0861  0.0228
10068TIP3    H151619   0.731   4.524   0.419 -1.5049  1.2771  1.9875
10068TIP3    H251620   0.865   4.525   0.490  0.6594 -1.1322 -1.7705
10069TIP3   OH251621   1.742   2.496  16.493 -0.2387 -0.2345  0.5276
10069TIP3    H151622   1.813   2.560  16.498  1.2102 -1.6523 -0.7052
10069TIP3    H251623   1.688   2.527  16.421  0.9622 -0.8180 -0.6699
10070TIP3   OH251624   2.775   4.928  12.686  0.2734  1.0672  0.0855
10070TIP3    H151625   2.814   5.009  12.720 -0.1853  1.2057  0.2870
10070TIP3    H251626   2.845   4.888  12.634  1.1108  0.6529  1.4803
10071TIP3   OH251627   5.323   2.369   5.555  0.0908  0.3745 -0.1065
10071TIP3    H151628   5.377   2.335   5.626  0.4855  0.8414 -0.1754
10071TIP3    H251629   5.373   2.443   5.520  0.7183 -0.8375 -1.9576
10072TIP3   OH251630   1.199   3.818  16.418  0.2412  0.4187  0.1666
10072TIP3    H151631   1.224   3.773  16.498 -0.8324 -0.5785 -0.0331
10072TIP3    H251632   1.151   3.895  16.448  1.7898  1.3053  0.5006
10073TIP3   OH251633   1.950   0.927  12.995  0.0189  0.1788 -0.1712
10073TIP3    H151634   1.872   0.911  13.049  0.2151 -0.4695 -0.0674
10073TIP3    H251635   1.949   0.856  12.930  1.4448 -0.8724  0.8885
10074TIP3   OH251636   3.094   1.059  11.528 -0.5062 -0.0077 -0.3749
10074TIP3    H151637   3.072   1.152  11.534 -0.3147 -0.0353  1.2231
10074TIP3    H251638   3.136   1.038  11.612  0.6534 -1.2381 -1.1989
10075TIP3   OH251639   3.093   5.495  13.741 -0.0228  0.3048 -0.1595
10075TIP3    H151640   3.022   5.463  13.685  0.5795 -0.5719 -0.4316
10075TIP3    H251641   3.050   5.518  13.823 -0.5162 -1.0509 -0.0120
10076TIP3   OH251642   3.226   1.077   1.976  0.0517  0.1994 -0.6220
10076TIP3    H151643   3.239   0.988   2.008 -0.6857  0.6073  0.8948
10076TIP3    H251644   3.301   1.094   1.920  2.1133 -0.1529  1.8438
10077TIP3   OH251645   2.701   0.942   3.327 -0.5664 -0.4314  0.0813
10077TIP3    H151646   2.761   0.984   3.265  0.6679  0.1098  1.5795
10077TIP3    H251647   2.685   1.009   3.394 -0.5185 -1.5509  1.2417
10078TIP3   OH251648   3.047   4.574  14.680 -0.3035 -0.1841 -0.0346
10078TIP3    H151649   3.118   4.510  14.689 -0.0951 -0.5343 -3.0847
10078TIP3    H251650   2.969   4.528  14.712  0.5124 -0.3815  1.7834
10079TIP3   OH251651   0.851   2.657   4.886 -0.0731  0.0788 -0.1707
10079TIP3    H151652   0.816   2.596   4.822  1.3053  0.4479 -1.3418
10079TIP3    H251653   0.774   2.698   4.926 -0.9676 -0.6459 -1.1085
10080TIP3   OH251654   6.466   0.670  16.375  0.1691 -0.4938  0.4657
10080TIP3    H151655   6.523   0.662  16.298 -1.5500  0.6951 -1.0187
10080TIP3    H251656   6.383   0.632  16.348 -0.7601  0.7965  1.3828
10081TIP3   OH251657   4.679   0.167  13.594 -0.2688 -0.0393 -0.0301
10081TIP3    H151658   4.739   0.236  13.621  0.5148 -0.1013 -1.5037
10081TIP3    H251659   4.592   0.197  13.622  0.2673  0.7005  0.8844
10082TIP3   OH251660   5.345   2.308  12.180  0.4423 -0.1766  0.5539
10082TIP3    H151661   5.414   2.305  12.246  1.3431 -1.6009 -0.4160
10082TIP3    H251662   5.388   2.284  12.099 -0.8786  0.4946 -0.3822
10083TIP3   OH251663   0.388   5.996   4.303  0.3369  0.3656 -0.2295
10083TIP3    H151664   0.370   5.903   4.317  1.4823  0.1617 -0.0016
10083TIP3    H251665   0.398   6.005   4.209  1.3418  0.0266 -0.1657
10084TIP3   OH251666   2.244   5.461   2.368 -0.2407 -0.1672  0.2099
10084TIP3    H151667   2.224   5.429   2.457  0.7019  0.3281  0.6135
10084TIP3    H251668   2.175   5.524   2.349  0.2280  0.6258  1.0877
10085TIP3   OH251669   4.390   4.929  14.767 -0.1465 -0.7654  0.4896
10085TIP3    H151670   4.455   4.875  14.723  0.5815 -0.4130  1.1124
10085TIP3    H251671   4.422   4.937  14.857  0.8558  2.3561 -0.0394
10086TIP3   OH251672   2.554   1.941  16.549  0.4700  0.0655  0.0150
10086TIP3    H151673   2.614   1.963  16.479  0.3706 -2.6219 -1.0342
10086TIP3    H251674   2.609   1.931  16.627  0.3385  5.2880  1.0973
10087TIP3   OH251675   6.554   3.172   3.257 -0.1984  1.0364 -0.7294
10087TIP3    H151676   6.480   3.232   3.250 -0.6819  0.5150 -0.2296
10087TIP3    H251677   6.631   3.228   3.262 -0.3506  1.5767 -3.2541
10088TIP3   OH251678   2.439   4.958   4.804  0.1444 -0.3502  0.4061
10088TIP3    H151679   2.372   4.897   4.834 -0.1691 -0.7696 -1.0481
10088TIP3    H251680   2.437   5.030   4.867 -2.0565 -0.0806  0.0899
10089TIP3   OH251681   0.115   0.874  11.132  0.1884  0.1205  0.2722
10089TIP3    H151682   0.097   0.909  11.045 -0.7467 -0.3202  0.2706
10089TIP3    H251683   0.141   0.783  11.116 -0.2120 -0.0319  0.4523
10090TIP3   OH251684   6.200   4.894  12.543  0.6639  0.3262 -0.5490
10090TIP3    H151685   6.146   4.884  12.622 -0.4739 -0.9411 -1.4441
10090TIP3    H251686   6.288   4.868  12.571  0.7218  1.7458  0.7608
10091TIP3   OH251687   5.794   1.682   3.014  0.5686 -0.2759 -0.2376
10091TIP3    H151688   5.698   1.682   3.005  0.5177 -0.5655  0.2503
10091TIP3    H251689   5.820   1.771   2.990  0.1336 -0.0716  0.0222
10092TIP3   OH251690   1.099   5.908   2.472  0.1794  0.1468  0.1366
10092TIP3    H151691   1.074   5.973   2.406  2.0195  1.0854  0.2987
10092TIP3    H251692   1.120   5.960   2.549  0.7789 -0.7345  0.5702
10093TIP3   OH251693   2.361   4.505  13.442  0.0671  0.8309 -0.5347
10093TIP3    H151694   2.404   4.484  13.525 -0.0462  0.0648 -0.6611
10093TIP3    H251695   2.431   4.509  13.378  0.0358  0.2853 -0.6089
10094TIP3   OH251696   5.544   6.374   2.057  0.7288 -0.7884 -0.0100
10094TIP3    H151697   5.586   6.459   2.041  1.1350 -0.9227  0.3264
10094TIP3    H251698   5.470   6.373   1.997  0.0315  0.2946  0.7783
10095TIP3   OH251699   2.601   3.443   0.305  0.4145 -0.2121  0.4927
10095TIP3    H151700   2.551   3.524   0.291 -0.1658 -0.7794 -0.9648
10095TIP3    H251701   2.685   3.472   0.339 -0.2178  0.9121  1.1640
10096TIP3   OH251702   0.406   4.980  11.565 -0.1100  0.3660 -0.2595
10096TIP3    H151703   0.421   4.979  11.471 -1.2759  2.3201 -0.5173
10096TIP3    H251704   0.390   4.888  11.588  0.1487 -0.1367 -1.9434
10097TIP3   OH251705   2.333   2.021   3.334  0.0053  0.2489 -0.2576
10097TIP3    H151706   2.348   1.976   3.417  1.2751  0.7047 -0.2187
10097TIP3    H251707   2.382   2.103   3.342  0.3914  0.1682 -1.5632
10098TIP3   OH251708   4.908   4.848   1.858 -0.7697  0.3267  0.7969
10098TIP3    H151709   4.939   4.859   1.947  0.7956 -0.8825  0.4458
10098TIP3    H251710   4.899   4.937   1.824  0.8117  0.7698  1.4449
10099TIP3   OH251711   1.882   0.791   0.711  0.3512 -0.1584 -0.3059
10099TIP3    H151712   1.939   0.866   0.728  2.0655 -1.4597 -0.0351
10099TIP3    H251713   1.909   0.726   0.776 -0.1838 -1.4778 -1.3648
10100TIP3   OH251714   0.704   5.158   1.254  0.0407  0.1694  0.0547
10100TIP3    H151715   0.697   5.173   1.348 -0.5716  1.5751 -0.1895
10100TIP3    H251716   0.644   5.221   1.215  1.2909  0.5467 -1.3453
10101TIP3   OH251717   6.244   1.025   1.732  0.0334  0.5694  0.5680
10101TIP3    H151718   6.196   1.105   1.754  1.8636  1.4806  1.4943
10101TIP3    H251719   6.322   1.028   1.788  0.7897 -1.2214 -0.3137
10102TIP3   OH251720   1.700   1.764   4.411  0.2834 -0.3867  0.7523
10102TIP3    H151721   1.637   1.753   4.482  1.4013 -1.6989  1.5939
10102TIP3    H251722   1.646   1.777   4.333 -0.9920  0.0497  1.6755
10103TIP3   OH251723   5.339   2.632  12.063 -0.6186  0.1813  0.1671
10103TIP3    H151724   5.323   2.563  12.128  1.6040 -1.1653 -0.6011
10103TIP3    H251725   5.290   2.604  11.986  0.3277 -0.6349 -0.1638
10104TIP3   OH251726   4.488   4.227  13.384 -0.2556 -0.1333 -0.0328
10104TIP3    H151727   4.474   4.322  13.388  0.3899 -0.0036 -0.5703
10104TIP3    H251728   4.568   4.217  13.332  1.7650 -0.8096  2.9579
10105TIP3   OH251729   2.008   5.526  12.626  0.0839 -0.0653 -0.3406
10105TIP3    H151730   1.993   5.502  12.717 -0.6928 -2.4086 -1.0057
10105TIP3    H251731   2.032   5.618  12.629  0.9659 -0.2952  2.3045
10106TIP3   OH251732   0.645   4.085  12.262  0.2989 -0.4261 -0.1750
10106TIP3    H151733   0.704   4.160  12.265 -0.1747 -0.0638  0.0303
10106TIP3    H251734   0.694   4.015  12.306  0.0589  0.2342  1.1956
10107TIP3   OH251735   2.547   1.064  11.545 -0.3537  0.3406 -0.3044
10107TIP3    H151736   2.553   1.147  11.499 -1.8124  1.1244  0.8406
10107TIP3    H251737   2.636   1.048  11.577 -0.1599  1.6967 -0.1195
10108TIP3   OH251738   5.260   2.540   0.831  0.1837  0.4298 -0.2669
10108TIP3    H151739   5.322   2.593   0.882 -0.4364  1.9363 -1.0092
10108TIP3    H251740   5.292   2.546   0.741  1.5179 -2.5663 -0.0953
10109TIP3   OH251741   1.609   6.294  15.507 -0.4978  0.1882 -0.2676
10109TIP3    H151742   1.553   6.365  15.475  0.4445  1.4210  0.7539
10109TIP3    H251743   1.637   6.323  15.593 -0.0535 -1.4290  0.1531
10110TIP3   OH251744   0.535   5.704  12.184  0.1952 -0.3625  0.3655
10110TIP3    H151745   0.558   5.767  12.115 -1.7882 -1.8284 -1.8072
10110TIP3    H251746   0.617   5.658  12.203  1.2751  1.5977  0.6976
10111TIP3   OH251747   3.227   3.151  17.184  0.1331  1.2898  0.6154
10111TIP3    H151748   3.160   3.217  17.168 -1.2300  0.4251  2.3368
10111TIP3    H251749   3.184   3.086  17.239  2.7029  1.2781  2.8390
10112TIP3   OH251750   4.897   3.440  12.766  0.0240  0.3587  0.2889
10112TIP3    H151751   4.844   3.515  12.795  0.3433  1.1445 -1.0890
10112TIP3    H251752   4.974   3.480  12.727  2.7875 -0.7339  4.0775
10113TIP3   OH251753   4.334   1.586  12.956 -0.6722 -0.3451  0.6383
10113TIP3    H151754   4.255   1.563  13.004  1.0164 -1.2165  3.1402
10113TIP3    H251755   4.392   1.511  12.966  0.4718  0.2108 -1.2609
10114TIP3   OH251756   1.817   2.138   1.324  0.3552  0.2985  0.2522
10114TIP3    H151757   1.850   2.135   1.234  0.1795  1.1604  0.1491
10114TIP3    H251758   1.800   2.047   1.347 -3.6905  0.2599 -2.1007
10115TIP3   OH251759   3.670   5.208   3.810 -0.1955  0.3063  0.0492
10115TIP3    H151760   3.692   5.144   3.878 -0.5047 -0.0750 -0.2124
10115TIP3    H251761   3.641   5.285   3.859 -0.1866  0.1179  0.3548
10116TIP3   OH251762   3.468   4.415  11.859  0.0099 -0.1909 -0.3852
10116TIP3    H151763   3.544   4.465  11.890 -0.1050  0.3390 -0.9551
10116TIP3    H251764   3.452   4.351  11.929  2.6050 -2.1152 -1.3696
10117TIP3   OH251765   0.276   4.407   4.058  0.0075  0.2167 -0.0332
10117TIP3    H151766   0.241   4.378   3.973  2.0567  0.3342 -0.9729
10117TIP3    H251767   0.302   4.326   4.102 -1.2721  0.1360  0.6331
10118TIP3   OH251768   0.635   1.438   3.774 -0.2444 -0.3121 -0.5378
10118TIP3    H151769   0.662   1.413   3.863 -0.0299 -0.7517 -0.7255
10118TIP3    H251770   0.700   1.503   3.747  0.4847 -1.1531 -0.8760
10119TIP3   OH251771   1.597   4.816   1.682  0.4972  0.5769 -0.5709
10119TIP3    H151772   1.502   4.805   1.669  0.4879  1.1037 -0.9920
10119TIP3    H251773   1.604   4.882   1.751  0.5573  0.0740 -0.0957
10120TIP3   OH251774   3.239   4.951  11.196 -0.3715  0.0483  0.2546
10120TIP3    H151775   3.313   4.931  11.139 -1.8964 -1.2666 -1.3820
10120TIP3    H251776   3.267   4.920  11.282  0.9647 -0.4161 -0.3132
10121TIP3   OH251777   2.350   0.684   2.015  0.4555 -0.5078 -0.5310
10121TIP3    H151778   2.256   0.694   2.025 -0.1062 -2.8147 -2.5854
10121TIP3    H251779   2.382   0.773   1.996 -1.0726  0.4962  1.3030
10122TIP3   OH251780   6.310   5.561  15.136 -0.0618 -0.5191  0.6104
10122TIP3    H151781   6.292   5.621  15.064  0.3603  0.4443  1.3020
10122TIP3    H251782   6.258   5.483  15.115 -0.9644  0.2402 -0.0670
10123TIP3   OH251783   4.401   0.190  15.328 -0.0578  0.1966 -0.0358
10123TIP3    H151784   4.431   0.162  15.242 -0.8171  0.1197 -0.2808
10123TIP3    H251785   4.314   0.151  15.338 -0.2806  0.7934  0.4629
10124TIP3   OH251786   0.991   5.479  12.558 -0.6259 -0.0274  0.0820
10124TIP3    H151787   0.917   5.518  12.605 -0.6811 -0.4449  0.3539
10124TIP3    H251788   1.027   5.415  12.620  0.8087  1.1287  0.4758
10125TIP3   OH251789   2.747   1.662  11.421  0.5774 -0.1522  0.2048
10125TIP3    H151790   2.659   1.636  11.449  1.2408  0.3807  3.1502
10125TIP3    H251791   2.734   1.743  11.373 -0.6336 -0.7654 -0.5419
10126TIP3   OH251792   6.491   0.936   3.523  0.0658  1.2110 -0.4503
10126TIP3    H151793   6.571   0.955   3.572  0.0121 -0.2475  0.2492
10126TIP3    H251794   6.441   1.018   3.526  1.4848  2.1108 -0.8254
10127TIP3   OH251795   3.167   5.524  11.960  0.1864  0.1561 -0.0850
10127TIP3    H151796   3.127   5.512  12.046  1.4885  1.0278  0.6773
10127TIP3    H251797   3.209   5.440  11.942  2.2562  0.7877  1.4386
10128TIP3   OH251798   5.687   2.659   1.479  0.2491 -0.6311  0.2775
10128TIP3    H151799   5.657   2.572   1.503 -0.9388  0.2990  2.4560
10128TIP3    H251800   5.621   2.718   1.514  1.7260  1.2293  0.1016
10129TIP3   OH251801   4.014   1.011  11.282  0.4848 -0.4184  0.1025
10129TIP3    H151802   4.066   1.084  11.315  0.0321 -0.5398  1.1068
10129TIP3    H251803   4.033   1.008  11.188  1.6239  0.0702  0.3093
10130TIP3   OH251804   5.536   6.066   1.058  0.3422  0.5528 -0.1785
10130TIP3    H151805   5.485   6.043   1.136  1.2337  1.4352  0.7082
10130TIP3    H251806   5.478   6.122   1.007 -0.1476  0.2211  0.0094
10131TIP3   OH251807   3.863   5.701   3.772 -0.1552  0.5015  0.1782
10131TIP3    H151808   3.882   5.649   3.850 -1.6290 -1.4384 -0.6861
10131TIP3    H251809   3.941   5.693   3.718  0.2162  0.4512  0.7184
10132TIP3   OH251810   5.533   6.355   6.579 -0.0765 -0.3241  0.3062
10132TIP3    H151811   5.540   6.375   6.672  0.5323 -0.2862  0.2509
10132TIP3    H251812   5.615   6.313   6.557 -0.0123  0.1226 -0.3281
10133TIP3   OH251813   4.093   2.093  11.800  0.4644  0.4866  0.4581
10133TIP3    H151814   4.057   2.147  11.870  0.4485  1.1524 -0.0575
10133TIP3    H251815   4.040   2.013  11.803  1.4889 -0.1861  2.2198
10134TIP3   OH251816   5.206   1.520  13.789 -0.3832 -0.2586  0.0253
10134TIP3    H151817   5.203   1.431  13.823  1.6499 -0.3115  0.1555
10134TIP3    H251818   5.197   1.509  13.694  1.7062 -0.8222 -0.1590
10135TIP3   OH251819   2.323   0.900   1.218  0.4901  0.0953 -0.1990
10135TIP3    H151820   2.339   0.982   1.172 -1.8357 -0.5598 -2.3727
10135TIP3    H251821   2.231   0.904   1.244  0.0194 -2.1879 -1.2736
10136TIP3   OH251822   1.484   6.062  14.301 -0.2239 -0.6411  0.1161
10136TIP3    H151823   1.563   6.111  14.281 -0.7910  0.1785 -0.1575
10136TIP3    H251824   1.425   6.079  14.227 -0.9766 -0.5364  0.7235
10137TIP3   OH251825   1.801   0.735  13.280  0.1059  0.0653 -0.1573
10137TIP3    H151826   1.736   0.805  13.270 -0.1878  0.2384  2.3023
10137TIP3    H251827   1.868   0.774  13.335  1.4556 -0.6954 -1.2109
10138TIP3   OH251828   3.336   5.234   0.886  0.2446  0.2114  0.1369
10138TIP3    H151829   3.300   5.320   0.909  0.8404  0.0788  1.6832
10138TIP3    H251830   3.431   5.246   0.893  0.3710 -0.3118 -0.6497
10139TIP3   OH251831   2.934   1.706  15.806 -0.0941  0.9292  0.3861
10139TIP3    H151832   2.924   1.674  15.896  2.8504 -0.1411  0.4405
10139TIP3    H251833   2.974   1.633  15.759  0.7111  2.3087 -1.1638
10140TIP3   OH251834   0.693   4.415  17.130 -0.0468  0.0544  0.7018
10140TIP3    H151835   0.600   4.392  17.131 -0.2989  1.0192 -0.0108
10140TIP3    H251836   0.736   4.339  17.170 -1.1152 -0.4870  0.8662
10141TIP3   OH251837   4.681   4.246  14.156  0.0651 -0.4502 -0.7085
10141TIP3    H151838   4.625   4.179  14.118 -1.3357 -0.5402  1.3350
10141TIP3    H251839   4.731   4.201  14.224 -1.3871  0.5626  1.1656
10142TIP3   OH251840   0.491   1.729  15.786 -0.4878 -0.0982  0.8148
10142TIP3    H151841   0.469   1.637  15.769 -0.1452  0.3540 -2.9261
10142TIP3    H251842   0.436   1.778  15.725 -0.5738  2.2296  2.6394
10143TIP3   OH251843   0.577   0.710  15.595  0.3756  0.6171  0.7052
10143TIP3    H151844   0.499   0.690  15.646 -0.4333 -0.1976 -0.7999
10143TIP3    H251845   0.631   0.631  15.603 -0.1802  0.0923 -0.4146
10144TIP3   OH251846   5.057   2.664  15.293  0.1715  0.1102  0.1307
10144TIP3    H151847   5.078   2.636  15.382 -0.3310 -1.5129 -0.2377
10144TIP3    H251848   5.003   2.594  15.258  0.4274  0.6925 -1.4960
10145TIP3   OH251849   0.306   5.459  11.744 -0.8678 -0.0086  0.1830
10145TIP3    H151850   0.372   5.390  11.755 -0.0869  0.4058 -1.5615
10145TIP3    H251851   0.356   5.541  11.753 -1.4615  0.3269  0.4704
10146TIP3   OH251852   4.867   5.346   0.802 -0.1079 -0.3342  0.3110
10146TIP3    H151853   4.881   5.253   0.787 -0.1227 -0.1061 -1.2627
10146TIP3    H251854   4.777   5.353   0.835  0.4232 -0.9974  1.9823
10147TIP3   OH251855   6.738   6.668  12.451 -0.4636 -0.1699  0.2376
10147TIP3    H151856   6.710   6.626  12.370  0.7767  1.4634 -1.1127
10147TIP3    H251857   6.723   6.761  12.437  1.1151  0.2892  1.3000
10148TIP3   OH251858   5.141   0.444   2.864  0.5981 -0.1646  0.6339
10148TIP3    H151859   5.094   0.378   2.812  1.4452  0.2422 -0.7025
10148TIP3    H251860   5.078   0.515   2.874  1.0999  0.7450 -1.8771
10149TIP3   OH251861   0.661   2.363  12.471 -0.0594 -0.4929  0.9366
10149TIP3    H151862   0.737   2.307  12.483  0.2788 -0.3390 -0.4280
10149TIP3    H251863   0.588   2.302  12.461 -0.4182 -0.6529  3.6796
10150TIP3   OH251864   5.957   2.752   0.906  0.5243  0.6187 -0.9068
10150TIP3    H151865   6.030   2.734   0.847  1.0927  1.1084 -0.3613
10150TIP3    H251866   5.942   2.669   0.952 -1.5370 -0.5297 -3.4387
10151TIP3   OH251867   1.786   3.710   0.705 -0.3105 -0.0322  0.1268
10151TIP3    H151868   1.699   3.750   0.700 -1.2109 -2.0019 -0.9863
10151TIP3    H251869   1.842   3.770   0.655 -0.6035  2.1077  2.1927
10152TIP3   OH251870   6.201   5.011  16.231 -0.2187 -0.5859 -0.6718
10152TIP3    H151871   6.261   5.085  16.242 -0.7153 -0.0212 -1.5781
10152TIP3    H251872   6.236   4.963  16.156 -1.3306  0.2291 -1.7582
10153TIP3   OH251873   5.568   3.613   0.811 -0.0725  0.2498  0.3826
10153TIP3    H151874   5.656   3.641   0.839 -0.8267  1.0360  2.1578
10153TIP3    H251875   5.546   3.540   0.870  0.0045 -1.0222 -1.1210
10154TIP3   OH251876   3.501   5.686  13.344  0.1755 -0.3066 -0.4831
10154TIP3    H151877   3.565   5.757  13.338  0.8009 -0.6857  1.2280
10154TIP3    H251878   3.482   5.679  13.437 -2.9382  0.2787 -0.9543
10155TIP3   OH251879   4.799   5.555  10.519  0.1693  0.1217  0.4246
10155TIP3    H151880   4.749   5.601  10.452 -0.8872 -1.1707  0.2805
10155TIP3    H251881   4.756   5.470  10.527  1.5375 -0.5304  1.2808
10156TIP3   OH251882   0.067   4.023  11.907  0.1786 -0.5866 -0.0060
10156TIP3    H151883   0.085   3.931  11.930 -0.1303 -0.7937 -0.5853
10156TIP3    H251884   0.114   4.036  11.825  1.8026  0.3347  1.0218
10157TIP3   OH251885   0.645   0.589  11.885 -0.4131 -0.1986  0.4381
10157TIP3    H151886   0.561   0.613  11.926  0.2420 -1.0235  2.3662
10157TIP3    H251887   0.700   0.666  11.898 -0.3799 -0.2550  0.6461
10158TIP3   OH251888   1.832   4.829   3.513 -0.0078  0.2002 -0.2846
10158TIP3    H151889   1.824   4.802   3.421 -0.6329 -0.7019  0.0247
10158TIP3    H251890   1.748   4.872   3.532  0.2273  0.6297 -0.2130
10159TIP3   OH251891   6.118   0.206   4.694 -0.0675 -0.0418 -0.2476
10159TIP3    H151892   6.094   0.122   4.731  0.6826 -0.1754 -0.0471
10159TIP3    H251893   6.067   0.270   4.743 -0.8919 -0.3937 -0.6237
10160TIP3   OH251894   0.163   1.089   4.107  0.2435 -0.7053  0.1541
10160TIP3    H151895   0.107   1.046   4.172 -0.8679  2.0639  1.1972
10160TIP3    H251896   0.123   1.066   4.023 -0.2369 -1.7181  0.6320
10161TIP3   OH251897   4.707   0.417   4.770  0.4928 -0.5521  0.3825
10161TIP3    H151898   4.719   0.362   4.693 -0.7874 -0.2178 -0.0750
10161TIP3    H251899   4.788   0.466   4.778  0.1214  0.4659 -1.6001
10162TIP3   OH251900   3.601   4.004   3.792  0.1362 -0.1827  0.2826
10162TIP3    H151901   3.695   3.987   3.795  0.2238 -0.2064 -1.4186
10162TIP3    H251902   3.563   3.940   3.852  1.2758  0.6741  2.0024
10163TIP3   OH251903   2.187   4.074  11.576  0.0747 -0.5699 -0.6385
10163TIP3    H151904   2.225   4.106  11.494  0.1298  1.4289  0.1128
10163TIP3    H251905   2.094   4.062  11.557 -0.7517  3.5770 -0.1334
10164TIP3   OH251906   0.074   2.937   3.683  0.0926  0.4272  0.1410
10164TIP3    H151907   0.101   2.909   3.770 -1.8424  0.1719  0.6979
10164TIP3    H251908   0.149   2.987   3.650  0.6962  0.9280  2.1151
10165TIP3   OH251909   5.916   1.934  14.406  0.7094  0.1571  0.3018
10165TIP3    H151910   5.900   2.004  14.343 -1.2360 -0.9984 -0.5662
10165TIP3    H251911   5.940   1.858  14.353 -1.0639 -0.8695  0.8648
10166TIP3   OH251912   4.364   3.502  16.172  0.1846  0.0734  0.5179
10166TIP3    H151913   4.307   3.494  16.248  2.3783  0.2434  2.3007
10166TIP3    H251914   4.439   3.446  16.192  1.0956  0.5401 -1.2988
10167TIP3   OH251915   0.294   3.156   5.627 -0.0225 -0.1468  0.1179
10167TIP3    H151916   0.348   3.233   5.612 -0.7181  0.2302 -0.5313
10167TIP3    H251917   0.341   3.106   5.693  0.3384  0.9441  0.7134
10168TIP3   OH251918   0.840   1.700   6.230 -0.0351 -0.2840 -0.4588
10168TIP3    H151919   0.902   1.725   6.162  1.6265 -1.4861  0.5410
10168TIP3    H251920   0.754   1.721   6.193  0.7535 -1.3116 -3.0951
10169TIP3   OH251921   3.457   3.277   5.206  0.2930  0.4072  0.3168
10169TIP3    H151922   3.366   3.300   5.224  0.7213  1.2130  1.6486
10169TIP3    H251923   3.459   3.181   5.213 -0.1571  0.4804  1.9987
10170TIP3   OH251924   2.427   5.765  11.930 -0.1208  0.2345 -0.0417
10170TIP3    H151925   2.480   5.823  11.876  1.4889 -1.2432 -0.1669
10170TIP3    H251926   2.472   5.680  11.925 -1.0270 -0.4394  2.0204
10171TIP3   OH251927   5.259   1.091   2.343  0.3910 -0.0102  0.8890
10171TIP3    H151928   5.240   1.022   2.407 -0.8909 -0.5110  0.0303
10171TIP3    H251929   5.305   1.045   2.273 -1.3682 -0.2924 -0.1656
10172TIP3   OH251930   3.668   5.016  15.452  0.1237 -0.3653  0.5122
10172TIP3    H151931   3.644   5.099  15.411  1.0908  0.0462  0.7420
10172TIP3    H251932   3.668   4.952  15.381 -1.1150 -0.2821  0.4204
10173TIP3   OH251933   6.719   2.645   2.504 -0.8480  0.0821  0.1062
10173TIP3    H151934   6.627   2.647   2.528 -0.8015 -0.2574  0.3178
10173TIP3    H251935   6.748   2.557   2.526 -1.1601 -0.7636 -2.5488
10174TIP3   OH251936   1.629   3.015   0.943  0.1283 -0.0436 -0.7608
10174TIP3    H151937   1.623   3.028   1.037 -0.5167 -0.7698 -0.6957
10174TIP3    H251938   1.720   2.989   0.928 -0.3769 -2.4433 -0.0078
10175TIP3   OH251939   2.426   4.224  12.263 -0.1586 -0.3457  0.2153
10175TIP3    H151940   2.344   4.186  12.231 -0.2057 -1.0153  1.1091
10175TIP3    H251941   2.491   4.200  12.197 -0.6862  0.2645 -0.5465
10176TIP3   OH251942   1.151   5.360  12.379 -0.2755 -0.4186 -0.1924
10176TIP3    H151943   1.118   5.364  12.289 -0.1172 -0.3742 -0.2499
10176TIP3    H251944   1.078   5.391  12.433 -0.2221 -0.0224 -0.3445
10177TIP3   OH251945   6.378   4.160  16.222 -0.2338 -0.0631  0.3345
10177TIP3    H151946   6.284   4.165  16.208 -0.4913  0.0943  1.9789
10177TIP3    H251947   6.393   4.071  16.253 -0.2043  0.5904  2.3400
10178TIP3   OH251948   3.862   6.031  13.237  0.3538  0.2907  0.0427
10178TIP3    H151949   3.910   5.988  13.166  1.4754 -0.7788  1.3787
10178TIP3    H251950   3.904   5.998  13.317 -0.4754  1.9056  1.1953
10179TIP3   OH251951   5.862   1.798  12.712 -0.4031  0.1331  1.0282
10179TIP3    H151952   5.828   1.760  12.793 -1.5118 -1.6736 -0.1939
10179TIP3    H251953   5.888   1.722  12.659 -0.1517  1.2238 -0.4808
10180TIP3   OH251954   3.529   6.392   1.402 -0.6428 -0.2172 -0.0117
10180TIP3    H151955   3.610   6.415   1.447 -0.9970  0.7901  0.1253
10180TIP3    H251956   3.468   6.463   1.423 -1.2387 -0.4300 -0.9513
10181TIP3   OH251957   2.076   4.114   4.638  0.5378  0.4791 -0.3898
10181TIP3    H151958   2.021   4.158   4.572  2.5205  1.0383 -1.7605
10181TIP3    H251959   2.069   4.021   4.616 -0.9952  0.3874  0.3857
10182TIP3   OH251960   1.054   2.351  12.049 -0.3160 -0.2632 -0.1401
10182TIP3    H151961   1.035   2.287  11.981  0.5810 -0.1137 -0.5575
10182TIP3    H251962   1.143   2.382  12.028 -0.2370  0.1758  0.7889
10183TIP3   OH251963   6.699   1.636   0.128 -0.1253  0.1117  0.0409
10183TIP3    H151964   6.707   1.639   0.033  0.2611 -0.1699  0.0606
10183TIP3    H251965   6.710   1.544   0.150  3.2274  0.5217  0.6211
10184TIP3   OH251966   4.753   3.017   2.705  0.6220  0.1692 -0.3416
10184TIP3    H151967   4.812   3.048   2.774  0.5695 -2.2611  0.8914
10184TIP3    H251968   4.668   3.011   2.747  0.4219 -0.5677 -0.8371
10185TIP3   OH251969   1.058   1.330  14.134 -0.8276  0.8789  0.1425
10185TIP3    H151970   1.077   1.300  14.223 -1.7748 -0.6393 -0.1307
10185TIP3    H251971   1.134   1.384  14.111  0.6737 -0.7775  0.9382
10186TIP3   OH251972   5.733   3.618   4.956 -0.4317  0.1708  0.2523
10186TIP3    H151973   5.671   3.557   4.916  1.8792 -2.8115  0.8698
10186TIP3    H251974   5.711   3.616   5.049  1.2707 -1.9304  0.6737
10187TIP3   OH251975   5.445   6.531  11.355 -0.1151  0.0667  0.1484
10187TIP3    H151976   5.400   6.482  11.423 -1.2578  2.0769  0.9365
10187TIP3    H251977   5.511   6.471  11.321 -1.1869 -1.8403  1.2832
10188TIP3   OH251978   0.068   6.440  12.296  0.2331  0.0394 -0.0477
10188TIP3    H151979   0.117   6.376  12.347 -0.8802  0.4390  1.6095
10188TIP3    H251980  -0.024   6.416  12.309 -0.0971  0.4373 -1.5019
10189TIP3   OH251981   6.228   5.970   3.439 -0.1780 -0.3110  0.5337
10189TIP3    H151982   6.211   6.040   3.375  1.8049 -0.3677 -0.1111
10189TIP3    H251983   6.150   5.915   3.435 -2.6531  2.7176  2.3205
10190TIP3   OH251984   0.802   3.030   0.626 -0.7315  0.2651  0.1125
10190TIP3    H151985   0.750   3.018   0.706 -0.9244 -0.1332 -0.0743
10190TIP3    H251986   0.827   3.123   0.628 -0.4470  0.1848  0.8116
10191TIP3   OH251987   4.030   3.459  12.108  0.7951  0.2222  0.5464
10191TIP3    H151988   3.967   3.482  12.175  1.8747 -0.4326  1.8343
10191TIP3    H251989   4.115   3.461  12.153  1.4251 -1.4850 -0.4539
10192TIP3   OH251990   6.738   3.992   3.807 -0.1855  0.1289  0.6799
10192TIP3    H151991   6.721   3.971   3.899  0.7897 -1.3265  0.5663
10192TIP3    H251992   6.652   3.996   3.767 -0.5653 -1.4704  1.2309
10193TIP3   OH251993   1.619   6.353   5.779  0.2851 -0.6660 -0.1138
10193TIP3    H151994   1.660   6.383   5.697 -1.4605 -0.3203 -0.9106
10193TIP3    H251995   1.660   6.269   5.797  1.9854  0.0722 -0.3515
10194TIP3   OH251996   3.342   1.835   1.054  0.1216  0.0424 -0.5972
10194TIP3    H151997   3.371   1.789   0.975  0.4068 -1.4686  0.3497
10194TIP3    H251998   3.378   1.923   1.046  1.4301 -0.5489 -1.4377
10195TIP3   OH251999   1.689   2.834  12.374 -0.5364  0.1869  0.2011
10195TIP3    H152000   1.784   2.846  12.379 -0.5323 -0.0187  0.5813
10195TIP3    H252001   1.661   2.895  12.305 -0.0875  0.0091 -0.1419
10196TIP3   OH252002   5.662   4.492  14.580 -0.4695  0.4267 -0.1788
10196TIP3    H152003   5.654   4.441  14.499 -0.3282  0.6144 -0.3101
10196TIP3    H252004   5.755   4.491  14.600 -0.3329  1.4332 -0.6995
10197TIP3   OH252005   0.090   6.190   6.624  0.4142  0.1256  0.1373
10197TIP3    H152006   0.171   6.140   6.636  0.0590 -0.1573  1.5740
10197TIP3    H252007   0.023   6.139   6.670 -0.3198  1.0003  0.0828
10198TIP3   OH252008   2.445   5.373  15.597  0.0922  0.1744  0.5799
10198TIP3    H152009   2.350   5.361  15.593  0.1881 -0.8346  1.1034
10198TIP3    H252010   2.464   5.436  15.527 -0.6855 -1.2764 -1.0030
10199TIP3   OH252011   5.852   0.003   3.865 -0.2921 -0.2710 -0.0574
10199TIP3    H152012   5.849   0.028   3.773  0.1137  0.5518  0.1421
10199TIP3    H252013   5.842   0.086   3.912  0.6443 -0.5363  0.6315
10200TIP3   OH252014   1.751   2.729   2.841 -1.0683  0.0666 -0.2082
10200TIP3    H152015   1.829   2.775   2.811 -0.9939 -0.4027 -0.7546
10200TIP3    H252016   1.703   2.794   2.892  0.9196 -0.3090  2.3797
10201TIP3   OH252017   5.986   6.341  13.531 -0.3865  0.5649  0.1615
10201TIP3    H152018   5.999   6.338  13.626  0.5772 -0.4147  0.0118
10201TIP3    H252019   5.902   6.297  13.517  0.4200 -1.0888  0.3995
10202TIP3   OH252020   0.563   0.123  14.984  0.4229  0.3888 -0.1285
10202TIP3    H152021   0.634   0.114  15.047  0.5294  1.5165 -0.0682
10202TIP3    H252022   0.606   0.153  14.904  0.1222  0.2266 -0.3536
10203TIP3   OH252023   5.307   5.845   3.703 -0.2717 -0.1375 -0.1391
10203TIP3    H152024   5.354   5.820   3.623 -1.0664  1.9421 -1.3603
10203TIP3    H252025   5.367   5.823   3.774  1.4379 -0.0026 -1.4575
10204TIP3   OH252026   2.696   3.229   2.539 -0.6261 -0.4266  0.1968
10204TIP3    H152027   2.648   3.232   2.456 -1.2806 -0.2382  0.5791
10204TIP3    H252028   2.629   3.212   2.605 -0.2405  0.3486  0.7957
10205TIP3   OH252029   5.041   0.715  17.083  0.4085 -0.0755  0.5059
10205TIP3    H152030   5.035   0.718  16.987 -0.0573  0.4626  0.5462
10205TIP3    H252031   5.102   0.643  17.101  0.3714 -0.2894 -0.1891
10206TIP3   OH252032   1.954   0.176   4.865 -0.0891 -0.0396 -0.7258
10206TIP3    H152033   1.863   0.160   4.838 -0.3711  1.6398 -0.8961
10206TIP3    H252034   1.950   0.260   4.911  1.1331 -0.7104  0.6623
10207TIP3   OH252035   3.884   3.971   3.995  0.1972  0.0020  0.1944
10207TIP3    H152036   3.923   4.050   3.958 -2.1512  0.6424 -1.1261
10207TIP3    H252037   3.897   3.904   3.928  2.4189 -0.9024  1.4184
10208TIP3   OH252038   2.514   3.058  16.302  0.0932 -0.7576 -0.0694
10208TIP3    H152039   2.552   3.043  16.215 -1.4653 -0.4124 -0.8562
10208TIP3    H252040   2.459   2.981  16.317 -0.6923 -0.1970  0.0016
10209TIP3   OH252041   4.502   1.090   2.323  0.1625 -0.0098 -0.4012
10209TIP3    H152042   4.541   1.091   2.411 -0.0830  1.7928 -0.2619
10209TIP3    H252043   4.522   1.003   2.288  0.6784 -0.5962  1.2531
10210TIP3   OH252044   2.590   2.176  14.316 -0.1016  0.0481  0.1567
10210TIP3    H152045   2.591   2.130  14.232  1.9550  0.7172 -0.2396
10210TIP3    H252046   2.597   2.268  14.292  0.8423  0.2226  1.0535
10211TIP3   OH252047   5.192   6.164   1.903  0.3322  0.0703  0.1685
10211TIP3    H152048   5.265   6.118   1.861 -1.0131 -0.2634 -1.9818
10211TIP3    H252049   5.203   6.255   1.878  0.2445  0.0877  0.1902
10212TIP3   OH252050   4.785   1.556   5.143 -0.0155  0.4095 -0.1644
10212TIP3    H152051   4.720   1.536   5.076 -1.6983  0.7560  1.2869
10212TIP3    H252052   4.786   1.478   5.200  1.0668  0.2912 -0.3201
10213TIP3   OH252053   5.813   6.012  14.548 -0.4938 -0.0857 -0.2553
10213TIP3    H152054   5.729   6.028  14.505 -0.2184  0.5373 -0.5696
10213TIP3    H252055   5.823   6.085  14.610  0.1563  0.2540 -0.7495
10214TIP3   OH252056   4.257   6.567  12.493  0.5541 -0.1046 -0.6799
10214TIP3    H152057   4.248   6.572  12.588 -0.2787  0.6529 -0.7860
10214TIP3    H252058   4.168   6.562  12.461  0.6324  2.5833 -1.5455
10215TIP3   OH252059   4.049   0.174  13.465  0.1697  0.3510 -0.1212
10215TIP3    H152060   3.980   0.110  13.448 -1.3400  1.7299  0.5340
10215TIP3    H252061   4.070   0.162  13.558  0.1308  0.5538 -0.0850
10216TIP3   OH252062   0.492   6.536   5.888  0.4458  0.0526  0.0719
10216TIP3    H152063   0.586   6.537   5.867  0.3665 -2.7432 -0.8445
10216TIP3    H252064   0.480   6.455   5.938 -1.7419 -0.4867 -1.2255
10217TIP3   OH252065   0.648   6.733   2.673  0.0291 -0.3870 -0.3211
10217TIP3    H152066   0.711   6.792   2.632  3.3004 -2.4508  1.2598
10217TIP3    H252067   0.643   6.658   2.614 -1.4560 -0.0105 -0.7025
10218TIP3   OH252068   0.332   2.164  15.023 -0.0537 -0.0323  0.1835
10218TIP3    H152069   0.421   2.129  15.025  0.2749  0.8131  1.4731
10218TIP3    H252070   0.326   2.219  15.102 -0.6643  2.5018 -1.5304
10219TIP3   OH252071   5.513   2.155   5.606  0.1451  0.5054 -0.2177
10219TIP3    H152072   5.490   2.101   5.681 -1.7093  0.3984 -0.8277
10219TIP3    H252073   5.583   2.211   5.638  0.1316 -0.2679  1.2658
10220TIP3   OH252074   4.388   1.797   5.987 -0.0458  0.2462  0.1470
10220TIP3    H152075   4.343   1.865   6.036  0.1076  0.1719  0.3898
10220TIP3    H252076   4.401   1.725   6.049 -0.5436 -0.1567 -0.2065
10221TIP3   OH252077   0.977   6.603  14.963 -0.1263 -0.4246 -0.7264
10221TIP3    H152078   1.034   6.655  14.906  0.8040 -0.2988  0.2635
10221TIP3    H252079   0.911   6.666  14.993  0.9530  0.2247  0.4104
10222TIP3   OH252080   0.524   4.155   0.085 -0.5647  0.1953  0.0395
10222TIP3    H152081   0.473   4.169   0.165  1.0168  1.5601  0.8628
10222TIP3    H252082   0.465   4.105   0.028 -1.9794 -0.2508  1.7825
10223TIP3   OH252083   1.776   5.046   0.296  0.2396  0.0802 -0.0252
10223TIP3    H152084   1.737   4.959   0.287 -0.4991  0.2483  1.3134
10223TIP3    H252085   1.869   5.032   0.280  0.3971 -1.2909  1.6834
10224TIP3   OH252086   4.008   4.397   1.279  0.2222 -0.2561  0.6329
10224TIP3    H152087   3.981   4.485   1.251 -0.5301 -0.6744  0.0141
10224TIP3    H252088   4.103   4.401   1.281  0.1847  0.9893  1.9865
10225TIP3   OH252089   0.579   2.162   1.825  0.1987 -0.4397  0.3135
10225TIP3    H152090   0.666   2.122   1.834  1.3263  1.7763 -0.2447
10225TIP3    H252091   0.569   2.177   1.732 -0.2441  0.4685  0.5016
10226TIP3   OH252092   2.292   1.126   1.941 -0.8499  0.1418  0.7039
10226TIP3    H152093   2.354   1.057   1.917 -0.7688  0.2520  0.5963
10226TIP3    H252094   2.286   1.181   1.863 -2.2316 -0.7203  0.1524
10227TIP3   OH252095   3.618   3.339  13.168 -0.0467 -0.1778 -0.5271
10227TIP3    H152096   3.527   3.318  13.150 -0.2554 -1.7021  1.8476
10227TIP3    H252097   3.665   3.257  13.151  0.7315  0.3060 -0.7707
10228TIP3   OH252098   1.850   1.256   2.761 -0.1740  0.2844  0.5894
10228TIP3    H152099   1.881   1.241   2.850  1.2147 -2.2192 -0.2288
10228TIP3    H252100   1.910   1.321   2.725  1.0119 -0.7912  0.6048
10229TIP3   OH252101   4.852   1.742  11.895  0.2870 -0.1320 -0.4958
10229TIP3    H152102   4.821   1.828  11.923 -0.0546  0.1241 -1.5960
10229TIP3    H252103   4.935   1.730  11.942 -0.0302  0.4610  0.2403
10230TIP3   OH252104   3.529   2.361  14.012  0.1879  0.2785  0.4006
10230TIP3    H152105   3.537   2.447  13.970 -0.6216 -0.5530 -1.5781
10230TIP3    H252106   3.492   2.305  13.944  1.7970 -1.9494  1.2530
10231TIP3   OH252107   1.556   5.865  14.085  0.0983  0.7256  0.1770
10231TIP3    H152108   1.567   5.945  14.136 -0.9016  1.5427 -0.8215
10231TIP3    H252109   1.470   5.831  14.112  0.2849  0.2698  0.2101
10232TIP3   OH252110   6.393   0.739   2.341  0.2673  0.0271  0.6328
10232TIP3    H152111   6.323   0.763   2.402  1.2646  1.2993  1.3198
10232TIP3    H252112   6.411   0.820   2.292 -0.3526 -0.8999 -1.2287
10233TIP3   OH252113   0.922   3.519  15.884 -0.1487  0.1192 -0.3928
10233TIP3    H152114   0.892   3.527  15.974  1.1256  0.1465  0.0429
10233TIP3    H252115   0.856   3.463  15.842 -0.8767  0.2971  0.4800
10234TIP3   OH252116   1.162   6.233  14.925 -0.1345 -0.3279  0.0327
10234TIP3    H152117   1.191   6.253  15.014 -1.7129 -1.9832  0.9878
10234TIP3    H252118   1.243   6.217  14.877  0.7375  0.1573  1.2781
10235TIP3   OH252119   5.085   1.644   5.815  0.0129  0.0331  0.9442
10235TIP3    H152120   5.082   1.681   5.727 -0.5190 -0.4798  0.7396
10235TIP3    H252121   5.170   1.672   5.850  0.5748 -0.3928 -0.0194
10236TIP3   OH252122   2.857   0.589   5.657  0.2895  0.0174 -0.1853
10236TIP3    H152123   2.771   0.586   5.615 -0.2957 -2.9299  0.9867
10236TIP3    H252124   2.849   0.660   5.721 -0.7204  0.7962 -1.1266
10237TIP3   OH252125   5.300   1.906   5.645  0.6310 -0.2439  0.3639
10237TIP3    H152126   5.382   1.931   5.688  0.2497  2.3524 -0.2211
10237TIP3    H252127   5.234   1.962   5.686 -0.6652 -1.4394 -0.0094
10238TIP3   OH252128   2.004   5.810  13.392 -0.4269  0.4151  0.0112
10238TIP3    H152129   2.094   5.816  13.359 -1.3140  1.9793 -2.3779
10238TIP3    H252130   1.966   5.735  13.345 -0.8847  0.9251 -0.4538
10239TIP3   OH252131   2.054   0.990   2.282 -0.2761  0.4672  0.3829
10239TIP3    H152132   2.009   1.072   2.303 -0.5194  0.4454 -0.0323
10239TIP3    H252133   2.069   0.994   2.187 -0.7908 -0.2133  0.2627
10240TIP3   OH252134   4.469   6.504   2.967 -0.7475  0.4108 -0.0995
10240TIP3    H152135   4.423   6.428   2.933  0.5354 -0.5476  0.2282
10240TIP3    H252136   4.472   6.490   3.062  0.4046  0.3191 -0.1353
10241TIP3   OH252137   5.875   6.530  12.625 -0.3715  0.3788 -0.4342
10241TIP3    H152138   5.830   6.592  12.569 -0.0772 -0.9990 -2.2744
10241TIP3    H252139   5.955   6.575  12.652 -1.1566  1.5413  0.0044
10242TIP3   OH252140   2.005   1.382  15.115 -0.4737  0.7072 -0.0728
10242TIP3    H152141   2.092   1.363  15.150 -1.0786  1.9081  2.2840
10242TIP3    H252142   2.021   1.447  15.047  0.5743 -0.1550 -0.6892
10243TIP3   OH252143   0.328   5.037  15.604 -0.0073  0.2014  0.1760
10243TIP3    H152144   0.238   5.065  15.618  0.0112 -0.6620  2.4620
10243TIP3    H252145   0.381   5.115  15.625 -0.1024 -0.4098  3.0201
10244TIP3   OH252146   3.144   4.970   4.282  0.4113  0.5687 -0.0472
10244TIP3    H152147   3.101   4.997   4.201  2.0908 -0.8663 -1.4972
10244TIP3    H252148   3.098   4.890   4.308  0.3045  0.6616  0.0511
10245TIP3   OH252149   6.694   2.803  14.020  0.8284  0.4752  0.3096
10245TIP3    H152150   6.709   2.714  13.989  1.7320  0.5168  0.6071
10245TIP3    H252151   6.664   2.851  13.942  1.4985  0.1917 -0.1267
10246TIP3   OH252152   0.962   4.598   6.615  0.4970 -0.5279  0.3498
10246TIP3    H152153   0.973   4.664   6.683 -0.6911 -1.4295  1.4632
10246TIP3    H252154   0.923   4.522   6.660  0.0067 -1.2808 -1.2473
10247TIP3   OH252155   1.925   3.391  14.195  0.6965  0.5350  0.1217
10247TIP3    H152156   1.863   3.344  14.250 -0.8926  1.4556 -0.7966
10247TIP3    H252157   2.011   3.358  14.220 -0.2299 -1.4941  0.7566
10248TIP3   OH252158   1.315   5.510  13.884 -0.5026  0.1772  0.0021
10248TIP3    H152159   1.257   5.586  13.874 -0.5695 -0.0318 -1.2632
10248TIP3    H252160   1.259   5.435  13.869 -0.3083 -0.1183  0.6937
10249TIP3   OH252161   4.218   5.647  14.343 -0.3296 -0.0153  0.5613
10249TIP3    H152162   4.276   5.722  14.358 -0.9141  0.2439  1.6400
10249TIP3    H252163   4.257   5.575  14.392 -1.0996  0.2683  1.6448
10250TIP3   OH252164   0.167   1.518   2.078  0.7366 -0.3760  0.6884
10250TIP3    H152165   0.182   1.612   2.079  0.0365 -0.2519  0.4523
10250TIP3    H252166   0.217   1.484   2.152 -0.9843  0.5134  2.3428
10251TIP3   OH252167   1.306   3.485   3.505  0.3266 -0.5583 -0.2831
10251TIP3    H152168   1.222   3.527   3.527 -0.1544 -2.2823  1.4352
10251TIP3    H252169   1.310   3.488   3.409 -1.2368  0.4230 -0.3514
10252TIP3   OH252170   0.191   6.003   3.312  0.3844 -0.3571  0.2103
10252TIP3    H152171   0.281   5.985   3.337  0.2263  0.8786  1.7949
10252TIP3    H252172   0.138   5.947   3.368  0.0926  1.1122  1.4719
10253TIP3   OH252173   1.653   2.899  11.216  0.3742  0.6025 -0.3518
10253TIP3    H152174   1.679   2.902  11.124 -4.5039  2.3559 -2.0046
10253TIP3    H252175   1.610   2.814  11.226  0.3014  0.6870  0.0628
10254TIP3   OH252176   4.489   2.310  16.912 -0.4489  0.5029 -0.1133
10254TIP3    H152177   4.525   2.274  16.831 -0.5895 -0.7011  0.3371
10254TIP3    H252178   4.394   2.313  16.898 -0.3725  1.5974 -0.4877
10255TIP3   OH252179   1.528   3.894  17.078 -0.4062 -0.1047 -0.2715
10255TIP3    H152180   1.613   3.870  17.114  0.6151  2.0903 -1.0219
10255TIP3    H252181   1.466   3.836  17.123  1.4863 -2.1226 -0.0784
10256TIP3   OH252182   5.716   3.224   6.342  0.0035  0.0060  0.6775
10256TIP3    H152183   5.762   3.244   6.423 -1.4534 -0.3964  1.6460
10256TIP3    H252184   5.628   3.260   6.355 -0.1517  0.2565 -0.8779
10257TIP3   OH252185   5.630   6.721  16.041  0.1251  0.6497  0.0146
10257TIP3    H152186   5.667   6.795  16.090  0.4268 -0.2235  1.1471
10257TIP3    H252187   5.680   6.720  15.959  1.4815  0.5216  0.8089
10258TIP3   OH252188   0.926   5.822   5.875  0.2510  0.1759 -0.1093
10258TIP3    H152189   0.839   5.790   5.900  0.7997  0.5844  2.6513
10258TIP3    H252190   0.985   5.780   5.937  1.7214  1.7525 -0.3842
10259TIP3   OH252191   1.803   3.722   2.405  0.0578 -0.3353 -0.2077
10259TIP3    H152192   1.825   3.815   2.396  0.1994 -0.2147  1.2276
10259TIP3    H252193   1.709   3.718   2.390  0.2203 -0.1585 -1.4696
10260TIP3   OH252194   1.093   3.657   5.838 -0.3400  0.0602 -0.2867
10260TIP3    H152195   1.055   3.627   5.920  0.2413 -1.2933 -0.4901
10260TIP3    H252196   1.133   3.579   5.800  0.5929  0.9465 -1.1961
10261TIP3   OH252197   2.318   5.556  13.424  0.1514 -0.5939  0.2506
10261TIP3    H152198   2.241   5.529  13.475  1.1200  1.1288  2.8217
10261TIP3    H252199   2.287   5.631  13.373  0.6175  2.0311  3.4893
10262TIP3   OH252200   0.729   5.399  15.579  0.1548  0.1252  0.6127
10262TIP3    H152201   0.757   5.313  15.611  0.3937 -0.5794 -1.3365
10262TIP3    H252202   0.709   5.449  15.658  1.8346 -1.0866  1.8728
10263TIP3   OH252203   1.255   2.923  11.782 -0.2160  0.1588 -0.2316
10263TIP3    H152204   1.244   2.873  11.863 -0.2727  0.1462 -0.2468
10263TIP3    H252205   1.188   2.991  11.787  1.3889  1.7278  0.9098
10264TIP3   OH252206   3.893   4.507  14.234 -0.0578 -0.0291  0.1255
10264TIP3    H152207   3.973   4.555  14.212 -0.0543 -0.6418 -1.3206
10264TIP3    H252208   3.848   4.564  14.296  1.1432  0.6673  0.4032
10265TIP3   OH252209   2.075   0.598   1.467  0.1372  0.3158 -0.6769
10265TIP3    H152210   2.109   0.581   1.379  0.0392  0.9262 -0.8388
10265TIP3    H252211   2.019   0.523   1.485 -1.8114  1.3175 -2.1517
10266TIP3   OH252212   0.671   3.616  11.396 -0.4845  0.5910 -0.0990
10266TIP3    H152213   0.634   3.682  11.338 -1.7295  0.6814  0.7541
10266TIP3    H252214   0.758   3.649  11.418 -1.2721  2.2553  0.7266
10267TIP3   OH252215   5.374   2.882   3.221  0.2705 -0.0569  0.3148
10267TIP3    H152216   5.460   2.925   3.220  0.8014 -0.9869  1.9100
10267TIP3    H252217   5.326   2.926   3.291 -0.7434  0.7461 -0.8518
10268TIP3   OH252218   1.035   4.026  11.253 -0.7699  0.0282  0.4962
10268TIP3    H152219   0.944   4.055  11.260 -0.5326  0.9211  0.0364
10268TIP3    H252220   1.065   4.061  11.169 -0.7695 -2.4751 -0.6448
10269TIP3   OH252221   2.244   3.104   2.009 -0.6099  0.0258 -0.6071
10269TIP3    H152222   2.245   3.180   2.067  1.4183  0.4922 -1.1549
10269TIP3    H252223   2.153   3.096   1.980 -1.4058  0.5488  1.5996
10270TIP3   OH252224   1.351   5.752  14.387  0.1203 -0.2304  0.1002
10270TIP3    H152225   1.326   5.759  14.295 -0.0646  0.7659  0.2131
10270TIP3    H252226   1.351   5.842  14.419  0.1942 -0.5614  1.0756
10271TIP3   OH252227   3.736   2.620  15.203 -0.0267 -0.2707  0.0077
10271TIP3    H152228   3.661   2.676  15.182  0.5865  0.3104 -0.6743
10271TIP3    H252229   3.753   2.638  15.295 -0.8930 -0.6162  0.2484
10272TIP3   OH252230   0.631   5.173   3.248 -0.2125 -0.0155  0.0057
10272TIP3    H152231   0.565   5.155   3.315  0.3138  0.1525  0.5711
10272TIP3    H252232   0.591   5.141   3.167 -2.7872  3.8059 -0.4814
10273TIP3   OH252233   3.548   1.074   2.543 -0.4161 -0.5315  0.0131
10273TIP3    H152234   3.622   1.058   2.485 -0.4652 -0.1613 -0.1498
10273TIP3    H252235   3.532   1.168   2.538 -0.7848 -0.5810  0.1826
10274TIP3   OH252236   5.737   2.992  11.638  0.1762 -0.1659  0.3383
10274TIP3    H152237   5.767   3.083  11.630  3.0124 -0.9828  0.5825
10274TIP3    H252238   5.722   2.964  11.548 -0.9869  0.6055  0.2780
10275TIP3   OH252239   1.569   5.153   0.726  0.3757  0.4256  0.1447
10275TIP3    H152240   1.481   5.191   0.735  0.0403 -0.4555  0.7648
10275TIP3    H252241   1.627   5.229   0.714 -0.4579  1.0198 -0.2507
10276TIP3   OH252242   5.995   0.671  12.851  0.1860 -0.4341 -0.3651
10276TIP3    H152243   5.954   0.723  12.782 -1.4501  1.2865  1.7487
10276TIP3    H252244   6.089   0.692  12.844 -0.1717  1.1461 -0.9296
10277TIP3   OH252245   1.391   3.336   2.111  0.1789  0.1455 -0.4712
10277TIP3    H152246   1.345   3.252   2.118  0.6227 -0.1041 -0.5316
10277TIP3    H252247   1.435   3.332   2.026  0.6956  0.1916 -0.2071
10278TIP3   OH252248   1.881   5.504   4.617 -0.1204  0.3850 -0.2284
10278TIP3    H152249   1.924   5.473   4.537  0.0187 -2.4181  0.8121
10278TIP3    H252250   1.812   5.562   4.587 -0.0002 -0.4990 -2.3977
10279TIP3   OH252251   5.482   4.168   2.978 -0.4926 -0.0739  0.1253
10279TIP3    H152252   5.389   4.167   3.004 -0.8199 -2.6563 -0.8873
10279TIP3    H252253   5.516   4.248   3.018 -3.1214  0.9420  0.5913
10280TIP3   OH252254   5.395   1.646  16.530  0.3867 -0.0507 -0.3661
10280TIP3    H152255   5.328   1.706  16.496  0.8781  0.7560  0.0833
10280TIP3    H252256   5.355   1.559  16.522 -0.1328  0.2702 -1.5128
10281TIP3   OH252257   3.904   3.398   6.581  0.3226 -0.7352 -0.3181
10281TIP3    H152258   3.829   3.421   6.526  0.0290 -0.5999  0.1332
10281TIP3    H252259   3.865   3.368   6.663  0.7523 -1.2325 -0.2941
10282TIP3   OH252260   3.862   0.451  12.244  0.3801 -1.0664 -0.3808
10282TIP3    H152261   3.875   0.448  12.339 -1.1862 -1.1396 -0.1328
10282TIP3    H252262   3.921   0.520  12.214 -0.9364  0.8178  1.0364
10283TIP3   OH252263   5.362   4.642   0.175 -0.2195 -0.2848  0.0655
10283TIP3    H152264   5.389   4.705   0.107 -0.3906 -0.5490 -0.2520
10283TIP3    H252265   5.340   4.563   0.126  0.5789 -0.7985  0.5077
10284TIP3   OH252266   5.380   2.225  13.970 -0.3530  0.8030 -0.1263
10284TIP3    H152267   5.450   2.160  13.963  0.0334  1.1437  0.5295
10284TIP3    H252268   5.302   2.180  13.937 -0.2183 -0.1915  0.8771
10285TIP3   OH252269   5.701   3.012  14.047  0.7990 -0.3097  0.2818
10285TIP3    H152270   5.695   2.983  13.956 -0.5577 -0.8680  0.5197
10285TIP3    H252271   5.679   2.934  14.099  1.2190  0.0886  1.0766
10286TIP3   OH252272   0.977   5.177  13.308 -0.4383  0.1161 -0.3355
10286TIP3    H152273   1.023   5.252  13.345 -0.9728 -0.2439  1.1298
10286TIP3    H252274   0.906   5.216  13.256 -0.5973  0.6302  0.2554
10287TIP3   OH252275   4.882   6.519   5.748  0.7427  0.1822  0.0846
10287TIP3    H152276   4.932   6.575   5.688  1.4444  1.3738  1.7212
10287TIP3    H252277   4.851   6.578   5.816 -1.1107 -0.9230  0.2696
10288TIP3   OH252278   6.387   5.389  15.978 -0.4548  0.2356  0.1153
10288TIP3    H152279   6.426   5.424  15.898 -0.9968 -0.6040 -0.5370
10288TIP3    H252280   6.430   5.437  16.049 -1.8011  2.8709 -0.7282
10289TIP3   OH252281   4.732   2.287  14.781 -0.0182  0.3577  0.2036
10289TIP3    H152282   4.651   2.334  14.802  0.9564  2.2482 -0.0226
10289TIP3    H252283   4.739   2.295  14.685 -1.5705 -3.3478 -0.4071
10290TIP3   OH252284   0.668   6.264   6.199  0.5487  0.4162 -0.3942
10290TIP3    H152285   0.622   6.346   6.212  0.2046  0.0898  0.5453
10290TIP3    H252286   0.681   6.230   6.288  0.9733 -0.3789 -0.7541
10291TIP3   OH252287   5.001   2.172   6.335  0.1903  0.0146 -0.1784
10291TIP3    H152288   4.967   2.261   6.338 -0.1964 -0.1450  0.2470
10291TIP3    H252289   4.924   2.116   6.336  0.3800 -0.3110 -1.8116
10292TIP3   OH252290   5.398   2.643   2.010 -0.0120  0.4447  0.0777
10292TIP3    H152291   5.340   2.576   2.046 -0.0486  0.6380  0.3810
10292TIP3    H252292   5.418   2.700   2.084 -0.0515  0.8197 -0.1949
10293TIP3   OH252293   1.288   6.073  15.813  0.0399  0.6382  0.1571
10293TIP3    H152294   1.361   6.044  15.758  0.1341  0.2185  0.4962
10293TIP3    H252295   1.249   6.146  15.765 -0.5778 -0.4215 -0.9889
10294TIP3   OH252296   4.248   5.792  11.682  0.2906  0.0759  0.5218
10294TIP3    H152297   4.227   5.829  11.767 -0.4444  1.1735 -0.1251
10294TIP3    H252298   4.332   5.747  11.696  0.5840  0.9214  1.6199
10295TIP3   OH252299   1.834   3.449  16.717  0.1563 -0.6970  0.0581
10295TIP3    H152300   1.895   3.384  16.750  0.7019 -0.4539 -0.4448
10295TIP3    H252301   1.819   3.509  16.790  1.4420 -0.0911 -0.1541
10296TIP3   OH252302   4.891   4.937  11.427  0.0452 -0.4170 -0.0277
10296TIP3    H152303   4.897   4.979  11.512  0.8245  1.1690 -0.8154
10296TIP3    H252304   4.807   4.891  11.428 -2.2723  3.3969 -0.0005
10297TIP3   OH252305   6.376   3.640   0.112 -0.2412 -0.1810  0.1579
10297TIP3    H152306   6.356   3.659   0.204  0.3143  0.1975  0.2065
10297TIP3    H252307   6.301   3.589   0.081 -0.1136 -0.9319  1.0172
10298TIP3   OH252308   4.114   4.739   2.617 -0.5576  0.3001 -0.2646
10298TIP3    H152309   4.168   4.791   2.677 -0.7937 -1.3067  1.4315
10298TIP3    H252310   4.161   4.656   2.609 -0.5621  0.4504 -2.3229
10299TIP3   OH252311   6.615   1.286  15.722  0.3946 -0.1749 -0.0987
10299TIP3    H152312   6.592   1.193  15.729  0.4209 -0.1463  0.3794
10299TIP3    H252313   6.591   1.323  15.807 -0.2650  0.3993 -0.5234
10300TIP3   OH252314   3.282   1.113  15.026  0.6393  0.2645  0.0425
10300TIP3    H152315   3.240   1.118  15.111 -0.4782  1.3309 -0.5494
10300TIP3    H252316   3.353   1.177  15.031  0.8068  0.0622  0.2873
10301TIP3   OH252317   1.385   2.615  14.150 -0.5092 -0.5406  0.0650
10301TIP3    H152318   1.294   2.642  14.165 -0.4385 -0.8540  1.1735
10301TIP3    H252319   1.429   2.693  14.117 -1.2908 -0.5364 -1.0289
10302TIP3   OH252320   3.044   5.325  12.884  0.1532  0.4320 -0.4977
10302TIP3    H152321   3.070   5.243  12.925 -0.4728  0.1295 -0.7069
10302TIP3    H252322   3.124   5.379  12.886  0.4969 -0.0859 -0.1425
10303TIP3   OH252323   6.274   5.828   2.696 -0.4379  0.2653 -0.3177
10303TIP3    H152324   6.186   5.798   2.720 -0.3542 -2.0364 -2.5211
10303TIP3    H252325   6.264   5.864   2.608  0.6328  1.0889 -0.1231
10304TIP3   OH252326   0.197   1.331  11.081  0.4443 -0.0565  0.0108
10304TIP3    H152327   0.238   1.245  11.090 -0.7850 -0.5641  1.0455
10304TIP3    H252328   0.152   1.328  10.997  1.4745  0.0594 -0.5570
10305TIP3   OH252329   4.582   4.768  15.976 -0.1512 -0.3449 -0.2812
10305TIP3    H152330   4.647   4.811  16.031 -0.8187  0.8888 -0.4185
10305TIP3    H252331   4.630   4.696  15.933  0.6453 -0.6066  1.0036
10306TIP3   OH252332   5.137   5.699   4.530 -0.0782  0.1155  0.0512
10306TIP3    H152333   5.188   5.737   4.459  0.8484 -2.8986 -1.0443
10306TIP3    H252334   5.060   5.661   4.487 -1.1192  0.9215  1.1231
10307TIP3   OH252335   6.248   0.079  16.044  0.3606 -0.7053 -0.4808
10307TIP3    H152336   6.321   0.122  15.999 -0.0681 -0.2893 -0.7887
10307TIP3    H252337   6.184   0.063  15.975  0.3862 -1.5649 -0.3095
10308TIP3   OH252338   5.248   0.518   4.636  0.0502 -0.7987 -0.4420
10308TIP3    H152339   5.202   0.465   4.702 -0.2813 -0.7653 -0.6459
10308TIP3    H252340   5.237   0.608   4.666 -0.2663 -0.7697 -0.6492
10309TIP3   OH252341   1.654   2.370   0.588  0.3902  0.0445 -0.0960
10309TIP3    H152342   1.623   2.379   0.498  1.9811  1.9251 -0.5199
10309TIP3    H252343   1.590   2.312   0.630 -1.5096  0.7323 -1.8919
10310TIP3   OH252344   3.734   5.556  16.335 -0.2665 -0.5477  0.1300
10310TIP3    H152345   3.726   5.555  16.430 -0.4725 -0.6552  0.1118
10310TIP3    H252346   3.762   5.646  16.314 -0.6339 -0.4025  0.2573
10311TIP3   OH252347   5.024   5.305  14.459  0.2917 -0.0332 -0.5140
10311TIP3    H152348   4.931   5.314  14.439  0.0988  0.2885  0.5145
10311TIP3    H252349   5.030   5.315  14.554  1.6926  2.6658 -0.7967
10312TIP3   OH252350   0.467   6.337  13.949 -0.1257  0.2374 -0.0618
10312TIP3    H152351   0.487   6.406  13.886 -0.2086  0.2104 -0.1187
10312TIP3    H252352   0.487   6.375  14.034 -1.6206  0.8642  0.0334
10313TIP3   OH252353   2.954   2.482  14.281  0.3260  0.0000 -0.3062
10313TIP3    H152354   2.946   2.526  14.365 -0.9411  0.1080 -0.4648
10313TIP3    H252355   2.976   2.551  14.219  0.8844 -0.0191 -0.1317
10314TIP3   OH252356   2.652   2.110   5.059  0.7090 -0.3883 -0.0155
10314TIP3    H152357   2.744   2.115   5.086  1.4277  1.4778 -2.4753
10314TIP3    H252358   2.653   2.061   4.977 -0.2499  0.9802 -0.8828
10315TIP3   OH252359   0.652   6.378   0.579  0.2647 -0.0695  0.5316
10315TIP3    H152360   0.627   6.325   0.655 -0.6419 -1.6233 -0.7790
10315TIP3    H252361   0.579   6.367   0.518  2.0521 -0.9149 -1.5610
10316TIP3   OH252362   5.290   5.228   6.138  0.1506 -0.6208 -0.2774
10316TIP3    H152363   5.217   5.184   6.180  1.2363 -1.4073  0.8484
10316TIP3    H252364   5.291   5.192   6.049 -2.1833  1.0794 -1.0888
10317TIP3   OH252365   5.546   4.004  12.604  0.1890  0.3971 -0.4583
10317TIP3    H152366   5.600   4.002  12.683 -1.0615 -0.7254  0.4241
10317TIP3    H252367   5.485   4.076  12.618  0.6902  0.9249 -0.9329
10318TIP3   OH252368   3.981   1.678   4.814  0.0512  0.1749 -0.0893
10318TIP3    H152369   3.923   1.602   4.810  1.8597 -1.2476 -0.3435
10318TIP3    H252370   3.941   1.742   4.755 -1.0619 -0.8872 -0.5171
10319TIP3   OH252371   1.138   4.114  14.860  0.1550 -0.0526 -0.6284
10319TIP3    H152372   1.101   4.201  14.871 -0.9777 -0.6483  0.5652
10319TIP3    H252373   1.161   4.086  14.949 -1.3715 -1.7177 -0.6890
10320TIP3   OH252374   4.633   5.403  15.939  0.2896  0.2110 -0.4171
10320TIP3    H152375   4.709   5.460  15.924 -1.2827  3.1441  1.7414
10320TIP3    H252376   4.565   5.438  15.882 -0.4765 -0.0419  0.3267
10321TIP3   OH252377   0.210   1.952   0.893 -0.1679 -0.1523 -0.2706
10321TIP3    H152378   0.202   1.894   0.818  0.8517 -1.8116  0.8383
10321TIP3    H252379   0.181   1.898   0.968  1.0221  0.6836  0.8292
10322TIP3   OH252380   4.474   6.705   3.229  0.1628 -0.8374  0.0617
10322TIP3    H152381   4.484   6.633   3.291  1.2787  1.0736  2.2886
10322TIP3    H252382   4.559   6.750   3.231  0.4574 -0.9849 -3.3840
10323TIP3   OH252383   1.424   6.258   4.515  0.2586 -0.7876  0.0578
10323TIP3    H152384   1.347   6.258   4.458  0.4015  1.9624 -0.2501
10323TIP3    H252385   1.431   6.167   4.546 -3.4834 -1.0322  0.6453
10324TIP3   OH252386   6.584   2.095   2.083  0.1687  0.1972 -0.6079
10324TIP3    H152387   6.669   2.100   2.127 -0.0867  1.1800 -0.1792
10324TIP3    H252388   6.521   2.120   2.151 -0.3513  0.5261 -1.2002
10325TIP3   OH252389   3.574   6.115   0.418  0.0190 -0.2188  0.2453
10325TIP3    H152390   3.617   6.150   0.340  0.8101 -0.5169  0.5479
10325TIP3    H252391   3.645   6.095   0.478 -0.6002  0.4545  1.2411
10326TIP3   OH252392   6.029   6.654  15.032  0.3191  0.3066 -1.0426
10326TIP3    H152393   6.068   6.663  15.119 -0.4934  1.0511 -0.7465
10326TIP3    H252394   5.985   6.737  15.016 -0.6807 -0.3137 -1.6023
10327TIP3   OH252395   6.469   5.667  15.501  0.6649 -0.5052 -0.1073
10327TIP3    H152396   6.476   5.600  15.433 -0.2328 -0.8230  0.1003
10327TIP3    H252397   6.403   5.727  15.468 -0.3466 -1.0807  0.8179
10328TIP3   OH252398   2.736   4.081   3.848 -0.1904 -0.1958  0.2266
10328TIP3    H152399   2.705   4.032   3.772 -0.0760  0.9178 -0.5747
10328TIP3    H252400   2.802   4.141   3.812 -1.9986  2.2088  0.6987
10329TIP3   OH252401   0.394   0.717  11.974  0.6186  0.1606  0.1559
10329TIP3    H152402   0.381   0.699  12.067  1.3489 -0.4919  0.1375
10329TIP3    H252403   0.309   0.751  11.944  0.1865 -0.2279  0.9126
10330TIP3   OH252404   2.753   4.042  12.931  0.7671  1.1453  0.0414
10330TIP3    H152405   2.706   4.023  12.850  0.9056 -0.5541  0.3158
10330TIP3    H252406   2.768   3.956  12.971  1.1662  1.8946  1.6109
10331TIP3   OH252407   5.900   5.315  16.278  0.1896  0.4851  0.0637
10331TIP3    H152408   5.940   5.234  16.309 -0.4298  1.1260  2.8137
10331TIP3    H252409   5.810   5.311  16.311 -0.2960  1.6614 -1.0278
10332TIP3   OH252410   1.472   5.093   0.237 -1.1632 -0.2152 -0.0807
10332TIP3    H152411   1.394   5.104   0.291 -0.3510 -1.3934  1.4233
10332TIP3    H252412   1.497   5.001   0.251  0.0835 -0.0516 -1.1081
10333TIP3   OH252413   0.050   1.550  16.673  0.5048  0.4083  0.5049
10333TIP3    H152414   0.028   1.458  16.692 -1.5743  1.0028  1.2858
10333TIP3    H252415   0.112   1.545  16.600  0.2727 -1.6148  0.3821
10334TIP3   OH252416   0.751   0.981   5.044 -0.0422 -0.1971 -0.2001
10334TIP3    H152417   0.764   0.967   4.950 -0.0094 -2.4842  0.1045
10334TIP3    H252418   0.708   1.066   5.049  3.0205  1.6879 -2.0635
10335TIP3   OH252419   6.577   3.104   5.607  0.5422  0.2073 -0.0302
10335TIP3    H152420   6.587   3.036   5.674  0.6066 -1.1231 -1.3248
10335TIP3    H252421   6.492   3.144   5.626  1.1714  0.8534  1.6620
10336TIP3   OH252422   1.995   1.871   5.666 -0.2279 -0.2924  0.3974
10336TIP3    H152423   1.980   1.906   5.579 -1.4488 -0.7920  0.3918
10336TIP3    H252424   2.090   1.862   5.673 -0.0932  0.2653 -0.6681
10337TIP3   OH252425   4.499   6.635   1.547 -0.8571  0.3676 -0.1210
10337TIP3    H152426   4.526   6.630   1.456  0.0930  2.8196 -0.0481
10337TIP3    H252427   4.412   6.674   1.544 -1.3922 -0.7689 -0.0007
10338TIP3   OH252428   0.524   5.355   1.190 -0.4406  0.2697  0.5024
10338TIP3    H152429   0.430   5.368   1.175 -0.2950  0.5894 -0.1656
10338TIP3    H252430   0.539   5.390   1.278 -0.8596  0.6440  0.4298
10339TIP3   OH252431   0.642   5.748   1.145  0.6467  0.5078  0.1727
10339TIP3    H152432   0.681   5.719   1.228  2.0354  0.3149 -0.5218
10339TIP3    H252433   0.715   5.787   1.097 -0.2520  1.0742 -0.7663
10340TIP3   OH252434   1.557   2.935   6.138 -0.2349 -0.6001 -0.2047
10340TIP3    H152435   1.576   2.951   6.046 -0.7197  2.1375  0.0723
10340TIP3    H252436   1.643   2.921   6.178  0.2994  1.0920 -0.6587
10341TIP3   OH252437   6.698   5.441   4.292 -0.3462 -0.4926  0.5226
10341TIP3    H152438   6.691   5.392   4.374 -1.2936 -2.1152 -0.4639
10341TIP3    H252439   6.763   5.392   4.241 -0.3940  0.0051 -0.0251
10342TIP3   OH252440   4.217   6.026  14.881 -0.4108 -0.8215 -0.1008
10342TIP3    H152441   4.214   5.958  14.813 -0.3560  0.8712 -1.8994
10342TIP3    H252442   4.309   6.030  14.907 -0.0667 -0.2729 -1.2997
10343TIP3   OH252443   4.651   4.933   2.397  0.3313  0.0668  0.0734
10343TIP3    H152444   4.731   4.891   2.366 -0.1360 -3.1834  2.7060
10343TIP3    H252445   4.680   4.990   2.468  0.6470  2.3349 -1.7460
10344TIP3   OH252446   6.258   2.615   2.339  0.4854  0.1772  0.1519
10344TIP3    H152447   6.278   2.601   2.247 -1.1414 -1.1874 -0.0400
10344TIP3    H252448   6.163   2.624   2.343  0.7273  4.7810  1.2027
10345TIP3   OH252449   0.887   5.198   3.306 -0.1469 -0.0178 -0.2267
10345TIP3    H152450   0.899   5.170   3.397  1.4807  0.1526 -0.3478
10345TIP3    H252451   0.794   5.218   3.298 -0.6553 -1.7568  0.9017
10346TIP3   OH252452   3.460   1.973   1.455  0.0961  0.1183  0.2691
10346TIP3    H152453   3.408   2.048   1.427  2.8198  1.5126 -1.5748
10346TIP3    H252454   3.546   2.010   1.478  0.5341 -2.0833  2.6239
10347TIP3   OH252455   3.277   1.751   1.902 -0.1233  0.0205  0.5756
10347TIP3    H152456   3.282   1.716   1.991  2.1103  1.4735  1.1212
10347TIP3    H252457   3.365   1.785   1.885  0.2495 -2.2126 -3.0827
10348TIP3   OH252458   4.432   2.306  16.453  0.0568  0.3619 -0.1153
10348TIP3    H152459   4.499   2.343  16.511 -0.2005  1.3194 -0.4065
10348TIP3    H252460   4.470   2.224  16.422  0.8790  0.6375  0.1321
10349TIP3   OH252461   0.551   5.707   0.089 -0.1673  0.6590  0.0533
10349TIP3    H152462   0.622   5.689   0.150 -1.1611  0.4410  1.1963
10349TIP3    H252463   0.500   5.626   0.086 -2.0866  1.7168  1.6819
10350TIP3   OH252464   2.117   4.137   2.609  0.2939 -0.5906  0.7106
10350TIP3    H152465   2.206   4.158   2.637 -0.0470  0.3936  1.1007
10350TIP3    H252466   2.125   4.120   2.515  0.6496  1.1511  0.3969
10351TIP3   OH252467   6.712   0.374  13.435 -0.9666  0.0020  0.0638
10351TIP3    H152468   6.708   0.337  13.524  1.4442  0.0520  0.2394
10351TIP3    H252469   6.625   0.355  13.399 -1.0971 -2.6033  1.4238
10352TIP3   OH252470   5.494   2.184  13.555 -0.6024  0.4764  1.0096
10352TIP3    H152471   5.470   2.259  13.500  1.2579  0.6534  0.3725
10352TIP3    H252472   5.535   2.122  13.495  0.5706  0.2363  2.0178
10353TIP3   OH252473   5.028   4.800   4.461 -0.6421  0.6958  0.1483
10353TIP3    H152474   5.054   4.723   4.512 -1.2376  0.8290  0.6719
10353TIP3    H252475   5.084   4.870   4.493  0.2519  0.3813 -0.6847
10354TIP3   OH252476   2.280   2.116   5.782  0.0710  0.0044 -0.5702
10354TIP3    H152477   2.254   2.101   5.873  2.0138 -2.8158 -0.3741
10354TIP3    H252478   2.202   2.154   5.741 -1.5149 -0.4776  1.7875
10355TIP3   OH252479   3.542   5.946   5.387 -0.2998  0.1925 -0.3843
10355TIP3    H152480   3.580   5.867   5.426  1.5142  1.0700 -0.2544
10355TIP3    H252481   3.517   5.920   5.299  0.4630 -0.4974 -0.4142
10356TIP3   OH252482   2.154   4.696  15.070 -0.0268  0.2076 -0.4023
10356TIP3    H152483   2.140   4.725  14.980  0.8414 -1.6379 -1.1842
10356TIP3    H252484   2.101   4.617  15.079  0.8352 -0.3136  0.3043
10357TIP3   OH252485   0.672   0.820  12.285 -0.1891  0.0964 -0.7739
10357TIP3    H152486   0.696   0.728  12.273 -1.2652 -0.3071 -0.0354
10357TIP3    H252487   0.747   0.860  12.328 -0.6725 -1.0544  1.2435
10358TIP3   OH252488   2.217   5.319   2.909 -0.4393  0.0929 -0.5259
10358TIP3    H152489   2.146   5.297   2.968 -0.6943 -0.8620 -1.1630
10358TIP3    H252490   2.296   5.304   2.960 -0.6830  1.4593  0.2882
10359TIP3   OH252491   5.398   5.386  12.360 -0.1874 -0.4793 -0.2957
10359TIP3    H152492   5.450   5.466  12.368 -0.3684 -0.3578 -0.3309
10359TIP3    H252493   5.320   5.413  12.311 -0.3324 -0.6367 -0.1518
10360TIP3   OH252494   1.781   6.602  14.991 -0.2430 -0.5301 -0.6019
10360TIP3    H152495   1.794   6.528  14.933 -1.6867 -0.4271 -1.0987
10360TIP3    H252496   1.745   6.671  14.935 -1.4546 -0.3497  0.3570
10361TIP3   OH252497   5.464   0.400  14.534  0.1277  0.0595  0.5616
10361TIP3    H152498   5.557   0.383  14.516 -0.1327 -0.8062 -0.0118
10361TIP3    H252499   5.417   0.343  14.474 -0.7827  0.1971  1.1267
10362TIP3   OH252500   1.876   5.594  16.214 -0.5162 -0.0278 -0.0981
10362TIP3    H152501   1.967   5.619  16.233 -0.4067  0.6939 -1.4352
10362TIP3    H252502   1.877   5.498  16.216  0.4208 -0.0457 -0.6559
10363TIP3   OH252503   2.108   0.905   0.830 -0.1097 -0.5283  0.6272
10363TIP3    H152504   2.189   0.854   0.833 -0.1791 -0.6108  1.3206
10363TIP3    H252505   2.116   0.968   0.902 -0.1591  0.2443 -0.0302
10364TIP3   OH252506   5.655   6.344  11.265  0.0466 -0.6179  0.1280
10364TIP3    H152507   5.720   6.283  11.298  1.2565  0.3733 -0.3529
10364TIP3    H252508   5.660   6.337  11.170 -1.8439 -1.8182  0.0524
10365TIP3   OH252509   4.792   3.066   1.183 -0.2210 -0.4193 -0.1195
10365TIP3    H152510   4.748   2.994   1.229  0.8857  0.1095  1.8987
10365TIP3    H252511   4.885   3.046   1.190  0.0078 -0.2835 -2.1889
10366TIP3   OH252512   4.915   4.789  11.761  0.1549 -0.2102  0.0630
10366TIP3    H152513   4.829   4.780  11.720  1.3723 -0.0748 -2.7561
10366TIP3    H252514   4.920   4.717  11.824 -1.3210 -1.3233 -1.0409
10367TIP3   OH252515   1.952   0.214  11.832 -0.1444  0.5253 -0.3883
10367TIP3    H152516   1.961   0.300  11.874 -0.9173  0.4069  0.0471
10367TIP3    H252517   1.872   0.222  11.779 -0.9272 -0.2813  0.6065
10368TIP3   OH252518   1.754   5.064  15.475 -0.1890 -0.7190 -0.3545
10368TIP3    H152519   1.699   5.005  15.528 -0.1876 -0.9436 -0.6060
10368TIP3    H252520   1.807   5.110  15.540  0.8376 -2.0112 -0.2421
10369TIP3   OH252521   4.376   0.478  16.963  0.3522  0.4203  0.1194
10369TIP3    H152522   4.341   0.433  16.886  0.2748  0.1366  0.3196
10369TIP3    H252523   4.450   0.529  16.929 -0.7908  1.7424 -0.4850
10370TIP3   OH252524   6.767   0.604   4.401  0.3225  0.4970  0.0876
10370TIP3    H152525   6.792   0.653   4.323  2.1382 -0.2052  0.1825
10370TIP3    H252526   6.720   0.527   4.367  0.6909  0.4362 -0.2914
10371TIP3   OH252527   0.746   5.113   0.875  0.1167  0.6205 -0.0537
10371TIP3    H152528   0.757   5.060   0.953  0.0105  0.2258 -0.3046
10371TIP3    H252529   0.814   5.083   0.815  0.7389  1.5018  0.1950
10372TIP3   OH252530   4.672   4.445   3.568 -0.3106  0.7159  0.0321
10372TIP3    H152531   4.665   4.454   3.663 -0.9199 -1.0814  0.2133
10372TIP3    H252532   4.766   4.442   3.551 -0.1972  1.0921  0.5793
10373TIP3   OH252533   5.109   4.631   1.946 -0.1086  0.3367  0.4721
10373TIP3    H152534   5.155   4.555   1.980 -1.7196 -1.6242 -1.4361
10373TIP3    H252535   5.023   4.627   1.988 -0.3850  0.8223 -0.0439
10374TIP3   OH252536   6.720   3.218   4.429  0.1137  0.2054 -0.1803
10374TIP3    H152537   6.655   3.155   4.398  1.6962 -1.5925 -0.0353
10374TIP3    H252538   6.671   3.300   4.439 -1.7734 -0.6820 -1.4874
10375TIP3   OH252539   5.554   5.615   5.957 -0.0798 -0.0120  0.1184
10375TIP3    H152540   5.490   5.566   6.008 -1.0641  1.0626 -0.0532
10375TIP3    H252541   5.504   5.686   5.916  1.0316  0.2542 -0.8378
10376TIP3   OH252542   4.999   3.025   0.006  0.0694 -0.5231 -0.3591
10376TIP3    H152543   5.090   3.047   0.028 -0.2296 -0.1795  0.6029
10376TIP3    H252544   4.998   2.930   0.001  0.4363 -0.5399 -0.1624
10377TIP3   OH252545   5.888   5.004  15.547 -0.8737 -0.0659  0.4540
10377TIP3    H152546   5.913   4.932  15.605  2.0922  1.0204  0.7153
10377TIP3    H252547   5.909   4.973  15.459  1.4895  0.7512  0.6528
10378TIP3   OH252548   5.389   0.654   5.540  0.1858 -0.3379 -0.0249
10378TIP3    H152549   5.305   0.696   5.562  0.4004  0.2100 -0.2310
10378TIP3    H252550   5.414   0.608   5.620  0.0593  0.1292  0.2901
10379TIP3   OH252551   2.873   0.761  16.423 -0.0572  0.0725  0.7289
10379TIP3    H152552   2.949   0.817  16.410  0.8743 -1.6166 -1.8759
10379TIP3    H252553   2.803   0.820  16.451  1.1197  2.3451 -0.8734
10380TIP3   OH252554   5.715   0.083  16.502 -1.1793 -0.0626 -0.5147
10380TIP3    H152555   5.772   0.011  16.472 -2.2761 -0.7751 -0.9492
10380TIP3    H252556   5.753   0.161  16.463  0.6796 -0.2209  0.8376
10381TIP3   OH252557   3.207   1.689   3.230  0.0007 -0.6945  0.1088
10381TIP3    H152558   3.203   1.700   3.135  0.6201  0.2173  0.1734
10381TIP3    H252559   3.280   1.744   3.257 -0.0805 -1.0576  1.1057
10382TIP3   OH252560   2.491   1.759  17.271 -0.4704 -0.0466  0.2315
10382TIP3    H152561   2.497   1.797  17.359  0.8733  1.8076 -0.5944
10382TIP3    H252562   2.455   1.671  17.285 -0.4757  0.2692  2.5952
10383TIP3   OH252563   3.065   4.760   5.563 -0.0376 -0.2300  0.5101
10383TIP3    H152564   3.025   4.814   5.631 -0.4002  0.8285 -0.5175
10383TIP3    H252565   3.110   4.822   5.506  0.4820 -1.1214 -0.0817
10384TIP3   OH252566   6.656   6.412   6.706  0.0767  0.1113  0.0033
10384TIP3    H152567   6.578   6.357   6.711  1.4872 -1.9185  2.7889
10384TIP3    H252568   6.722   6.356   6.665  1.1777  0.1975  1.5924
10385TIP3   OH252569   2.137   6.618  17.298 -0.3716 -0.2593 -0.4265
10385TIP3    H152570   2.050   6.610  17.259  0.9048 -1.3666 -3.2810
10385TIP3    H252571   2.178   6.690  17.252  0.5951 -0.3967  0.1919
10386TIP3   OH252572   4.725   5.137   2.188  0.0188  0.3937  0.0838
10386TIP3    H152573   4.718   5.106   2.098  0.9098 -0.0415  0.1594
10386TIP3    H252574   4.663   5.082   2.237 -0.9047  1.0221 -0.3447
10387TIP3   OH252575   2.754   5.083  13.833  0.0926 -0.1723  0.1203
10387TIP3    H152576   2.690   5.145  13.800  0.7872  0.2740 -0.4164
10387TIP3    H252577   2.726   5.064  13.922 -0.0766  0.9751  0.3169
10388TIP3   OH252578   3.116   4.457   2.903  0.1801 -0.1080  0.3197
10388TIP3    H152579   3.090   4.538   2.859 -1.3009 -0.4923  0.4409
10388TIP3    H252580   3.081   4.466   2.991 -3.1253 -2.2573 -0.5842
10389TIP3   OH252581   2.992   6.198   3.230  0.0386  0.2386 -0.3546
10389TIP3    H152582   2.918   6.169   3.283  0.3679 -0.0994 -0.0782
10389TIP3    H252583   2.952   6.227   3.147 -0.5071  1.0261  0.1643
10390TIP3   OH252584   6.232   1.817   4.863  0.2049 -0.4495 -0.5447
10390TIP3    H152585   6.252   1.860   4.946  1.8149 -2.7310  0.3250
10390TIP3    H252586   6.173   1.745   4.886  0.9499 -1.3316 -1.3108
10391TIP3   OH252587   2.280   4.580   1.721 -0.0331 -0.1978 -0.3639
10391TIP3    H152588   2.354   4.589   1.661 -0.4890  2.0798 -0.6857
10391TIP3    H252589   2.244   4.668   1.726 -0.5211 -0.4928  2.6425
10392TIP3   OH252590   3.594   2.990  11.555 -0.0688 -0.2156  0.3859
10392TIP3    H152591   3.606   3.035  11.471  0.2255 -1.6669 -0.3812
10392TIP3    H252592   3.509   2.947  11.546  0.1630 -0.7331  0.6618
10393TIP3   OH252593   1.634   5.210  11.622 -0.0427 -0.0341  0.4654
10393TIP3    H152594   1.659   5.251  11.539 -2.4809 -0.2800 -0.4721
10393TIP3    H252595   1.622   5.117  11.601  0.4581 -0.3244  1.3899
10394TIP3   OH252596   3.795   2.089  13.729  0.3904  0.2314  0.1244
10394TIP3    H152597   3.752   2.175  13.725  0.0740  0.0864  0.3105
10394TIP3    H252598   3.888   2.108  13.721  0.3889  0.6699  0.9958
10395TIP3   OH252599   3.588   5.078   3.450  0.1844 -0.3236  0.1717
10395TIP3    H152600   3.501   5.120   3.451 -0.0631 -0.8203  1.3547
10395TIP3    H252601   3.643   5.138   3.500  0.2646 -0.5343  0.3333
10396TIP3   OH252602   2.296   1.213  12.000 -0.7703 -0.2757 -0.3637
10396TIP3    H152603   2.327   1.276  11.934  0.0781 -0.8223 -0.5072
10396TIP3    H252604   2.205   1.238  12.016 -0.3888  1.1366 -0.2424
10397TIP3   OH252605   6.573   3.778   0.598  0.5031 -0.2490 -0.5923
10397TIP3    H152606   6.489   3.812   0.631  0.5098 -0.7328 -0.0479
10397TIP3    H252607   6.548   3.700   0.548  0.5800 -0.0706 -0.9074
10398TIP3   OH252608   6.163   4.414  12.918 -0.4563 -0.0425  0.3683
10398TIP3    H152609   6.177   4.508  12.912  0.0998 -0.1774 -0.5335
10398TIP3    H252610   6.086   4.397  12.864  0.6589 -0.3654 -1.1791
10399TIP3   OH252611   4.616   1.203  11.772  0.1852  0.5067  0.2884
10399TIP3    H152612   4.567   1.154  11.705 -2.1343  1.2267  1.3499
10399TIP3    H252613   4.611   1.294  11.743 -1.8734  0.9898  1.9363
10400TIP3   OH252614   4.525   4.658   0.592  0.1905 -0.2343  0.3274
10400TIP3    H152615   4.527   4.583   0.533 -1.5330  0.9935 -1.4418
10400TIP3    H252616   4.467   4.631   0.663 -0.7063 -0.4804 -0.4822
10401TIP3   OH252617   1.256   0.115  11.588 -0.3104  0.0685 -0.1153
10401TIP3    H152618   1.207   0.140  11.667  1.4199 -0.6897  1.2728
10401TIP3    H252619   1.236   0.184  11.525 -3.0515 -0.1631  0.3715
10402TIP3   OH252620   5.685   5.063   5.114  0.2160 -0.1589  0.3555
10402TIP3    H152621   5.647   5.048   5.028  0.2594  0.3142  0.2508
10402TIP3    H252622   5.629   5.015   5.174 -0.3015  0.1858  0.1519
10403TIP3   OH252623   1.742   0.812  10.702 -0.1295  0.4809  0.1743
10403TIP3    H152624   1.798   0.864  10.759 -0.3498  0.9239 -0.0123
10403TIP3    H252625   1.706   0.875  10.639 -2.8003  0.6959  1.7693
10404TIP3   OH252626   4.296   2.259  14.879 -0.2374  0.0809 -0.2530
10404TIP3    H152627   4.379   2.304  14.861  0.4350 -0.7542  0.6509
10404TIP3    H252628   4.302   2.234  14.971 -2.6674  2.3903  0.6534
10405TIP3   OH252629   2.065   4.703  16.854  0.1186  0.1854 -0.3344
10405TIP3    H152630   2.007   4.671  16.923  1.6096  0.7219  1.2386
10405TIP3    H252631   2.098   4.623  16.811 -0.9420 -0.1467 -0.5533
10406TIP3   OH252632   6.460   5.093  15.975 -0.0460  0.1124 -0.4960
10406TIP3    H152633   6.393   5.160  15.968 -0.8912 -0.7640 -1.0319
10406TIP3    H252634   6.462   5.070  16.068  0.6563  1.2610 -0.2123
10407TIP3   OH252635   1.513   1.379   4.794 -0.3826 -0.1031 -0.6264
10407TIP3    H152636   1.545   1.354   4.881 -1.8081  0.2635  0.0387
10407TIP3    H252637   1.545   1.310   4.736 -1.6948 -1.9048  0.6651
10408TIP3   OH252638   2.399   4.683  11.773  0.1398  0.1699  0.2329
10408TIP3    H152639   2.334   4.719  11.834  0.4639  0.2692  0.5284
10408TIP3    H252640   2.424   4.757  11.718 -0.4577 -0.0179 -0.3003
10409TIP3   OH252641   5.837   4.815   2.985 -0.1150 -0.3603 -0.2515
10409TIP3    H152642   5.801   4.901   3.003  1.1581  0.1092  0.1963
10409TIP3    H252643   5.786   4.782   2.911 -2.1944 -0.2515  1.0736
10410TIP3   OH252644   4.185   5.760  12.403 -0.1930 -0.0611  0.1360
10410TIP3    H152645   4.119   5.743  12.469 -1.4598  1.1372 -0.7691
10410TIP3    H252646   4.259   5.704  12.428  0.2818  1.9013  3.7848
10411TIP3   OH252647   6.447   0.628   5.455 -0.4822 -0.7765  0.2787
10411TIP3    H152648   6.413   0.641   5.366 -3.1253 -0.7196  1.2113
10411TIP3    H252649   6.529   0.581   5.442  0.1615  0.8270 -2.2590
10412TIP3   OH252650   0.012   5.401  11.108  0.5604 -0.1354 -0.3890
10412TIP3    H152651   0.061   5.382  11.028  0.1904 -0.3314 -0.5710
10412TIP3    H252652  -0.028   5.317  11.132 -2.6719  0.7329 -2.2508
10413TIP3   OH252653   0.103   2.105   5.753 -0.5921 -0.2822 -0.5907
10413TIP3    H152654   0.177   2.073   5.805  0.2985  1.3833 -0.7821
10413TIP3    H252655   0.028   2.054   5.785 -0.0025  0.3757  2.0609
10414TIP3   OH252656   4.032   4.730  13.458  0.1474 -0.2892  0.1884
10414TIP3    H152657   4.057   4.688  13.540 -1.5212 -0.0760  0.8404
10414TIP3    H252658   4.051   4.664  13.391 -0.9934 -1.5263  1.0354
10415TIP3   OH252659   5.477   6.639  16.803 -0.3842  0.1498  0.6121
10415TIP3    H152660   5.519   6.720  16.774  0.6946 -0.0979  1.4274
10415TIP3    H252661   5.541   6.570  16.783 -1.6883 -0.6609 -0.9925
10416TIP3   OH252662   1.627   1.302  15.039 -0.4657  0.5163  0.3954
10416TIP3    H152663   1.648   1.390  15.072 -0.4876  0.4008  0.7264
10416TIP3    H252664   1.539   1.312  15.002 -0.4222  0.6612  0.3291
10417TIP3   OH252665   3.868   2.545  15.767  0.2246  0.3166 -0.1037
10417TIP3    H152666   3.870   2.626  15.717 -0.3863  1.7229  2.0078
10417TIP3    H252667   3.800   2.492  15.726  0.9038  0.6677 -1.7477
10418TIP3   OH252668   4.899   3.917   0.308 -0.6719  0.4941  0.0795
10418TIP3    H152669   4.838   3.951   0.242 -1.4730  1.4540  1.2773
10418TIP3    H252670   4.846   3.853   0.357  0.1259 -0.7505 -0.6332
10419TIP3   OH252671   3.132   1.135  12.829  0.2020  0.6329 -0.1568
10419TIP3    H152672   3.106   1.062  12.774 -0.3926 -0.3638  1.3771
10419TIP3    H252673   3.050   1.178  12.853  0.6157  2.6490 -2.0752
10420TIP3   OH252674   2.819   2.515  16.802 -0.1824 -0.0578 -0.1442
10420TIP3    H152675   2.764   2.446  16.841 -1.4343  0.4761 -0.9062
10420TIP3    H252676   2.836   2.484  16.713  1.0649 -0.3719  0.1822
10421TIP3   OH252677   4.152   3.900   4.531  0.9296 -0.0466  0.0713
10421TIP3    H152678   4.178   3.956   4.457  1.3302 -0.8945 -0.4550
10421TIP3    H252679   4.057   3.909   4.536  1.1001  1.7457  0.8961
10422TIP3   OH252680   1.941   0.227  12.527 -0.1207  0.1300 -0.1632
10422TIP3    H152681   2.003   0.178  12.473  1.3123 -0.5027  1.9298
10422TIP3    H252682   1.992   0.298  12.565 -0.2974 -0.9862  2.3938
10423TIP3   OH252683   0.820   0.562   4.450 -0.2334  0.0169  0.2535
10423TIP3    H152684   0.733   0.591   4.423  0.5859  0.3267 -2.3188
10423TIP3    H252685   0.880   0.624   4.409  1.2588 -0.5853  1.4217
10424TIP3   OH252686   6.076   2.567   1.153  0.1557  0.0176 -0.4747
10424TIP3    H152687   6.119   2.650   1.174  0.6513 -0.4477  0.4002
10424TIP3    H252688   5.993   2.571   1.201  0.1890 -0.0055 -0.4154
10425TIP3   OH252689   1.947   5.272  15.203 -0.2920 -0.6488 -0.6130
10425TIP3    H152690   1.994   5.292  15.123  2.0009 -2.1365  0.2607
10425TIP3    H252691   1.922   5.180  15.194 -0.6409 -0.6325  0.0651
10426TIP3   OH252692   5.119   6.420  16.116  0.0862  0.0840  0.9767
10426TIP3    H152693   5.113   6.330  16.146  1.9880 -1.1423 -1.8742
10426TIP3    H252694   5.211   6.430  16.089  0.2249  3.2564  2.1204
10427TIP3   OH252695   3.045   4.337   2.146 -1.3379 -0.2546 -0.5279
10427TIP3    H152696   3.075   4.401   2.082  1.0547 -0.7004  0.0466
10427TIP3    H252697   3.005   4.268   2.094 -0.1501 -0.2329 -1.5147
10428TIP3   OH252698   4.176   6.670   2.381 -0.0289 -0.4637 -0.0447
10428TIP3    H152699   4.194   6.751   2.334 -0.8605 -0.0204  0.3902
10428TIP3    H252700   4.260   6.623   2.381  0.4809  0.4276 -0.2127
10429TIP3   OH252701   5.479   5.283  10.775  0.0308  0.1067 -0.2450
10429TIP3    H152702   5.435   5.351  10.827 -0.5478  0.6384 -1.3911
10429TIP3    H252703   5.436   5.202  10.801 -2.4716  0.7056 -2.0623
10430TIP3   OH252704   5.624   5.439   5.116  0.1967  0.2373  0.4671
10430TIP3    H152705   5.574   5.502   5.063  1.1030  0.0680 -0.6288
10430TIP3    H252706   5.583   5.443   5.202 -1.4061  0.4521 -0.2670
10431TIP3   OH252707   4.613   6.484   5.138  0.1706  0.0383 -0.1028
10431TIP3    H152708   4.550   6.527   5.196  2.4465  2.3962  0.8357
10431TIP3    H252709   4.627   6.549   5.068  1.5373 -0.4023 -0.2619
10432TIP3   OH252710   2.891   0.829   1.323  0.3714  0.2760  0.1549
10432TIP3    H152711   2.867   0.737   1.323  1.0990  0.0880 -0.1033
10432TIP3    H252712   2.818   0.872   1.369 -0.4771 -0.2851 -0.6371
10433TIP3   OH252713   5.273   5.873  12.993  0.2442 -0.2076 -0.1789
10433TIP3    H152714   5.286   5.910  12.906  0.1130 -0.3082 -0.2401
10433TIP3    H252715   5.340   5.916  13.047  0.8718 -0.7579 -0.5063
10434TIP3   OH252716   0.741   5.536  13.344 -0.3396  0.1021 -0.1486
10434TIP3    H152717   0.681   5.565  13.412  1.7067  2.5641  0.7393
10434TIP3    H252718   0.826   5.531  13.387  0.5178 -1.2441 -1.8591
10435TIP3   OH252719   3.066   2.425   5.173  0.1403  0.2995 -0.1740
10435TIP3    H152720   2.988   2.478   5.189  1.6993  3.0897 -1.1462
10435TIP3    H252721   3.038   2.362   5.106 -2.1560 -1.2324  2.0262
10436TIP3   OH252722   1.357   2.611   4.184 -0.2107 -0.0349 -0.1810
10436TIP3    H152723   1.424   2.551   4.150  1.8476  0.6800  2.2641
10436TIP3    H252724   1.317   2.563   4.257 -0.2245  0.6424  0.2651
10437TIP3   OH252725   2.603   2.615   6.106 -0.0022 -0.4312  0.1951
10437TIP3    H152726   2.603   2.633   6.200  0.7523  0.5796  0.0172
10437TIP3    H252727   2.593   2.520   6.100  1.0509 -0.6492  1.3307
10438TIP3   OH252728   2.178   3.591  10.939  0.0354  0.1119  0.3972
10438TIP3    H152729   2.193   3.532  10.865 -1.0338  0.3353 -0.0160
10438TIP3    H252730   2.260   3.589  10.988 -0.0961 -2.0635  0.6312
10439TIP3   OH252731   6.369   5.870   4.961 -0.3168 -0.4886 -0.4336
10439TIP3    H152732   6.363   5.958   4.999  0.6362 -0.5323 -0.1744
10439TIP3    H252733   6.458   5.863   4.928 -0.6421 -1.0524 -1.2417
10440TIP3   OH252734   4.331   5.822  11.383 -0.1720  0.3553  0.2601
10440TIP3    H152735   4.273   5.856  11.314 -0.1849  0.9031  0.5379
10440TIP3    H252736   4.274   5.811  11.459 -0.0811  0.1037  0.2927
10441TIP3   OH252737   5.729   1.912   2.366  0.4463 -0.1673 -0.5382
10441TIP3    H152738   5.655   1.857   2.392 -0.2399  0.6818 -0.6548
10441TIP3    H252739   5.805   1.873   2.409 -0.4373  0.3988  1.6675
10442TIP3   OH252740   4.210   1.970   0.469  0.2734 -0.6055  0.0931
10442TIP3    H152741   4.172   1.895   0.422 -1.7595  0.5886 -0.2787
10442TIP3    H252742   4.204   2.043   0.407 -0.6851  0.5617  1.4954
10443TIP3   OH252743   1.716   4.817   2.474 -0.5352  0.1857  0.4172
10443TIP3    H152744   1.742   4.784   2.559  1.0864 -0.0738 -0.1507
10443TIP3    H252745   1.701   4.739   2.421  0.4316  0.3362 -0.0939
10444TIP3   OH252746   3.210   4.113  16.992  0.1809  0.7391  0.5667
10444TIP3    H152747   3.115   4.114  17.003  0.4077  0.6448  2.9801
10444TIP3    H252748   3.230   4.023  16.964 -0.2262 -0.1482  2.9281
10445TIP3   OH252749   3.409   5.175  12.731 -0.1623  0.6866 -0.4182
10445TIP3    H152750   3.476   5.179  12.800  1.1630  1.4316 -1.6975
10445TIP3    H252751   3.419   5.088  12.693 -2.6831 -0.8109  1.9457
10446TIP3   OH252752   5.764   1.087  15.047  0.3761 -0.0327 -0.0035
10446TIP3    H152753   5.775   0.997  15.016  0.1819 -0.1521  0.2732
10446TIP3    H252754   5.726   1.079  15.134  1.8145  0.2777  0.6838
10447TIP3   OH252755   6.529   4.672  15.257 -0.1836  0.4094 -0.0231
10447TIP3    H152756   6.480   4.720  15.324 -0.7152  0.8113 -0.6894
10447TIP3    H252757   6.515   4.580  15.279 -1.3626  0.5073 -0.2690
10448TIP3   OH252758   5.630   5.858   5.621  0.5511  0.9144  0.1518
10448TIP3    H152759   5.556   5.825   5.672  0.4977  2.2657  0.9749
10448TIP3    H252760   5.698   5.875   5.686  0.6007  2.3266 -0.2397
10449TIP3   OH252761   5.333   3.169   1.136 -0.0164  0.2415  0.5234
10449TIP3    H152762   5.265   3.211   1.083  0.0488 -0.1913  0.0885
10449TIP3    H252763   5.363   3.096   1.082 -0.1416 -0.3701  1.2796
10450TIP3   OH252764   1.030   0.823   4.976 -0.2267  0.0807  0.0598
10450TIP3    H152765   0.952   0.814   4.922 -0.3638  0.1273  0.2511
10450TIP3    H252766   1.003   0.795   5.063  0.4360 -1.6664 -0.2515
10451TIP3   OH252767   4.433   0.289  11.630  0.2487  0.0174  0.1019
10451TIP3    H152768   4.424   0.374  11.586  0.8139  1.2031  2.0979
10451TIP3    H252769   4.352   0.243  11.609 -1.4734  2.2644  1.2821
10452TIP3   OH252770   3.027   2.475  13.300  0.3651  0.1908  0.5271
10452TIP3    H152771   3.039   2.423  13.380 -0.4668  1.3786  1.4675
10452TIP3    H252772   3.031   2.411  13.229 -1.7153 -1.3590  1.6891
10453TIP3   OH252773   4.747   2.579   1.018 -0.0868 -0.5058  0.0567
10453TIP3    H152774   4.759   2.501   1.073  2.6461 -0.2785 -0.0815
10453TIP3    H252775   4.728   2.543   0.931  0.3964 -1.0203  0.1526
10454TIP3   OH252776   4.083   5.350  14.872 -0.3178  0.0441 -0.5027
10454TIP3    H152777   4.038   5.309  14.947 -0.1604  1.5417  0.4511
10454TIP3    H252778   4.130   5.277  14.830  0.7281 -0.6525  1.6883
10455TIP3   OH252779   5.192   2.239   4.813 -0.4468  0.2780  0.0358
10455TIP3    H152780   5.135   2.315   4.828  0.9386  1.5618 -0.8934
10455TIP3    H252781   5.269   2.256   4.867  0.9351  0.8058 -1.9730
10456TIP3   OH252782   5.342   2.136  17.220 -0.3338  0.1326 -0.4142
10456TIP3    H152783   5.299   2.057  17.252  0.4238  1.0572  3.3187
10456TIP3    H252784   5.271   2.192  17.188 -1.2677 -0.5730  0.3905
10457TIP3   OH252785   3.430   1.503   4.158 -0.0014  0.0310  0.9810
10457TIP3    H152786   3.367   1.432   4.167  0.5760 -0.9956 -1.8974
10457TIP3    H252787   3.376   1.582   4.152 -0.7660 -0.3843  2.1392
10458TIP3   OH252788   4.614   2.521   4.160  0.4373 -0.2082 -0.1006
10458TIP3    H152789   4.645   2.540   4.248  0.1886 -0.2717  0.0022
10458TIP3    H252790   4.557   2.445   4.171  0.4215 -0.2291 -0.3194
10459TIP3   OH252791   5.813   4.718  12.815  0.8794 -0.2789 -0.0244
10459TIP3    H152792   5.888   4.719  12.874  1.2532  1.7038 -0.4542
10459TIP3    H252793   5.847   4.680  12.734  1.1546 -0.2934  0.0949
10460TIP3   OH252794   5.112   3.629   1.432  0.3538  0.4659  0.3116
10460TIP3    H152795   5.092   3.713   1.391  1.0103  0.1006 -0.7824
10460TIP3    H252796   5.175   3.650   1.501  0.9021  0.8251 -0.2878
10461TIP3   OH252797   3.391   5.939  15.459 -0.2839  0.3098 -0.9221
10461TIP3    H152798   3.427   5.922  15.372 -0.3612 -1.5078 -0.6322
10461TIP3    H252799   3.463   5.918  15.519 -1.6485 -3.3910 -0.3338
10462TIP3   OH252800   5.879   4.809   0.979 -0.2667 -0.1124 -0.7905
10462TIP3    H152801   5.949   4.752   0.947  0.8663  0.1957  1.0059
10462TIP3    H252802   5.852   4.771   1.062 -0.2471  1.3319 -0.0830
10463TIP3   OH252803   4.961   1.900   0.021  0.0722  0.1380 -0.0575
10463TIP3    H152804   4.882   1.863  -0.018  0.0154  0.6340 -0.4256
10463TIP3    H252805   4.977   1.980  -0.029  2.3615 -1.3057 -1.9013
10464TIP3   OH252806   6.716   2.959  16.137  0.3489 -0.1421 -0.0903
10464TIP3    H152807   6.714   2.941  16.231  1.7096  1.4858  0.3187
10464TIP3    H252808   6.742   3.051  16.132  0.7833 -0.3403 -2.0735
10465TIP3   OH252809   5.965   1.680   1.626 -0.3229  0.3002 -0.1851
10465TIP3    H152810   5.920   1.764   1.629 -1.3115 -0.2314  0.4562
10465TIP3    H252811   6.009   1.673   1.710 -0.1227  0.2333 -0.2933
10466TIP3   OH252812   2.419   5.145  14.230  0.0893 -0.2455  0.7660
10466TIP3    H152813   2.326   5.167  14.234 -1.1786 -4.6965  1.1670
10466TIP3    H252814   2.443   5.125  14.320  0.3145 -2.5625  0.2625
10467TIP3   OH252815   4.869   0.075  16.948  0.2275 -0.1663 -0.2783
10467TIP3    H152816   4.858   0.013  16.876 -1.6324  0.6312 -0.7603
10467TIP3    H252817   4.789   0.065  17.001  0.5286  0.8297  0.4033
10468TIP3   OH252818   6.370   6.292  13.504 -0.6975  0.7627 -0.5400
10468TIP3    H152819   6.388   6.198  13.499 -3.1265  0.2613 -0.6468
10468TIP3    H252820   6.368   6.321  13.413  2.3594  1.4917 -0.4953
10469TIP3   OH252821   5.362   6.349   2.732 -0.0174  0.5380  0.3190
10469TIP3    H152822   5.448   6.380   2.705 -0.6605  2.1916  0.0394
10469TIP3    H252823   5.310   6.349   2.652 -0.6340  0.8543  0.7093
10470TIP3   OH252824   6.343   4.725   1.959 -0.2799 -0.2183 -0.6825
10470TIP3    H152825   6.363   4.802   1.905 -0.1671 -0.0761 -0.4425
10470TIP3    H252826   6.250   4.734   1.980  0.0466  0.6521  0.5649
10471TIP3   OH252827   2.153   1.302  12.266 -0.2243  0.5587 -0.1357
10471TIP3    H152828   2.082   1.284  12.204  0.2753 -0.4997 -0.4346
10471TIP3    H252829   2.113   1.287  12.352 -0.5272  0.5867 -0.2674
10472TIP3   OH252830   1.391   1.119  13.218  0.1016 -0.4829 -0.4519
10472TIP3    H152831   1.344   1.036  13.226  0.3344 -0.5535  0.2106
10472TIP3    H252832   1.365   1.170  13.294  0.0093  0.0317 -0.8213
10473TIP3   OH252833   6.482   0.041   2.582 -0.0457 -0.3670 -0.0841
10473TIP3    H152834   6.509   0.118   2.532 -0.7735 -0.2588 -0.3318
10473TIP3    H252835   6.472   0.072   2.672  1.2196 -0.5501  0.1393
10474TIP3   OH252836   3.980   5.440  17.061 -0.1019  0.1335  0.3553
10474TIP3    H152837   3.984   5.354  17.101 -3.1758 -0.3791 -0.1704
10474TIP3    H252838   3.901   5.480  17.098  0.0352  1.8244 -1.0428
10475TIP3   OH252839   6.187   5.238   2.670 -0.8033 -0.5010  0.0853
10475TIP3    H152840   6.245   5.239   2.746 -0.5333  0.1336 -0.1253
10475TIP3    H252841   6.174   5.145   2.651 -3.1377 -0.7958  2.5952
10476TIP3   OH252842   4.448   4.958   1.474 -0.1745 -0.0257  0.2655
10476TIP3    H152843   4.406   5.022   1.417 -1.1142 -1.0024 -0.1847
10476TIP3    H252844   4.375   4.914   1.519  0.2037 -2.6181 -1.4423
10477TIP3   OH252845   6.593   0.984   0.449  0.0430 -0.4521 -0.2422
10477TIP3    H152846   6.504   1.021   0.448  0.3773  0.3661 -0.7496
10477TIP3    H252847   6.615   0.977   0.542 -1.2565 -2.4487 -0.0224
10478TIP3   OH252848   4.271   2.730   1.404  0.2565  0.1676 -0.4287
10478TIP3    H152849   4.312   2.798   1.456  1.0737 -0.6132 -0.0180
10478TIP3    H252850   4.313   2.737   1.318  0.3944  0.1378 -0.3641
10479TIP3   OH252851   3.633   1.943   2.610  0.5130 -0.5590  0.2576
10479TIP3    H152852   3.653   2.033   2.636 -0.0021 -0.5080  0.4797
10479TIP3    H252853   3.581   1.952   2.531  0.9608 -0.6830 -0.0575
10480TIP3   OH252854   6.408   5.503   1.786 -0.0336 -0.2961  0.2826
10480TIP3    H152855   6.369   5.559   1.853 -1.3657 -0.2062 -0.5489
10480TIP3    H252856   6.497   5.538   1.774 -0.1986  0.4339  1.1171
10481TIP3   OH252857   2.507   2.775   2.844 -0.7225  0.1380 -0.0310
10481TIP3    H152858   2.593   2.808   2.870  0.9051 -0.4939 -3.9393
10481TIP3    H252859   2.503   2.687   2.881  0.6398 -0.0792 -0.3409
10482TIP3   OH252860   4.245   6.031   2.218 -0.2653  0.2339  0.5286
10482TIP3    H152861   4.154   6.017   2.243 -0.4006 -1.0212 -0.5701
10482TIP3    H252862   4.292   5.956   2.254 -0.0852 -0.3764 -0.9088
10483TIP3   OH252863   4.403   1.152   3.364 -0.0710  0.4379 -0.0285
10483TIP3    H152864   4.452   1.202   3.429  1.3526  0.7133 -1.2600
10483TIP3    H252865   4.356   1.086   3.415  0.2052  1.2588  1.3582
10484TIP3   OH252866   4.562   1.103  12.411 -0.2301  0.0628 -0.8980
10484TIP3    H152867   4.508   1.149  12.347 -0.0754 -0.6105 -1.5254
10484TIP3    H252868   4.564   1.013  12.380  0.8828 -0.0162 -0.6240
10485TIP3   OH252869   5.997   3.329   5.262  0.7469  0.1643  0.1439
10485TIP3    H152870   5.947   3.270   5.319 -0.4456  0.0769 -0.9605
10485TIP3    H252871   6.065   3.273   5.224  0.7207 -0.0852  0.4601
10486TIP3   OH252872   2.057   2.557   3.526  0.5642  0.3191  0.2102
10486TIP3    H152873   1.981   2.614   3.541  1.7409  2.4061 -1.2186
10486TIP3    H252874   2.077   2.520   3.612 -0.8813  1.2693  0.9897
10487TIP3   OH252875   2.956   5.797  14.549  0.8835 -0.1882 -0.1596
10487TIP3    H152876   2.985   5.826  14.462  0.6082 -1.6081 -0.7422
10487TIP3    H252877   2.890   5.861  14.575 -1.8690 -1.7588 -2.6906
10488TIP3   OH252878   6.586   5.722   0.806  0.1785 -0.2091  0.9367
10488TIP3    H152879   6.571   5.629   0.788 -0.1427 -0.1503  0.8987
10488TIP3    H252880   6.645   5.723   0.881 -1.5268 -0.4344  2.3147
10489TIP3   OH252881   5.381   1.394   5.406 -0.1956 -0.4355  0.7570
10489TIP3    H152882   5.460   1.448   5.418  0.7492 -1.6293  0.1502
10489TIP3    H252883   5.376   1.343   5.487  0.0805 -0.8811  0.4956
10490TIP3   OH252884   5.312   5.084   3.572 -0.0191 -0.0867  0.6151
10490TIP3    H152885   5.381   5.023   3.544 -2.7491 -2.8283 -0.6765
10490TIP3    H252886   5.329   5.097   3.665  1.5718 -1.5758  0.5910
10491TIP3   OH252887   4.327   4.943   1.142  0.9144 -0.2803  0.4792
10491TIP3    H152888   4.410   4.972   1.102 -0.6864 -0.6768 -3.6915
10491TIP3    H252889   4.295   4.876   1.082 -1.5495 -1.5420  3.0356
10492TIP3   OH252890   3.989   2.906  13.334 -0.0225  0.3553 -0.6583
10492TIP3    H152891   3.930   2.963  13.383  0.7094  1.3114 -0.8604
10492TIP3    H252892   4.003   2.951  13.251  1.8299  0.7168 -0.2049
10493TIP3   OH252893   6.188   0.502   1.344  0.6346 -0.0801 -0.3535
10493TIP3    H152894   6.200   0.453   1.262  0.7727 -1.9440  0.7451
10493TIP3    H252895   6.277   0.521   1.374  0.5856  0.3691 -0.4805
10494TIP3   OH252896   4.768   1.882  13.313 -0.7449 -0.2056  0.6615
10494TIP3    H152897   4.680   1.906  13.282 -0.1054  1.2343 -0.1722
10494TIP3    H252898   4.789   1.949  13.378  0.5048  0.7321 -0.6274
10495TIP3   OH252899   3.641   1.384  13.528  0.4650 -0.1173 -0.4888
10495TIP3    H152900   3.612   1.305  13.483  0.5723 -0.2470 -0.3307
10495TIP3    H252901   3.592   1.455  13.486 -0.3428 -0.3710 -0.0041
10496TIP3   OH252902   4.925   4.390  15.498  0.7207 -0.9612  0.9909
10496TIP3    H152903   4.939   4.484  15.492  1.7156 -1.1146  0.7723
10496TIP3    H252904   4.985   4.361  15.567  1.7377 -1.6857 -0.1694
10497TIP3   OH252905   0.242   1.891   3.997 -0.0232  0.1502 -0.3152
10497TIP3    H152906   0.247   1.814   3.941 -1.5432 -0.8356  0.8380
10497TIP3    H252907   0.194   1.862   4.075  1.5986  1.5967  1.3184
10498TIP3   OH252908   4.491   2.161  15.922  0.4193  0.0784 -0.0801
10498TIP3    H152909   4.550   2.235  15.930  1.4531 -0.6758 -0.4311
10498TIP3    H252910   4.533   2.103  15.858  0.0345 -1.1585  0.7372
10499TIP3   OH252911   1.926   3.476  12.758  0.1199 -0.0974 -0.0848
10499TIP3    H152912   1.980   3.539  12.807 -3.1950  1.7594  1.5241
10499TIP3    H252913   1.875   3.531  12.698 -1.7773 -1.3795  0.2716
10500TIP3   OH252914   5.532   2.538  11.424 -0.1573 -0.1560  0.1842
10500TIP3    H152915   5.476   2.524  11.500 -1.8406 -0.9217 -1.1360
10500TIP3    H252916   5.518   2.630  11.400  0.3820  0.0888  0.7794
10501TIP3   OH252917   4.379   3.766  13.264 -0.4513 -0.1207 -0.5199
10501TIP3    H152918   4.417   3.732  13.346  0.2662 -1.5575 -1.4144
10501TIP3    H252919   4.293   3.725  13.259 -0.0730 -0.8653 -0.9980
10502TIP3   OH252920   3.763   6.375   5.490 -0.2046 -0.1269 -0.0848
10502TIP3    H152921   3.674   6.352   5.464 -0.4994 -0.0161  0.8051
10502TIP3    H252922   3.770   6.347   5.581  0.5980  0.0744 -0.0735
10503TIP3   OH252923   4.085   4.171  13.077  0.4109  0.3522  0.3781
10503TIP3    H152924   4.056   4.083  13.054 -0.3491  0.6759  0.0657
10503TIP3    H252925   4.018   4.203  13.137  0.7690  0.6590  0.6177
10504TIP3   OH252926   5.136   1.134   0.501 -0.0583  0.1508  0.5210
10504TIP3    H152927   5.229   1.115   0.501 -0.0072  0.3390  1.6017
10504TIP3    H252928   5.098   1.070   0.440  0.8825  0.7459 -0.7342
10505TIP3   OH252929   2.887   2.673   0.834 -0.7297 -0.2609 -0.3725
10505TIP3    H152930   2.828   2.696   0.762 -0.7128 -0.1816 -0.3613
10505TIP3    H252931   2.833   2.676   0.912 -0.9096 -1.0179 -0.4621
10506TIP3   OH252932   4.247   1.567  14.984 -0.1852 -0.6275 -0.4827
10506TIP3    H152933   4.218   1.482  15.017 -1.6070  0.4451  1.2734
10506TIP3    H252934   4.301   1.602  15.055 -0.6936  0.4388 -0.6003
10507TIP3   OH252935   3.778   0.018   3.335  0.1722  0.3423  0.3846
10507TIP3    H152936   3.731   0.101   3.345  0.7000  0.5671  1.1292
10507TIP3    H252937   3.709  -0.048   3.332 -0.2195  0.6220  1.9430
10508TIP3   OH252938   1.765   2.039  13.130 -0.0185 -0.0927 -0.4285
10508TIP3    H152939   1.754   2.063  13.222 -0.1963  0.3550 -0.5612
10508TIP3    H252940   1.682   1.999  13.106 -0.4165  0.8671 -0.7086
10509TIP3   OH252941   3.116   2.021  15.433  0.6304  0.3158  0.3138
10509TIP3    H152942   3.199   1.995  15.473 -0.1645 -1.5747  0.8119
10509TIP3    H252943   3.103   2.111  15.465  0.7823 -0.5510  3.1700
10510TIP3   OH252944   0.932   4.571  13.347 -0.9188  0.3723 -0.0494
10510TIP3    H152945   0.908   4.648  13.296  1.7118  1.8965  0.7791
10510TIP3    H252946   1.000   4.528  13.295 -0.3898  0.2306  0.7308
10511TIP3   OH252947   6.713   5.305   3.713 -0.5346  0.3075  0.1523
10511TIP3    H152948   6.774   5.295   3.786  1.9768 -1.1605 -1.9669
10511TIP3    H252949   6.749   5.377   3.661  1.5312 -2.5282 -2.7975
10512TIP3   OH252950   2.731   6.764   2.475  0.6387  0.0884  0.0763
10512TIP3    H152951   2.725   6.856   2.500  0.8412  0.0007  0.4511
10512TIP3    H252952   2.787   6.764   2.397  2.1874  0.1044  1.1508
10513TIP3   OH252953   3.453   1.508  10.776 -0.5192  0.3947 -0.0717
10513TIP3    H152954   3.525   1.488  10.836 -0.8761 -1.4054 -0.2006
10513TIP3    H252955   3.480   1.589  10.733  0.7678  0.5175  0.9107
10514TIP3   OH252956   4.716   2.105   1.305  0.2914 -0.2869  0.0013
10514TIP3    H152957   4.730   2.102   1.210 -1.7785 -1.9145 -0.3376
10514TIP3    H252958   4.758   2.026   1.338 -0.3221 -0.5362  0.2001
10515TIP3   OH252959   6.116   1.590  13.286  0.2180 -0.5263  0.2882
10515TIP3    H152960   6.100   1.522  13.221  0.8475  0.4301 -0.9210
10515TIP3    H252961   6.030   1.627  13.305 -0.0510 -1.2592  0.5186
10516TIP3   OH252962   6.660   1.738  15.073  0.5602  0.2143 -0.1775
10516TIP3    H152963   6.572   1.742  15.110  0.9840  0.3788  0.8435
10516TIP3    H252964   6.706   1.673  15.126  1.0872  0.2006 -0.6374
10517TIP3   OH252965   0.945   3.750  11.385  0.3311  0.0372  0.0309
10517TIP3    H152966   1.037   3.777  11.382 -0.6325  4.0357  0.6104
10517TIP3    H252967   0.920   3.761  11.477 -1.4367  2.2454 -0.6185
10518TIP3   OH252968   3.809   4.957  10.932  0.1398 -0.5030 -0.2492
10518TIP3    H152969   3.842   4.883  10.982 -0.4393 -0.9298 -0.4903
10518TIP3    H252970   3.739   4.921  10.878 -0.1352  0.2143 -0.3875
10519TIP3   OH252971   0.231   5.997  13.257  0.2818 -0.2672 -0.1816
10519TIP3    H152972   0.166   5.995  13.327  1.4566 -1.2520  0.9181
10519TIP3    H252973   0.257   6.089  13.251 -0.7919  0.0435 -0.2605
10520TIP3   OH252974   0.140   1.117   2.039 -0.2694 -0.4622 -0.2928
10520TIP3    H152975   0.104   1.039   1.996  0.3287 -1.1026  0.3329
10520TIP3    H252976   0.179   1.168   1.968  0.0268 -1.1255 -0.6127
10521TIP3   OH252977   4.105   4.898   3.561 -0.4594  0.6023  0.0199
10521TIP3    H152978   4.151   4.835   3.617 -2.1852  0.2491  1.1219
10521TIP3    H252979   4.012   4.882   3.578 -0.9974  1.8956 -1.4350
10522TIP3   OH252980   6.149   2.955   6.114 -0.2220 -0.1882  0.1092
10522TIP3    H152981   6.091   3.001   6.175 -0.1292  0.9530 -0.6435
10522TIP3    H252982   6.158   2.868   6.152 -0.7089  0.2845  1.3714
10523TIP3   OH252983   2.596   6.535   5.985 -0.6074 -0.1141 -0.0961
10523TIP3    H152984   2.513   6.535   6.032 -0.3795  0.5792  0.3195
10523TIP3    H252985   2.633   6.448   6.002  0.0261  0.5232  2.0349
10524TIP3   OH252986   4.994   0.309   4.137  0.5862 -0.0970  0.1761
10524TIP3    H152987   4.919   0.347   4.092  0.3262 -0.5028  0.2628
10524TIP3    H252988   5.028   0.380   4.191 -0.2541 -0.1442  0.7920
10525TIP3   OH252989   4.680   5.533  17.041 -0.3336  0.1169 -0.2993
10525TIP3    H152990   4.728   5.513  16.961  0.7231  1.2804 -0.0013
10525TIP3    H252991   4.745   5.521  17.111 -0.3939  1.7850  0.1084
10526TIP3   OH252992   1.626   0.883   5.542 -0.7258 -0.1875  0.1402
10526TIP3    H152993   1.707   0.835   5.525 -0.1253  0.9491 -0.2659
10526TIP3    H252994   1.636   0.966   5.495 -2.3533 -0.2386 -0.3587
10527TIP3   OH252995   1.196   0.172   2.101  0.0666  0.0768 -0.4124
10527TIP3    H152996   1.182   0.150   2.009  1.6411 -0.8498 -0.4751
10527TIP3    H252997   1.108   0.183   2.137 -0.6711 -1.5623 -1.5676
10528TIP3   OH252998   4.456   6.494   2.220  0.2490 -0.2332  0.2514
10528TIP3    H152999   4.532   6.437   2.237 -0.2583 -0.2535  2.9625
10528TIP3    H253000   4.382   6.434   2.213 -0.1910 -0.0382  2.4934
10529TIP3   OH253001   2.871   6.539   1.651 -0.5031 -0.1312 -0.6063
10529TIP3    H153002   2.876   6.591   1.731  0.7226  0.4356 -1.0415
10529TIP3    H253003   2.857   6.449   1.683 -0.0455  0.0837  0.2484
10530TIP3   OH253004   2.869   6.175   5.011  0.4137 -0.2527 -0.1686
10530TIP3    H153005   2.953   6.134   4.989 -0.4417 -1.7369 -0.8236
10530TIP3    H253006   2.841   6.218   4.930  0.5571  0.3073  0.0709
10531TIP3   OH253007   1.299   5.368  16.550 -0.4560 -0.0874  0.3489
10531TIP3    H153008   1.350   5.449  16.557 -1.8995  0.7919  1.1464
10531TIP3    H253009   1.365   5.300  16.538  0.8626  1.0895  0.6039
10532TIP3   OH253010   3.598   2.726  13.596  0.0090 -0.5058  0.1276
10532TIP3    H153011   3.671   2.785  13.615 -1.1200  1.1147 -0.4194
10532TIP3    H253012   3.529   2.752  13.658 -1.2018  0.1233 -1.4304
10533TIP3   OH253013   5.173   1.413  16.953 -0.6940  0.0868 -0.3426
10533TIP3    H153014   5.175   1.344  17.019 -1.9415 -0.5209 -0.9053
10533TIP3    H253015   5.159   1.366  16.871 -2.4146  1.0459 -0.6349
10534TIP3   OH253016   3.349   4.595  11.695  0.3175  0.4892  0.3497
10534TIP3    H153017   3.422   4.625  11.641 -0.3896  1.9185  0.1436
10534TIP3    H253018   3.386   4.527  11.751  1.2868 -0.3403 -1.2599
10535TIP3   OH253019   2.443   1.325   4.270  0.6890 -0.1700  0.2846
10535TIP3    H153020   2.531   1.305   4.302  0.4887 -1.6050 -0.0026
10535TIP3    H253021   2.436   1.280   4.186 -0.2089  0.1930  0.1477
10536TIP3   OH253022   6.713   2.310  15.244  0.3628 -0.9538  0.0875
10536TIP3    H153023   6.756   2.270  15.318 -1.1549 -0.6908  1.1683
10536TIP3    H253024   6.700   2.239  15.181 -0.3027 -1.6940  1.0338
10537TIP3   OH253025   3.632   1.412  14.236  0.4809  0.0825 -0.0611
10537TIP3    H153026   3.714   1.457  14.216 -0.8782  1.6386 -2.7913
10537TIP3    H253027   3.595   1.459  14.310  1.6646 -0.1542  0.7017
10538TIP3   OH253028   0.645   3.235   4.407 -0.2394 -0.0640  0.1440
10538TIP3    H153029   0.668   3.180   4.333  0.2504 -2.6347  2.0764
10538TIP3    H253030   0.726   3.242   4.458  0.0933  3.6063 -0.6073
10539TIP3   OH253031   4.681   2.456  15.531 -0.3290 -0.2629  0.1216
10539TIP3    H153032   4.759   2.508  15.510  0.3314 -2.3617 -3.4227
10539TIP3    H253033   4.714   2.367  15.541 -2.0343 -0.8281  1.0852
10540TIP3   OH253034   6.663   2.733   5.967  0.1365  0.1939  0.3434
10540TIP3    H153035   6.702   2.819   5.982 -1.2369  0.9511 -0.2643
10540TIP3    H253036   6.584   2.733   6.021 -0.0869 -0.5208  0.0230
10541TIP3   OH253037   6.181   1.621  17.142 -0.2939 -0.0569 -0.2838
10541TIP3    H153038   6.156   1.532  17.166 -1.0020 -0.4155 -2.1699
10541TIP3    H253039   6.270   1.631  17.176  0.2422 -1.9191 -1.0205
10542TIP3   OH253040   2.481   6.633   4.001  0.1738 -0.4809  0.3463
10542TIP3    H153041   2.447   6.691   3.933  0.9866 -3.2986 -2.7557
10542TIP3    H253042   2.516   6.691   4.068 -1.0547  2.5112 -1.4168
10543TIP3   OH253043   1.835   1.274  11.532 -0.3407 -0.1981 -0.0299
10543TIP3    H153044   1.767   1.228  11.581 -1.8238 -0.2486 -2.0003
10543TIP3    H253045   1.819   1.367  11.550 -0.3836 -0.2503  0.1992
10544TIP3   OH253046   1.677   4.559   4.050  0.4688 -0.2522 -0.0525
10544TIP3    H153047   1.760   4.511   4.043  0.0176 -1.0563  0.0072
10544TIP3    H253048   1.631   4.516   4.122 -0.8693 -1.1727 -1.3903
10545TIP3   OH253049   3.150   2.028   2.989  0.0900 -0.4750 -0.4979
10545TIP3    H153050   3.142   2.110   3.038  0.6898 -1.5265  1.4642
10545TIP3    H253051   3.065   2.017   2.948 -1.6245 -1.0106  2.8355
10546TIP3   OH253052   0.317   6.316   0.463 -0.1446  0.1652  0.3320
10546TIP3    H153053   0.224   6.301   0.481 -0.7409  1.1493 -1.6108
10546TIP3    H253054   0.349   6.231   0.433 -1.6668  0.6932 -3.4667
10547TIP3   OH253055   5.199   1.404   3.115 -0.2001  0.1701  0.1513
10547TIP3    H153056   5.132   1.339   3.133 -1.2111  1.0044 -0.4585
10547TIP3    H253057   5.269   1.386   3.178 -1.4549 -0.0704  1.5039
10548TIP3   OH253058   4.084   4.351  12.027 -0.1372  0.1978  0.2372
10548TIP3    H153059   4.078   4.445  12.047  0.3741 -0.0947  1.8898
10548TIP3    H253060   4.086   4.308  12.112 -0.6221 -1.3535 -0.4990
10549TIP3   OH253061   0.172   6.063   2.243 -0.1052 -0.5082  0.3568
10549TIP3    H153062   0.236   6.112   2.190  0.2710 -0.7216  0.6126
10549TIP3    H253063   0.091   6.068   2.192  0.2343 -0.6508 -0.2139
10550TIP3   OH253064   3.736   2.114  11.920  0.4526 -0.1628  0.1106
10550TIP3    H153065   3.793   2.181  11.885 -0.0069 -0.1342 -0.6022
10550TIP3    H253066   3.772   2.095  12.007  1.4785 -0.0850 -0.2832
10551TIP3   OH253067   3.550   1.769  14.223  0.3371 -0.2948  0.4332
10551TIP3    H153068   3.475   1.712  14.209  0.2942  0.1845 -1.5739
10551TIP3    H253069   3.542   1.797  14.314 -1.5270 -0.7752  0.4603
10552TIP3   OH253070   0.906   6.102   4.241 -0.0873 -0.1082 -0.0909
10552TIP3    H153071   0.912   6.174   4.177  1.1577  0.2168  0.3518
10552TIP3    H253072   0.895   6.024   4.188 -1.3407  0.3844 -0.5923
10553TIP3   OH253073   4.135   1.648  17.149 -0.4569 -0.2075  0.2091
10553TIP3    H153074   4.044   1.620  17.151 -0.1701 -1.2542 -0.6890
10553TIP3    H253075   4.131   1.740  17.120 -1.2987  0.2411  1.6426
10554TIP3   OH253076   0.514   5.217   4.681 -0.1620 -0.1649 -0.1501
10554TIP3    H153077   0.547   5.226   4.591 -2.2552 -0.0282 -0.9636
10554TIP3    H253078   0.526   5.303   4.720 -1.3254  0.4454 -1.0871
10555TIP3   OH253079   3.129   2.300  14.028  0.2241  0.1159  0.2526
10555TIP3    H153080   3.152   2.230  13.967 -0.1186 -0.4337  0.7397
10555TIP3    H253081   3.098   2.254  14.106  1.6332  0.7781  1.2557
10556TIP3   OH253082   3.004   6.519   2.627 -0.3531  0.6147 -0.1024
10556TIP3    H153083   3.063   6.467   2.682  0.3607  2.3605  0.9011
10556TIP3    H253084   3.034   6.610   2.640 -0.7536  1.1935 -2.7039
10557TIP3   OH253085   1.029   5.841  11.379  0.2770 -0.2834 -0.0418
10557TIP3    H153086   0.971   5.764  11.378  1.5717 -1.3068  0.7632
10557TIP3    H253087   1.111   5.808  11.414  0.7013  1.6050  0.8283
10558TIP3   OH253088   2.361   6.153  15.892  0.0098  0.1289  0.5513
10558TIP3    H153089   2.288   6.102  15.926 -0.4727  0.3264 -0.1439
10558TIP3    H253090   2.425   6.154  15.962 -0.2708 -0.8252  0.8363
10559TIP3   OH253091   2.787   6.388   2.772 -0.2589  0.7099 -0.1709
10559TIP3    H153092   2.705   6.381   2.723  0.4585 -0.1882 -1.2751
10559TIP3    H253093   2.855   6.394   2.705  0.7145 -0.1194  0.7097
10560TIP3   OH253094   0.439   0.133  14.086  0.2089  0.5795 -0.1074
10560TIP3    H153095   0.463   0.191  14.014  0.7821  1.5721  0.8514
10560TIP3    H253096   0.422   0.192  14.160 -2.0265 -0.2778  0.1659
10561TIP3   OH253097   5.801   1.837   5.564 -0.2204 -0.1534 -0.1428
10561TIP3    H153098   5.868   1.830   5.496  1.4920 -0.2263  1.4683
10561TIP3    H253099   5.729   1.885   5.522  0.4225 -0.8955 -2.2156
10562TIP3   OH253100   2.960   0.500  16.586  0.8290  0.0542  0.1438
10562TIP3    H153101   2.941   0.590  16.612  0.7281  0.3012 -0.7379
10562TIP3    H253102   2.877   0.454  16.600  0.0803  0.6931 -1.8316
10563TIP3   OH253103   0.654   4.685   3.062  0.3124 -0.2960 -0.2958
10563TIP3    H153104   0.633   4.696   2.969 -1.4226 -0.5329  0.0377
10563TIP3    H253105   0.750   4.691   3.066  0.3254  1.5314 -1.8500
10564TIP3   OH253106   5.418   1.587   2.704  0.0580  0.1686 -0.2125
10564TIP3    H153107   5.323   1.602   2.706 -0.1692 -1.0364 -1.0218
10564TIP3    H253108   5.427   1.494   2.723  1.1129  0.3411  0.1715
10565TIP3   OH253109   1.462   6.314   5.281  0.0324  0.3788 -0.3277
10565TIP3    H153110   1.394   6.355   5.334 -1.3649 -2.2053  0.0548
10565TIP3    H253111   1.433   6.327   5.191 -1.1518 -0.9017 -0.1610
10566TIP3   OH253112   4.632   3.704   3.232  0.0240 -0.2552 -0.7292
10566TIP3    H153113   4.574   3.744   3.297  1.5610 -0.3399  0.7589
10566TIP3    H253114   4.584   3.627   3.202 -0.7514 -0.1990  0.3026
10567TIP3   OH253115   5.511   4.948  15.920 -0.4249 -0.1453 -0.0965
10567TIP3    H153116   5.529   4.875  15.861 -1.3494  0.5150 -1.2148
10567TIP3    H253117   5.594   4.962  15.966  0.2030 -0.8993 -0.9661
10568TIP3   OH253118   2.576   6.074   5.108  0.0868 -0.0125 -0.2551
10568TIP3    H153119   2.665   6.102   5.086 -0.2499  1.0012 -0.3662
10568TIP3    H253120   2.585   5.981   5.128  0.5376 -0.9915 -4.1481
10569TIP3   OH253121   0.892   0.074  10.707 -0.4392  0.2902  0.7737
10569TIP3    H153122   0.838   0.031  10.773 -2.0269 -0.3135 -0.8249
10569TIP3    H253123   0.964   0.012  10.692 -0.6481 -0.0636  1.1998
10570TIP3   OH253124   4.955   1.333  12.854 -0.0852 -0.4014  0.0509
10570TIP3    H153125   5.044   1.312  12.884 -0.3268  1.6519  2.5099
10570TIP3    H253126   4.903   1.256  12.878  0.2595  0.1029  2.7381
10571TIP3   OH253127   2.518   1.168   3.092  0.1356  0.1164  0.4784
10571TIP3    H153128   2.532   1.252   3.048 -0.3510  1.2002  2.3180
10571TIP3    H253129   2.591   1.113   3.061  0.3924  1.1459 -0.8446
10572TIP3   OH253130   0.497   3.675   2.204 -0.2007 -0.8368  0.8126
10572TIP3    H153131   0.439   3.632   2.266 -1.4347 -0.2050  0.1380
10572TIP3    H253132   0.439   3.708   2.135  0.6659  1.6303  1.1379
10573TIP3   OH253133   3.359   2.629   5.737  0.1385  0.1809  0.3769
10573TIP3    H153134   3.325   2.650   5.824 -1.5746 -0.1108 -0.1787
10573TIP3    H253135   3.430   2.567   5.753  1.3494  1.8039  1.6689
10574TIP3   OH253136   2.240   6.340   4.571 -0.1880 -0.0673  0.7522
10574TIP3    H153137   2.194   6.365   4.491  0.3155  1.2768  0.8475
10574TIP3    H253138   2.306   6.276   4.543  1.7318  2.2647 -0.4441
10575TIP3   OH253139   4.480   6.372  12.240  0.0041 -0.2205 -0.3100
10575TIP3    H153140   4.519   6.457  12.259  0.5066 -0.5201  0.0294
10575TIP3    H253141   4.426   6.387  12.162  1.7953 -0.0679 -1.5798
10576TIP3   OH253142   5.548   6.267  16.981 -0.2854 -0.0050 -0.4302
10576TIP3    H153143   5.479   6.281  17.046  0.2855  3.2608 -0.3682
10576TIP3    H253144   5.629   6.279  17.031  0.3525 -1.9534 -0.8980
10577TIP3   OH253145   6.113   5.362  11.419 -0.6525 -0.2681  0.2100
10577TIP3    H153146   6.159   5.444  11.439 -0.5605  0.3406 -2.2053
10577TIP3    H253147   6.159   5.296  11.470  1.4348  0.6954 -0.3283
10578TIP3   OH253148   1.734   3.263  12.755  0.3374 -0.4595 -0.5148
10578TIP3    H153149   1.799   3.333  12.765 -0.0851 -0.0729 -0.4135
10578TIP3    H253150   1.764   3.193  12.813  1.1200 -0.6298 -1.1082
10579TIP3   OH253151   5.983   2.334  13.789 -0.1382  0.1149 -0.0379
10579TIP3    H153152   5.927   2.361  13.716 -0.6093  2.1702  1.0084
10579TIP3    H253153   5.937   2.363  13.867 -0.2786 -3.1568  1.2665
10580TIP3   OH253154   1.327   2.249   4.995  0.0547 -0.0266 -0.2003
10580TIP3    H153155   1.342   2.274   5.086 -0.8269 -0.1854 -0.0018
10580TIP3    H253156   1.298   2.329   4.952 -1.8817 -0.4559  0.2278
10581TIP3   OH253157   2.588   5.734   0.888 -0.2993 -0.2353  0.4633
10581TIP3    H153158   2.637   5.754   0.967  3.2953 -0.5725 -1.4441
10581TIP3    H253159   2.593   5.813   0.834 -0.0736 -0.9395 -0.5991
10582TIP3   OH253160   1.562   5.258   2.256 -0.1431  0.2188 -0.4537
10582TIP3    H153161   1.545   5.332   2.314  0.5392 -0.1842  0.2784
10582TIP3    H253162   1.658   5.254   2.250 -0.1967 -0.1097 -1.1338
10583TIP3   OH253163   0.304   4.672   0.263 -0.1820  0.2374 -0.1831
10583TIP3    H153164   0.278   4.738   0.199 -0.1164  0.2962 -0.1500
10583TIP3    H253165   0.275   4.589   0.226  0.9834  0.1315 -0.8930
10584TIP3   OH253166   3.481   2.789   5.564  0.7357  0.7624  0.6178
10584TIP3    H153167   3.439   2.750   5.641  1.5787  1.5478  1.5192
10584TIP3    H253168   3.411   2.798   5.500 -0.3598  1.4541  1.8348
10585TIP3   OH253169   6.690   5.790   3.735 -0.3166  0.0053  0.0254
10585TIP3    H153170   6.715   5.715   3.788 -0.3246 -0.0338 -0.0256
10585TIP3    H253171   6.597   5.777   3.716 -0.7990  0.9660  1.5479
10586TIP3   OH253172   2.210   6.083  16.802  0.1738  0.1529 -0.0170
10586TIP3    H153173   2.207   6.059  16.894  0.3840 -1.4259 -0.3837
10586TIP3    H253174   2.234   6.175  16.801 -0.0814  0.2498  1.5052
10587TIP3   OH253175   1.444   0.034  12.690  0.8233  0.3947  0.0623
10587TIP3    H153176   1.406   0.055  12.605 -1.1693  0.3970  0.9200
10587TIP3    H253177   1.528   0.081  12.691  0.1329  1.7136 -1.2331
10588TIP3   OH253178   5.285   3.746  12.975 -0.4030  0.5364 -0.4595
10588TIP3    H153179   5.370   3.769  13.013 -0.9736 -1.3781  2.2457
10588TIP3    H253180   5.228   3.730  13.050 -1.5079 -4.1124 -1.9337
10589TIP3   OH253181   5.448   3.891  11.253 -0.1308 -0.1827  0.1920
10589TIP3    H153182   5.370   3.948  11.250 -1.0682 -1.4483 -0.1110
10589TIP3    H253183   5.521   3.952  11.242 -0.9904  1.1753  1.4905
10590TIP3   OH253184   5.714   3.575  12.854  0.1387  0.8531 -0.1086
10590TIP3    H153185   5.681   3.602  12.940 -0.3329  0.2864 -0.1086
10590TIP3    H253186   5.806   3.604  12.854 -0.1571  1.8425  0.1483
10591TIP3   OH253187   0.658   1.338   0.455  0.0990 -0.8611 -0.3281
10591TIP3    H153188   0.740   1.388   0.453  0.3735 -1.3342 -0.9748
10591TIP3    H253189   0.590   1.403   0.437  0.4652 -0.7283 -1.2907
10592TIP3   OH253190   1.325   4.832   1.617 -0.7022 -0.7285  0.1554
10592TIP3    H153191   1.342   4.897   1.549 -1.4640  1.6268  2.0717
10592TIP3    H253192   1.230   4.818   1.614 -0.3784 -3.0755 -1.2900
10593TIP3   OH253193   0.274   3.819  13.374 -0.1586  0.0378  0.4008
10593TIP3    H153194   0.307   3.824  13.284 -0.5380 -0.4090  0.2315
10593TIP3    H253195   0.214   3.745  13.373  1.0513 -1.0064  1.4204
10594TIP3   OH253196   4.557   3.090  13.792  0.2528  0.9279  0.5123
10594TIP3    H153197   4.516   3.081  13.877 -0.4191  0.4564  0.1416
10594TIP3    H253198   4.531   3.177  13.761  0.6731  1.1861  0.8714
10595TIP3   OH253199   1.838   3.876   5.858 -0.0316 -0.0687 -0.0452
10595TIP3    H153200   1.779   3.837   5.923 -0.9970  1.1422 -0.1446
10595TIP3    H253201   1.804   3.845   5.774 -0.9330  1.0887 -0.1373
10596TIP3   OH253202   4.139   5.958  14.135  0.5094 -0.7008  0.1356
10596TIP3    H153203   4.227   5.993  14.124 -0.1931  1.4378  0.6885
10596TIP3    H253204   4.139   5.875  14.087  1.8480  0.8897 -2.8974
10597TIP3   OH253205   0.059   4.848  17.008  0.2723 -0.1573 -0.5089
10597TIP3    H153206   0.020   4.781  16.952  0.0066 -0.8531  0.4714
10597TIP3    H253207   0.005   4.847  17.087  1.4103 -0.1452  0.2949
10598TIP3   OH253208   0.091   2.031   2.140 -0.2374 -0.5580 -0.0618
10598TIP3    H153209   0.120   1.947   2.104 -1.6423 -1.2671  0.3855
10598TIP3    H253210   0.153   2.095   2.105  2.0126 -1.9792  1.0517
10599TIP3   OH253211   5.594   3.481   3.899 -0.5597  0.7230 -0.2381
10599TIP3    H153212   5.651   3.522   3.964  1.1604  1.6001 -2.1625
10599TIP3    H253213   5.508   3.479   3.940  0.8919 -1.4353  3.1673
10600TIP3   OH253214   0.344   4.062  15.357 -1.1539 -0.9543  0.0509
10600TIP3    H153215   0.409   4.089  15.421 -2.1389 -1.7861  1.4623
10600TIP3    H253216   0.348   3.966  15.357 -1.1650 -0.9794 -1.1583
10601TIP3   OH253217   1.396   4.777  14.190  0.5848 -0.8033 -0.4999
10601TIP3    H153218   1.405   4.844  14.122 -1.9755  0.1122 -0.0568
10601TIP3    H253219   1.441   4.700  14.155  1.2356  0.3065 -2.2261
10602TIP3   OH253220   5.309   1.980   5.159  0.3478 -0.2185 -0.1183
10602TIP3    H153221   5.286   2.048   5.223  1.6400 -0.2936  0.4657
10602TIP3    H253222   5.291   1.897   5.205  0.5830 -0.2674 -0.1110
10603TIP3   OH253223   2.990   1.081   3.627  0.1832  0.4046  0.0862
10603TIP3    H153224   2.913   1.036   3.593 -0.6696  0.0423  2.2742
10603TIP3    H253225   3.038   1.109   3.550 -1.6010 -0.2855 -1.3531
10604TIP3   OH253226   3.946   2.848   3.746 -0.2563  0.7833  0.1349
10604TIP3    H153227   3.948   2.942   3.727  0.2610  0.9820  1.1191
10604TIP3    H253228   4.033   2.817   3.721 -0.3547  0.6024  0.0150
10605TIP3   OH253229   4.376   6.755   2.172 -0.0324  0.1302  0.1077
10605TIP3    H153230   4.402   6.664   2.157 -1.6099 -0.3068 -0.1368
10605TIP3    H253231   4.388   6.797   2.087  0.2678  0.0550  0.1088
10606TIP3   OH253232   4.443   1.896   2.212  0.0926  0.1484 -0.4756
10606TIP3    H153233   4.454   1.932   2.124  0.9760 -2.6516 -1.6038
10606TIP3    H253234   4.528   1.858   2.233 -0.4692 -0.2948  1.0892
10607TIP3   OH253235   3.959   3.334  15.578 -0.2484  0.0158 -0.1463
10607TIP3    H153236   3.935   3.362  15.489  2.1459 -0.4751 -1.0273
10607TIP3    H253237   4.038   3.384  15.599 -0.2793 -0.5232  1.3509
10608TIP3   OH253238   5.801   1.314  14.862 -0.4846  0.8052  0.6856
10608TIP3    H153239   5.729   1.256  14.837  0.5449 -0.2492  0.0772
10608TIP3    H253240   5.873   1.255  14.884  0.9471  1.8297 -0.9720
10609TIP3   OH253241   5.751   4.218   0.585  0.3459 -0.6631  0.2812
10609TIP3    H153242   5.664   4.207   0.623  0.4346 -1.7391  0.1968
10609TIP3    H253243   5.810   4.178   0.649  0.7663 -0.0370  0.2858
10610TIP3   OH253244   2.377   5.223  17.121  1.0683  0.3167 -0.0484
10610TIP3    H153245   2.354   5.224  17.213 -0.7097 -0.1513 -0.4474
10610TIP3    H253246   2.459   5.174  17.117  0.7657 -0.3330  1.1943
10611TIP3   OH253247   3.140   1.634  13.866 -0.2824  0.4173 -0.0958
10611TIP3    H153248   3.142   1.539  13.856  0.3378  0.3892  0.1994
10611TIP3    H253249   3.199   1.666  13.798 -2.6004  0.7990 -2.0451
10612TIP3   OH253250   3.028   3.063  15.645 -0.1022  0.2353 -0.2450
10612TIP3    H153251   2.986   3.149  15.646  1.0803  0.8281 -0.1058
10612TIP3    H253252   3.119   3.080  15.666  0.2564 -1.0084 -0.6912
10613TIP3   OH253253   0.442   3.305   0.249 -0.5522 -0.0438  0.1786
10613TIP3    H153254   0.347   3.309   0.250 -0.5508  0.0037  0.0688
10613TIP3    H253255   0.470   3.385   0.294 -0.6068 -1.5774  3.2153
10614TIP3   OH253256   2.766   4.942  15.824 -0.0481 -0.0844 -0.4958
10614TIP3    H153257   2.818   4.867  15.853 -0.1130  0.1282  0.1804
10614TIP3    H253258   2.675   4.910  15.826 -0.2129  0.4099  1.1210
10615TIP3   OH253259   3.114   0.455  17.081 -0.8257  0.3970  0.8373
10615TIP3    H153260   3.167   0.533  17.064  2.7367 -1.9762 -0.1724
10615TIP3    H253261   3.130   0.434  17.173  1.6699 -1.2678  0.1288
10616TIP3   OH253262   4.455   1.890   6.591  0.1313  0.2247  0.0144
10616TIP3    H153263   4.380   1.869   6.646  0.3753  0.2362  0.3527
10616TIP3    H253264   4.483   1.977   6.620  0.0788  0.3602 -0.3308
10617TIP3   OH253265   6.456   4.816  15.473 -0.1651  0.1165  0.0029
10617TIP3    H153266   6.403   4.882  15.428  2.9811  2.0100 -1.2435
10617TIP3    H253267   6.476   4.855  15.558 -0.4134 -0.4140  0.3116
10618TIP3   OH253268   4.106   3.217  17.103 -0.3929  0.5263  0.1367
10618TIP3    H153269   4.072   3.283  17.043 -0.9188 -1.0247 -1.3408
10618TIP3    H253270   4.028   3.168  17.132  0.0764 -0.0367  0.4737
10619TIP3   OH253271   4.895   0.337  13.642 -0.7374  0.0087 -0.2153
10619TIP3    H153272   4.949   0.411  13.669 -1.0122 -0.4246  1.6005
10619TIP3    H253273   4.955   0.281  13.593 -0.4691  1.2726 -1.4183
10620TIP3   OH253274   0.200   4.572  13.713 -0.0581  0.2065  0.5316
10620TIP3    H153275   0.121   4.581  13.659  0.9837  1.5882 -0.8417
10620TIP3    H253276   0.222   4.662  13.739 -0.1758 -0.3606  2.8219
10621TIP3   OH253277   0.093   2.282   4.150 -0.6573 -0.1561  0.2295
10621TIP3    H153278   0.155   2.211   4.135  0.4072  0.9942 -1.0626
10621TIP3    H253279   0.007   2.239   4.151 -0.1136 -1.3827 -1.3822
10622TIP3   OH253280   0.767   5.533  14.025 -0.1399  0.1591  0.3638
10622TIP3    H153281   0.695   5.546  14.087 -0.0653  1.9020  0.1490
10622TIP3    H253282   0.829   5.478  14.072 -1.1030 -0.4512  0.9700
10623TIP3   OH253283   2.324   4.745   4.993  0.5613 -0.3129 -0.1526
10623TIP3    H153284   2.267   4.724   5.068  1.0270 -2.6028 -0.3446
10623TIP3    H253285   2.411   4.755   5.031  0.6729 -0.7363 -0.2903
10624TIP3   OH253286   5.443   5.508  15.017 -0.3839  0.1298 -0.2169
10624TIP3    H153287   5.436   5.577  14.951 -0.1779 -0.0331 -0.4111
10624TIP3    H253288   5.417   5.550  15.099  1.9272  1.0943  0.0994
10625TIP3   OH253289   2.169   4.665   5.209 -0.0424 -0.4681  0.0682
10625TIP3    H153290   2.090   4.639   5.256  0.7338 -0.8769  1.1804
10625TIP3    H253291   2.240   4.622   5.256  0.8634  0.0154 -0.8254
10626TIP3   OH253292   3.562   1.072   4.409  0.0199 -0.6110 -0.4213
10626TIP3    H153293   3.618   1.150   4.404 -0.1687 -0.1406  2.7646
10626TIP3    H253294   3.623   0.999   4.422  0.1768  0.0176  4.1369
10627TIP3   OH253295   5.963   0.283   0.337 -0.0834 -0.3583 -0.0502
10627TIP3    H153296   6.040   0.315   0.383 -0.2357 -1.6584  1.1575
10627TIP3    H253297   5.968   0.188   0.344 -1.4349 -0.4887 -0.5485
10628TIP3   OH253298   4.761   0.953   4.667 -0.1390 -0.6458 -0.0585
10628TIP3    H153299   4.793   0.971   4.756 -1.2740  0.4633  0.1359
10628TIP3    H253300   4.738   1.038   4.632 -1.2740 -1.2498 -0.8163
10629TIP3   OH253301   0.299   4.615  12.306 -0.3629  0.0336  0.2414
10629TIP3    H153302   0.326   4.546  12.366 -0.4679 -0.8997 -0.7564
10629TIP3    H253303   0.379   4.643  12.263 -0.4777 -0.3229 -0.2191
10630TIP3   OH253304   3.219   5.212   1.967 -0.2087  1.1266  0.1552
10630TIP3    H153305   3.303   5.172   1.945 -0.5956 -0.4394  1.3360
10630TIP3    H253306   3.170   5.142   2.010 -1.2458  2.6547  1.5843
10631TIP3   OH253307   1.707   0.138   4.761  0.5065 -0.0188 -0.2045
10631TIP3    H153308   1.692   0.232   4.752 -3.5668 -0.3656  0.8804
10631TIP3    H253309   1.699   0.104   4.672  0.7514  0.4893 -0.4284
10632TIP3   OH253310   0.743   3.548   2.247 -0.0304  0.4544  0.2484
10632TIP3    H153311   0.762   3.545   2.153 -0.8429 -1.0547  0.0896
10632TIP3    H253312   0.651   3.574   2.252 -0.3704 -0.7068  0.5268
10633TIP3   OH253313   5.330   3.205  15.850  0.3573  1.1252  0.0547
10633TIP3    H153314   5.367   3.177  15.933 -1.8450 -0.4803  0.5577
10633TIP3    H253315   5.253   3.257  15.873  1.0094  2.6570 -0.9986
10634TIP3   OH253316   1.074   6.600  16.910  0.3398  0.5230 -0.9677
10634TIP3    H153317   1.131   6.606  16.833 -0.3971  2.7562 -1.4160
10634TIP3    H253318   1.012   6.672  16.899 -0.6218  0.0645  1.0647
10635TIP3   OH253319   4.309   0.116   3.308  0.0089 -0.5704  0.3406
10635TIP3    H153320   4.215   0.099   3.309 -0.2422  0.6987 -0.1809
10635TIP3    H253321   4.348   0.031   3.287 -0.9576 -1.2921  1.3018
10636TIP3   OH253322   5.892   2.214   2.175 -0.2978 -0.8250 -0.1898
10636TIP3    H153323   5.876   2.122   2.198  1.6624 -0.5978  2.4486
10636TIP3    H253324   5.985   2.217   2.153 -0.0303  0.7448  1.0324
10637TIP3   OH253325   2.642   3.015  14.097  0.0985 -0.2947  0.4613
10637TIP3    H153326   2.632   2.970  14.181 -0.8114 -1.2431 -0.1316
10637TIP3    H253327   2.564   3.070  14.089  0.1364 -0.2785  0.1896
10638TIP3   OH253328   6.633   4.371  15.299 -0.0055 -0.0383 -0.2206
10638TIP3    H153329   6.602   4.283  15.278  0.5332 -0.6783  1.4783
10638TIP3    H253330   6.621   4.421  15.218  0.6905 -1.9339 -1.5659
10639TIP3   OH253331   1.950   2.717  12.302  0.6684  0.3688  0.0119
10639TIP3    H153332   1.968   2.742  12.211  1.1753 -1.3767 -0.3940
10639TIP3    H253333   1.863   2.678  12.299  0.5649  0.5702  0.3431
10640TIP3   OH253334   3.147   3.413  14.924 -0.3191  0.4650 -0.9947
10640TIP3    H153335   3.219   3.465  14.888 -1.0955  1.4336 -1.1969
10640TIP3    H253336   3.177   3.387  15.011 -0.4771  2.5224 -0.2681
10641TIP3   OH253337   6.298   0.377  17.181  0.2705  0.6101  0.5070
10641TIP3    H153338   6.235   0.307  17.165  1.4231  0.0095 -1.8407
10641TIP3    H253339   6.263   0.452  17.134 -0.3552  1.3117  2.0299
10642TIP3   OH253340   3.268   1.959   5.523 -0.2451  0.1461  0.2658
10642TIP3    H153341   3.241   1.873   5.554 -0.4820  0.0091 -0.3007
10642TIP3    H253342   3.361   1.965   5.544  0.0645 -0.7359 -0.7345
10643TIP3   OH253343   3.490   3.449   3.645  0.3115 -0.1221 -0.4314
10643TIP3    H153344   3.496   3.378   3.582 -0.2335  0.7315 -1.4704
10643TIP3    H253345   3.461   3.525   3.594 -2.0316  0.1465  1.1564
10644TIP3   OH253346   1.146   0.872  10.828  1.0387 -0.2978  0.4704
10644TIP3    H153347   1.181   0.960  10.841  2.4848 -0.2569 -2.7686
10644TIP3    H253348   1.099   0.877  10.744 -0.0480 -2.2932  0.8944
10645TIP3   OH253349   2.544   5.424  14.222  0.3344  0.1628 -0.3453
10645TIP3    H153350   2.501   5.357  14.275  1.4987  1.1090  1.8804
10645TIP3    H253351   2.473   5.461  14.169 -0.8490 -0.8918  0.4532
10646TIP3   OH253352   3.897   3.535  13.309  0.1960  0.1179 -0.0772
10646TIP3    H153353   3.920   3.443  13.296  1.1641  0.4778 -1.0471
10646TIP3    H253354   3.831   3.533  13.378 -1.6514 -1.5299 -1.7465
10647TIP3   OH253355   1.501   4.471   4.590  0.4658  0.5106  0.3868
10647TIP3    H153356   1.584   4.429   4.612  1.1696  1.9473  0.5881
10647TIP3    H253357   1.492   4.542   4.653  0.3222  1.9120 -1.1363
10648TIP3   OH253358   6.149   2.107   2.109  0.2443 -0.1678 -0.5580
10648TIP3    H153359   6.149   2.012   2.121 -1.0794 -0.0312  0.7469
10648TIP3    H253360   6.216   2.122   2.042  0.3939 -2.0180 -0.8824
10649TIP3   OH253361   1.309   1.718  15.796  0.1609 -0.5293  0.3585
10649TIP3    H153362   1.279   1.739  15.708  1.9873  1.7310  0.1881
10649TIP3    H253363   1.355   1.797  15.825 -2.3739 -0.2098  4.2771
10650TIP3   OH253364   0.890   2.830  17.052  0.2056 -0.1089 -0.3568
10650TIP3    H153365   0.968   2.779  17.033  0.3728 -0.5622  1.3922
10650TIP3    H253366   0.886   2.834  17.147 -1.7582  0.1505 -0.4051
10651TIP3   OH253367   5.717   5.163   3.501  0.4061 -0.0504  0.2603
10651TIP3    H153368   5.739   5.101   3.571 -0.4204  1.1009  1.6006
10651TIP3    H253369   5.799   5.173   3.452  1.0300 -0.8407  1.0905
10652TIP3   OH253370   0.421   5.079   0.458 -0.5792  0.6964 -0.5682
10652TIP3    H153371   0.380   5.119   0.535  0.8950  2.7172 -0.7306
10652TIP3    H253372   0.398   5.138   0.386 -1.5960 -0.9431 -1.6350
10653TIP3   OH253373   0.975   5.084   1.763  0.5428 -0.3886 -0.9040
10653TIP3    H153374   0.918   5.111   1.691  1.6087  1.1847 -1.1880
10653TIP3    H253375   0.978   5.159   1.822  1.2195 -0.9692 -0.1669
10654TIP3   OH253376   4.410   5.160  15.866  0.1673 -0.2784  0.3180
10654TIP3    H153377   4.499   5.129  15.852 -0.1760 -1.4853  0.6806
10654TIP3    H253378   4.387   5.206  15.785  0.6443 -1.1230 -0.3046
10655TIP3   OH253379   3.600   3.999  13.042  0.1227  0.1176 -0.7836
10655TIP3    H153380   3.691   4.005  13.014  0.6222 -0.5833  0.6170
10655TIP3    H253381   3.604   3.985  13.136 -1.3909 -1.5676 -0.9172
10656TIP3   OH253382   0.655   0.167  12.131  0.5476 -0.1326  0.3908
10656TIP3    H153383   0.617   0.080  12.129 -1.2481  0.6110 -0.1387
10656TIP3    H253384   0.591   0.222  12.086  2.1471  1.2756 -0.3060
10657TIP3   OH253385   6.283   4.566  16.175  0.0327  0.2502  0.7001
10657TIP3    H153386   6.283   4.652  16.133  1.0578  0.2761  0.7239
10657TIP3    H253387   6.226   4.577  16.251 -1.8809  0.1957 -0.6618
10658TIP3   OH253388   5.592   6.661  13.524 -0.8237  0.2090  0.5982
10658TIP3    H153389   5.673   6.612  13.517 -0.3438  0.6372  2.5614
10658TIP3    H253390   5.556   6.638  13.609 -2.8638 -0.0716 -0.2660
10659TIP3   OH253391   1.195   5.986  10.780 -0.1430  0.2831  0.5217
10659TIP3    H153392   1.103   5.996  10.807  0.2554  0.3155  1.9848
10659TIP3    H253393   1.205   6.046  10.706 -0.8990  1.5304  1.3818
10660TIP3   OH253394   0.573   2.315  13.584 -0.3081 -0.6334  0.2862
10660TIP3    H153395   0.632   2.369  13.637 -0.9045  1.6442 -1.2016
10660TIP3    H253396   0.486   2.353  13.601 -0.9202 -1.8726  0.0289
10661TIP3   OH253397   1.594   1.045  15.487  0.0297  0.5260  0.4796
10661TIP3    H153398   1.586   1.129  15.441  0.8374  0.5946  0.4450
10661TIP3    H253399   1.596   0.980  15.416  1.3702  0.6393  0.3959
10662TIP3   OH253400   0.391   6.179   2.022 -0.5122 -0.2309  0.1992
10662TIP3    H153401   0.476   6.136   2.028 -0.8811 -1.2496 -1.2292
10662TIP3    H253402   0.371   6.179   1.928 -1.9869  0.1887  0.4877
10663TIP3   OH253403   1.046   4.072   2.540 -0.7502 -0.5958  0.3332
10663TIP3    H153404   1.053   4.135   2.468 -0.9805 -1.9485 -0.9060
10663TIP3    H253405   0.981   4.009   2.510  1.2308 -2.8164  0.4498
10664TIP3   OH253406   0.454   6.342   3.703  0.1042  0.6306  0.1588
10664TIP3    H153407   0.483   6.283   3.773  1.3411  0.9328 -0.0728
10664TIP3    H253408   0.490   6.427   3.728  1.5135  0.5357 -1.3664
10665TIP3   OH253409   6.466   4.740   5.907  0.1546  0.0247 -0.6548
10665TIP3    H153410   6.425   4.827   5.902 -3.7109 -1.3735  2.0438
10665TIP3    H253411   6.524   4.746   5.983  1.2460  0.6573 -1.5110
10666TIP3   OH253412   4.881   3.706   2.305  0.7521 -0.2092 -0.2100
10666TIP3    H153413   4.799   3.674   2.344  1.1646 -0.6606  0.3008
10666TIP3    H253414   4.854   3.779   2.249 -0.1192 -0.9279 -0.7711
10667TIP3   OH253415   1.248   6.659  10.997 -0.1211 -0.3857  0.4390
10667TIP3    H153416   1.251   6.563  10.998 -2.7968 -0.5887 -0.6075
10667TIP3    H253417   1.213   6.681  10.911 -1.0428  1.4168  1.2056
10668TIP3   OH253418   5.278   4.805  10.829 -0.2581 -0.3966  0.1556
10668TIP3    H153419   5.247   4.738  10.768 -0.6004  0.9076 -1.1706
10668TIP3    H253420   5.344   4.761  10.882 -2.5660 -2.6217  1.4292
10669TIP3   OH253421   5.307   1.361  12.023 -0.4246  0.2364  0.0215
10669TIP3    H153422   5.343   1.430  12.078 -0.2834  1.9464 -2.0628
10669TIP3    H253423   5.276   1.407  11.944 -0.9693 -2.0008 -1.1579
10670TIP3   OH253424   2.993   0.197   2.537  0.2820  0.0981  0.2679
10670TIP3    H153425   3.020   0.126   2.594  0.7191 -0.3892 -0.5245
10670TIP3    H253426   2.900   0.209   2.554 -0.0115 -1.3026 -0.2596
10671TIP3   OH253427   4.200   3.773  15.766 -0.1220 -0.5682  0.4309
10671TIP3    H153428   4.248   3.742  15.843 -0.1114 -0.4800  0.4598
10671TIP3    H253429   4.221   3.709  15.698 -1.2494 -1.4449  0.8758
10672TIP3   OH253430   4.728   6.402  16.356  0.4037  0.1478  0.1391
10672TIP3    H153431   4.760   6.432  16.441 -0.1820 -1.3655  0.9242
10672TIP3    H253432   4.806   6.374  16.309  0.7467  1.1108  0.1152
10673TIP3   OH253433   4.737   5.142  15.993  0.4436 -0.3873  0.3837
10673TIP3    H153434   4.693   5.227  16.005  0.9756  0.0054 -0.4253
10673TIP3    H253435   4.753   5.135  15.899  1.1249 -1.0281  0.5330
10674TIP3   OH253436   0.476   5.227   0.078  0.6176 -0.2829  0.1113
10674TIP3    H153437   0.489   5.133   0.086 -0.3281 -0.5170 -0.9626
10674TIP3    H253438   0.554   5.258   0.033 -0.1877 -0.9486 -1.8260
10675TIP3   OH253439   4.328   1.630   3.818 -0.6666 -0.1747 -0.6051
10675TIP3    H153440   4.322   1.535   3.818  1.1479 -0.3276 -1.8910
10675TIP3    H253441   4.247   1.659   3.776 -0.8539 -1.1833 -0.9599
10676TIP3   OH253442   0.442   4.930  12.200 -0.0769 -0.0010 -0.0169
10676TIP3    H153443   0.378   4.938  12.129 -2.0721 -2.3064  1.4062
10676TIP3    H253444   0.515   4.881  12.162 -0.2699  0.4120 -0.9458
10677TIP3   OH253445   3.417   0.145  13.947  0.6713 -0.8449  0.0142
10677TIP3    H153446   3.354   0.172  14.013  2.9148  1.8791  1.2689
10677TIP3    H253447   3.370   0.080  13.894 -3.3949  1.5431  0.2945
10678TIP3   OH253448   1.480   3.847   5.549 -0.3469 -0.1410  0.1742
10678TIP3    H153449   1.397   3.799   5.543 -0.1572 -0.2825 -2.1590
10678TIP3    H253450   1.476   3.911   5.478  1.8857 -0.7367 -0.5699
10679TIP3   OH253451   0.550   5.948  12.333 -0.6037 -0.0887  0.3125
10679TIP3    H153452   0.561   6.012  12.263 -3.3180  1.1166  0.8733
10679TIP3    H253453   0.563   5.863  12.290  4.4868  0.6168 -0.1704
10680TIP3   OH253454   1.023   1.756   6.025 -0.3091  0.1288  0.7092
10680TIP3    H153455   1.015   1.695   5.952 -0.9503 -0.2628  1.0906
10680TIP3    H253456   1.040   1.841   5.985 -0.2668 -0.1479  0.1298
10681TIP3   OH253457   3.887   0.380  10.681 -0.4222 -0.2121 -0.4603
10681TIP3    H153458   3.925   0.439  10.616 -0.6094  0.5252  0.0838
10681TIP3    H253459   3.853   0.306  10.630 -1.9411  1.0612 -1.3715
10682TIP3   OH253460   1.217   2.574   5.060  0.0400  0.3093  0.5967
10682TIP3    H153461   1.285   2.557   4.995 -0.0915  1.7919  0.0198
10682TIP3    H253462   1.170   2.651   5.026 -1.6674 -0.4293  1.1824
10683TIP3   OH253463   0.838   6.194   2.414 -0.1456 -0.3066  0.2415
10683TIP3    H153464   0.775   6.256   2.377  0.5018  0.0793 -0.2184
10683TIP3    H253465   0.786   6.143   2.477 -0.6576  0.7577  0.7047
10684TIP3   OH253466   3.390   6.777   3.834  0.1696  0.0682 -0.3955
10684TIP3    H153467   3.438   6.825   3.901 -2.2158  1.5284  0.4089
10684TIP3    H253468   3.413   6.821   3.752  0.0401  0.9171  0.0103
10685TIP3   OH253469   3.680   4.900   5.546  0.2066 -0.2239  0.1006
10685TIP3    H153470   3.652   4.985   5.511  2.5337  0.7617  0.3881
10685TIP3    H253471   3.718   4.855   5.471 -2.5781 -1.8601 -0.4621
10686TIP3   OH253472   1.090   1.861   2.199  0.2589  0.3395 -0.1443
10686TIP3    H153473   1.024   1.836   2.264  2.3259 -1.6936  1.3171
10686TIP3    H253474   1.142   1.928   2.242  0.5638  0.2569 -0.3843
10687TIP3   OH253475   5.810   2.367   3.279 -0.3035  0.5084  0.1536
10687TIP3    H153476   5.746   2.439   3.285  1.2909  2.3914 -2.9302
10687TIP3    H253477   5.769   2.305   3.219  0.4425  1.4833 -1.4332
10688TIP3   OH253478   6.539   6.636  15.924  0.1741  0.1943  0.3342
10688TIP3    H153479   6.540   6.697  15.850 -1.6599 -0.5735 -0.3805
10688TIP3    H253480   6.561   6.551  15.886  3.1412  0.3904  1.3970
10689TIP3   OH253481   4.393   2.324   6.874 -0.6607 -0.2010  0.0687
10689TIP3    H153482   4.384   2.359   6.963  0.8614 -2.3897  1.1840
10689TIP3    H253483   4.315   2.354   6.828 -0.5086  2.7196  1.5103
10690TIP3   OH253484   1.964   6.023   4.262  0.6316  0.0445 -0.8933
10690TIP3    H153485   1.932   6.056   4.178  0.0708  1.9324  0.0153
10690TIP3    H253486   2.030   5.958   4.238 -0.8741 -0.9042 -2.7890
10691TIP3   OH253487   2.638   5.654  13.052  0.6928 -0.7684  0.3333
10691TIP3    H153488   2.729   5.655  13.020  0.5434  0.0406 -0.1096
10691TIP3    H253489   2.615   5.561  13.056  1.1785 -0.9514 -0.6376
10692TIP3   OH253490   0.879   5.469  10.772 -0.2840 -0.0062 -0.0331
10692TIP3    H153491   0.828   5.404  10.820 -0.0971 -0.7064 -0.7601
10692TIP3    H253492   0.942   5.502  10.837 -0.2495 -0.6953  0.2988
10693TIP3   OH253493   5.103   3.492   2.109 -0.8897  0.1697  1.0149
10693TIP3    H153494   5.047   3.529   2.040 -0.2220  2.0026  1.3936
10693TIP3    H253495   5.182   3.463   2.063 -1.4589 -0.9129  0.6979
10694TIP3   OH253496   5.666   3.629   2.149  0.4308 -0.1746  0.3307
10694TIP3    H153497   5.695   3.721   2.152  0.8550 -0.2885 -0.0829
10694TIP3    H253498   5.693   3.599   2.062  0.9335 -0.9021  0.7290
10695TIP3   OH253499   6.397   5.728   1.448 -0.3314 -0.0392 -0.1084
10695TIP3    H153500   6.407   5.816   1.485  0.8416  0.5748 -1.7088
10695TIP3    H253501   6.388   5.744   1.353  2.2094 -1.6956 -0.7209
10696TIP3   OH253502   0.267   4.066  12.820 -0.1242 -0.4277  0.0336
10696TIP3    H153503   0.203   3.999  12.796  1.4795 -1.5919 -1.1283
10696TIP3    H253504   0.296   4.103  12.737 -1.3211  2.1545  0.6318
10697TIP3   OH253505   4.715   5.118   4.370  0.1189 -0.4110  0.1450
10697TIP3    H153506   4.706   5.023   4.373  0.1435 -0.4040  0.5128
10697TIP3    H253507   4.625   5.150   4.372  0.0914 -0.4372 -0.5349
10698TIP3   OH253508   4.902   2.109   0.515  0.2960  0.0989 -0.0964
10698TIP3    H153509   4.835   2.071   0.458 -0.7497  0.4042  0.9083
10698TIP3    H253510   4.890   2.203   0.507  0.2362  0.1455  0.5280
10699TIP3   OH253511   1.936   5.600   3.910 -0.0617  0.6240  0.2355
10699TIP3    H153512   2.025   5.600   3.875  0.0201 -0.5154  0.3885
10699TIP3    H253513   1.941   5.653   3.990  0.1835  1.6069 -0.4174
10700TIP3   OH253514   3.730   4.791   0.642  0.3512 -0.0949  0.6985
10700TIP3    H153515   3.653   4.790   0.586  1.1125 -0.7936 -0.3861
10700TIP3    H253516   3.762   4.701   0.641  0.2305 -0.1854  2.5135
10701TIP3   OH253517   5.361   1.168  17.231  0.6753 -0.5789  0.2637
10701TIP3    H153518   5.363   1.126  17.145 -0.3616  0.4759 -0.2973
10701TIP3    H253519   5.442   1.139  17.273  1.9910  0.1089 -1.6529
10702TIP3   OH253520   3.274   0.268   5.113  0.3415 -0.7362 -0.0075
10702TIP3    H153521   3.231   0.294   5.195  0.9252  0.9745 -0.2068
10702TIP3    H253522   3.203   0.263   5.049  0.1300 -0.1346  0.1704
10703TIP3   OH253523   6.667   5.167  11.185 -0.4948  0.1992  0.0608
10703TIP3    H153524   6.645   5.120  11.105  0.8763 -0.5883  0.1249
10703TIP3    H253525   6.739   5.117  11.224  0.3197  1.7639  0.6702
10704TIP3   OH253526   4.398   4.610   1.354 -0.0454 -0.4574 -0.1408
10704TIP3    H153527   4.426   4.581   1.441  1.2592  0.1147 -0.3488
10704TIP3    H253528   4.357   4.695   1.369  0.5152 -0.1878 -0.1289
10705TIP3   OH253529   0.504   5.678  13.184 -0.3635  0.0361 -0.2682
10705TIP3    H153530   0.533   5.697  13.095  0.0675  1.4760  0.1540
10705TIP3    H253531   0.487   5.583  13.184  0.4378 -0.1334 -1.6355
10706TIP3   OH253532   1.209   3.773  11.499  0.6353 -0.0063  0.2909
10706TIP3    H153533   1.292   3.726  11.501  1.3426  1.2188  0.4303
10706TIP3    H253534   1.216   3.836  11.571 -0.0179  0.7706 -0.3204
10707TIP3   OH253535   5.802   0.814  15.001  0.0572 -0.4561 -0.5746
10707TIP3    H153536   5.720   0.765  15.013 -0.5224  0.8922  1.3332
10707TIP3    H253537   5.804   0.832  14.907 -2.0439 -0.2102 -0.6234
10708TIP3   OH253538   2.597   3.376  13.228 -0.0380  0.0904 -0.1425
10708TIP3    H153539   2.682   3.376  13.183  0.4436 -2.8171  0.5646
10708TIP3    H253540   2.612   3.431  13.306  1.3952 -0.7779  0.2403
10709TIP3   OH253541   5.699   2.130  12.545 -0.4355  0.4908  0.2318
10709TIP3    H153542   5.694   2.039  12.513  2.1062  0.1778  0.5219
10709TIP3    H253543   5.607   2.158  12.551 -1.2408 -1.3806 -1.7365
10710TIP3   OH253544   1.976   0.023   5.566 -0.1599  0.4059  0.0564
10710TIP3    H153545   1.907   0.063   5.513  0.6035 -1.9655 -3.0532
10710TIP3    H253546   1.928  -0.033   5.628 -1.1074 -0.0416 -1.0393
10711TIP3   OH253547   2.117   1.824  11.315 -0.3809  0.2566 -0.1711
10711TIP3    H153548   2.201   1.829  11.271 -0.7542 -0.8226 -1.0528
10711TIP3    H253549   2.138   1.797  11.404  0.1715 -0.9233 -0.6316
10712TIP3   OH253550   0.211   5.791   5.388 -0.1790  0.4247 -0.1392
10712TIP3    H153551   0.160   5.743   5.322 -1.1491  1.8572 -0.4954
10712TIP3    H253552   0.163   5.778   5.469  1.0122 -1.3331  0.3466
10713TIP3   OH253553   4.641   0.536   2.786  0.5297 -0.3861 -0.1639
10713TIP3    H153554   4.635   0.599   2.714 -2.1119  0.6813  0.8683
10713TIP3    H253555   4.732   0.543   2.815  0.9574  1.1341 -1.6466
10714TIP3   OH253556   2.251   1.806   6.273  0.5151  0.2344  0.1983
10714TIP3    H153557   2.160   1.823   6.250  0.6708  1.7120  0.5707
10714TIP3    H253558   2.260   1.711   6.269 -0.9611  0.0917 -0.1168
10715TIP3   OH253559   3.985   6.032   2.196  0.2255  0.8460  0.2913
10715TIP3    H153560   3.970   6.087   2.120 -0.9480  0.9518  0.5823
10715TIP3    H253561   3.929   6.069   2.264  0.4181  0.0881  0.8750
10716TIP3   OH253562   5.647   5.804   1.054  0.0147 -0.4623 -1.0212
10716TIP3    H153563   5.595   5.765   1.124  0.4965 -0.5211 -0.6910
10716TIP3    H253564   5.602   5.886   1.032 -1.1171 -1.2764 -1.8501
10717TIP3   OH253565   4.551   2.813  16.400  0.9414 -0.2568  0.4177
10717TIP3    H153566   4.576   2.898  16.436  1.5116  0.2796 -1.1556
10717TIP3    H253567   4.624   2.755  16.421  1.9717  0.4346 -1.1474
10718TIP3   OH253568   4.124   2.154  15.518 -0.0697  0.7231 -0.0975
10718TIP3    H153569   4.118   2.120  15.607 -0.7081  1.9732  0.3644
10718TIP3    H253570   4.042   2.202  15.505 -0.2607  0.0562 -1.5891
10719TIP3   OH253571   2.290   5.333  16.883  0.3233 -0.0517 -0.1300
10719TIP3    H153572   2.352   5.397  16.847 -1.1486  1.8225  0.4647
10719TIP3    H253573   2.320   5.319  16.973  1.0027 -0.6892 -0.4496
10720TIP3   OH253574   3.065   4.775  15.125 -0.8124  0.1299  0.4191
10720TIP3    H153575   3.095   4.826  15.200  0.1579  0.6846 -0.3328
10720TIP3    H253576   3.137   4.714  15.107  0.2356  1.8681 -1.7758
10721TIP3   OH253577   5.015   4.078  15.694  0.1524  0.5859  0.1329
10721TIP3    H153578   4.981   4.084  15.783  1.4573 -0.4870  0.7350
10721TIP3    H253579   4.963   4.009  15.654  0.1832  0.4318  0.3568
10722TIP3   OH253580   5.961   3.766  13.604 -0.2303 -0.4278  0.2717
10722TIP3    H153581   5.894   3.751  13.671 -0.9153  0.0281 -0.2998
10722TIP3    H253582   6.042   3.781  13.654 -0.9704  1.1829  1.0654
10723TIP3   OH253583   1.431   3.465   4.720  0.6732  0.1586  0.4960
10723TIP3    H153584   1.382   3.472   4.639  0.4121 -0.1396  0.6279
10723TIP3    H253585   1.444   3.555   4.748  0.6432  0.2568  0.1983
10724TIP3   OH253586   0.877   0.044   1.704  0.4196  0.5632  0.7449
10724TIP3    H153587   0.915   0.103   1.639  0.7347  0.2062  0.5946
10724TIP3    H253588   0.873   0.095   1.784  1.0522  0.6699  0.7192
10725TIP3   OH253589   3.935   1.833   0.347 -0.5085 -0.3913 -0.2449
10725TIP3    H153590   3.938   1.927   0.328  0.1836 -0.0148  1.5144
10725TIP3    H253591   3.876   1.826   0.422  0.2216 -1.2198  0.2791
10726TIP3   OH253592   2.417   1.087   0.210  0.0449  0.4310  0.0701
10726TIP3    H153593   2.423   1.117   0.301  0.8895 -1.5827  0.7363
10726TIP3    H253594   2.324   1.094   0.189 -0.9897 -2.8405  2.5722
10727TIP3   OH253595   1.449   3.745   4.722 -0.4802  0.3672  0.4459
10727TIP3    H153596   1.362   3.783   4.735 -0.3035  0.8739  0.1677
10727TIP3    H253597   1.485   3.737   4.810  0.0712  2.2657  0.4359
10728TIP3   OH253598   1.853   4.763  17.276 -0.1877  0.2408 -0.5147
10728TIP3    H153599   1.800   4.799  17.204  0.0956  0.9397 -0.3898
10728TIP3    H253600   1.926   4.719  17.232 -0.9471 -0.8787 -0.6931
10729TIP3   OH253601   4.465   1.846   3.230  0.2375 -0.5642  0.0394
10729TIP3    H153602   4.390   1.825   3.175 -0.9869 -0.8436  1.7387
10729TIP3    H253603   4.522   1.770   3.223  0.5752 -0.1983 -1.5493
10730TIP3   OH253604   3.196   6.161   4.497  0.0106 -0.8853 -0.2104
10730TIP3    H153605   3.160   6.079   4.531 -0.1291 -1.2751 -1.2599
10730TIP3    H253606   3.164   6.228   4.558  0.3998 -1.6410  0.8431
10731TIP3   OH253607   5.345   3.993   1.098  0.2028 -0.2497 -0.3405
10731TIP3    H153608   5.343   3.922   1.163  1.7438  0.1628  0.2069
10731TIP3    H253609   5.376   3.951   1.018 -0.1407 -0.4364 -0.3806
10732TIP3   OH253610   5.939   5.147   4.836 -0.0048  0.1200 -0.3470
10732TIP3    H153611   5.938   5.203   4.914  1.0425  0.2456 -0.4136
10732TIP3    H253612   5.882   5.192   4.774  0.5272  0.9286 -0.2674
10733TIP3   OH253613   0.392   0.521  13.810 -0.4640 -0.0082 -0.5778
10733TIP3    H153614   0.336   0.571  13.868 -0.0652  0.7337 -0.8162
10733TIP3    H253615   0.411   0.581  13.738  1.9241  0.3640  0.2630
10734TIP3   OH253616   0.178   3.361   0.239  0.2788  0.2669  0.1138
10734TIP3    H153617   0.132   3.412   0.305 -1.1595 -1.0203  0.1402
10734TIP3    H253618   0.118   3.358   0.164  1.2909  0.4967 -0.7352
10735TIP3   OH253619   3.872   5.541   1.330  0.0042 -0.1659 -0.1182
10735TIP3    H153620   3.844   5.597   1.258  2.9631 -0.9254 -2.0102
10735TIP3    H253621   3.936   5.594   1.379  0.0990 -0.6403  0.2810
10736TIP3   OH253622   0.333   0.085  11.706 -0.0576 -0.0918  0.9256
10736TIP3    H153623   0.241   0.109  11.719 -0.0495  0.9842 -0.7578
10736TIP3    H253624   0.355   0.034  11.784 -1.7025  0.7208  1.9921
10737TIP3   OH253625   2.179   4.306   4.257 -0.1878  0.2598 -0.0658
10737TIP3    H153626   2.114   4.272   4.319  0.2236  0.6111  0.5712
10737TIP3    H253627   2.149   4.275   4.172 -1.2397  0.5001  0.2039
10738TIP3   OH253628   5.282   1.330  15.501  0.0073 -0.0419  0.0374
10738TIP3    H153629   5.372   1.341  15.472 -0.6233  1.7819 -1.4187
10738TIP3    H253630   5.289   1.314  15.595  1.7975  1.1890  0.1567
10739TIP3   OH253631   0.890   2.778   0.548  0.1447 -0.0050 -0.0847
10739TIP3    H153632   0.974   2.789   0.504  0.4050 -1.0051  0.1286
10739TIP3    H253633   0.868   2.865   0.580  1.6597  0.0725  0.8505
10740TIP3   OH253634   0.053   1.944   2.496  0.2201  0.5973 -0.0240
10740TIP3    H153635   0.073   1.984   2.412  0.6518  0.9175  0.2308
10740TIP3    H253636   0.138   1.923   2.534  0.0474  0.9277  0.5610
10741TIP3   OH253637   4.809   4.743  13.267  0.2014  0.4052 -0.0893
10741TIP3    H153638   4.866   4.685  13.318  1.4082  0.7409 -1.0271
10741TIP3    H253639   4.781   4.690  13.193 -0.6968  0.2576  0.3414
10742TIP3   OH253640   0.504   1.769   1.314  0.4944 -0.0451 -0.9819
10742TIP3    H153641   0.551   1.695   1.354 -2.0380 -1.1461  0.2197
10742TIP3    H253642   0.415   1.736   1.301 -0.5474  2.5756 -1.1220
10743TIP3   OH253643   2.867   1.171  13.029 -0.0225 -0.4082 -0.8078
10743TIP3    H153644   2.884   1.080  13.053 -1.8837 -0.3871  0.9062
10743TIP3    H253645   2.774   1.173  13.004  0.1092  0.9179 -1.2962
10744TIP3   OH253646   6.414   5.364   6.521 -0.2135 -0.1959 -0.0592
10744TIP3    H153647   6.367   5.347   6.602  2.2866 -0.4238  1.4498
10744TIP3    H253648   6.365   5.316   6.454 -2.2306 -0.1507  1.3232
10745TIP3   OH253649   0.259   1.033   0.634  0.3242 -0.2145 -0.5852
10745TIP3    H153650   0.343   0.997   0.606  0.1235 -0.2230 -1.1925
10745TIP3    H253651   0.270   1.128   0.628  0.1173 -0.2271 -1.1885
10746TIP3   OH253652   1.028   3.169   6.699  0.2563 -0.4653  0.0284
10746TIP3    H153653   1.077   3.194   6.621 -0.4541  2.1478  0.3233
10746TIP3    H253654   0.938   3.198   6.681 -0.2488 -1.2151  1.2115
10747TIP3   OH253655   1.177   6.393   2.957 -0.0472 -0.0953 -0.2803
10747TIP3    H153656   1.197   6.465   2.898  1.6090 -0.4756 -0.2425
10747TIP3    H253657   1.172   6.433   3.043 -0.2572  0.1426 -0.4026
10748TIP3   OH253658   0.469   1.828  12.254 -0.2746 -0.5328  0.1608
10748TIP3    H153659   0.428   1.885  12.319  0.6810  1.0249 -0.5350
10748TIP3    H253660   0.509   1.757  12.305 -0.8791 -0.1950  1.1235
10749TIP3   OH253661   5.887   2.325  12.450 -0.5669  0.3364 -0.1818
10749TIP3    H153662   5.831   2.247  12.454 -0.2571 -0.0220 -1.7342
10749TIP3    H253663   5.944   2.318  12.526 -0.1882 -1.2740 -0.5735
10750TIP3   OH253664   4.806   4.412   1.995  0.7676  0.2033  0.5289
10750TIP3    H153665   4.832   4.453   2.077  0.3051 -2.1275  1.9044
10750TIP3    H253666   4.788   4.486   1.936 -0.4053  1.9975  2.9674
10751TIP3   OH253667   0.398   0.204  16.863  0.2003  0.2319  0.4629
10751TIP3    H153668   0.312   0.181  16.828  0.3095 -1.0130  0.9538
10751TIP3    H253669   0.380   0.274  16.926 -0.5700 -0.4537  1.0409
10752TIP3   OH253670   5.125   3.672  12.249 -0.6465  0.7060 -0.0432
10752TIP3    H153671   5.098   3.758  12.282  2.1628  1.3325  0.9730
10752TIP3    H253672   5.142   3.686  12.156  0.1084  1.3984  0.1793
10753TIP3   OH253673   1.581   2.756   4.019  0.8150 -0.2174  0.2632
10753TIP3    H153674   1.581   2.697   3.944 -0.4412 -2.1782  1.7254
10753TIP3    H253675   1.492   2.750   4.054  0.9190  1.8633  1.0257
10754TIP3   OH253676   1.183   1.945  15.343  0.1390 -0.5281 -0.3616
10754TIP3    H153677   1.142   2.030  15.359  1.7085  0.5958 -1.9531
10754TIP3    H253678   1.199   1.943  15.249  0.0667 -2.6431 -0.3710
10755TIP3   OH253679   1.250   4.633   4.703 -0.6488  0.8126 -0.4102
10755TIP3    H153680   1.266   4.602   4.792  0.6687  2.9933  0.1852
10755TIP3    H253681   1.154   4.641   4.698 -0.7592  0.3847  0.7173
10756TIP3   OH253682   0.663   4.531   4.262 -0.2566  0.1856 -0.6582
10756TIP3    H153683   0.581   4.498   4.297 -0.4995  1.6173  0.2066
10756TIP3    H253684   0.683   4.473   4.188 -0.9168 -1.4920  0.4369
10757TIP3   OH253685   2.640   3.374  15.344  0.4312 -0.0303 -0.1741
10757TIP3    H153686   2.708   3.322  15.386  0.5810 -1.8736 -2.4574
10757TIP3    H253687   2.578   3.309  15.311 -1.5494  1.5116  0.3155
10758TIP3   OH253688   1.687   6.254  13.827 -0.3791 -0.2814  0.5067
10758TIP3    H153689   1.664   6.289  13.741  0.6467  0.9334  0.7020
10758TIP3    H253690   1.692   6.159  13.814  0.8875 -0.0373 -1.0579
10759TIP3   OH253691   0.704   2.751   1.407  0.6809 -0.0148 -0.0369
10759TIP3    H153692   0.611   2.742   1.386  0.5373  0.8202  0.2230
10759TIP3    H253693   0.725   2.672   1.458  0.9882 -2.0117 -2.9699
10760TIP3   OH253694   2.029   1.159   5.607  0.2969 -0.7950  0.3220
10760TIP3    H153695   2.074   1.100   5.667  3.0770  0.0828 -0.7314
10760TIP3    H253696   1.988   1.102   5.542  2.0120 -1.6399 -0.0714
10761TIP3   OH253697   0.740   0.574   1.532 -0.1926  0.2560  0.2092
10761TIP3    H153698   0.762   0.563   1.440 -2.3831  0.1633 -0.3717
10761TIP3    H253699   0.694   0.658   1.536  1.2401  1.0299  1.5272
10762TIP3   OH253700   2.648   6.425  14.334 -0.1362 -0.0394  0.3071
10762TIP3    H153701   2.656   6.445  14.427 -0.5276 -1.3901  0.6478
10762TIP3    H253702   2.579   6.484  14.303  0.8910  1.3604  0.5420
10763TIP3   OH253703   5.047   2.756   0.068  0.0628  0.0018 -0.0475
10763TIP3    H153704   5.090   2.672   0.087  0.7858  0.2508 -0.5568
10763TIP3    H253705   4.967   2.731   0.023  1.2130 -0.3805 -1.9971
10764TIP3   OH253706   1.060   4.701  15.137  0.5238 -0.0139 -0.1189
10764TIP3    H153707   1.133   4.744  15.092  0.0878  1.9289  0.9079
10764TIP3    H253708   1.035   4.762  15.206 -0.3348 -1.8576  1.2907
10765TIP3   OH253709   4.249   0.622   4.281  0.4686  0.0927 -0.3214
10765TIP3    H153710   4.311   0.672   4.227  0.7274  0.8602  0.6589
10765TIP3    H253711   4.295   0.609   4.364 -1.2535  2.1598  1.0800
10766TIP3   OH253712   1.552   2.343  15.295  0.2195 -0.2329  0.6608
10766TIP3    H153713   1.533   2.361  15.387 -1.1832 -2.2878  0.8384
10766TIP3    H253714   1.640   2.304  15.296  0.5434  0.4868  1.0072
10767TIP3   OH253715   4.464   0.169  12.789  0.1375  0.1163  0.0012
10767TIP3    H153716   4.467   0.074  12.789 -0.5219  0.0754 -1.5131
10767TIP3    H253717   4.478   0.193  12.881  0.0062 -1.4381  0.4534
10768TIP3   OH253718   4.575   3.418  13.468  0.0117  0.1892  0.0320
10768TIP3    H153719   4.523   3.492  13.498 -0.3687 -0.4863  1.0957
10768TIP3    H253720   4.514   3.366  13.416 -0.4916 -0.7298  1.4809
10769TIP3   OH253721   5.879   6.393   4.265 -0.2117  0.2590 -0.5614
10769TIP3    H153722   5.920   6.365   4.183  0.2731  0.2488 -0.3184
10769TIP3    H253723   5.828   6.471   4.240 -0.2774  0.1043 -0.9228
10770TIP3   OH253724   4.316   4.916   2.789  0.2729  0.3723  0.1365
10770TIP3    H153725   4.297   4.995   2.838  0.3261  0.3630  0.1714
10770TIP3    H253726   4.351   4.854   2.853 -1.0783 -0.1637  0.3754
10771TIP3   OH253727   4.846   6.641   5.443 -0.2505  0.0161  0.1029
10771TIP3    H153728   4.877   6.698   5.513 -1.7651  0.9451  0.0559
10771TIP3    H253729   4.845   6.697   5.365 -2.1866  0.1105  0.1498
10772TIP3   OH253730   5.217   0.516  11.409 -0.6791  0.0992  0.0188
10772TIP3    H153731   5.196   0.451  11.342 -1.0670 -0.6830  0.8808
10772TIP3    H253732   5.310   0.504  11.426 -0.7037 -0.0887  0.0229
10773TIP3   OH253733   5.398   4.008  13.942  0.0026  0.0620  0.0839
10773TIP3    H153734   5.422   3.949  14.014 -0.2757  0.3431  0.4086
10773TIP3    H253735   5.436   4.093  13.967 -0.2854  0.2143  0.0105
10774TIP3   OH253736   3.530   3.569   5.330 -0.1605 -0.2405 -0.0321
10774TIP3    H153737   3.461   3.632   5.353 -1.1997 -0.6639 -1.8166
10774TIP3    H253738   3.538   3.513   5.407  1.0847  2.2242  1.7996
10775TIP3   OH253739   3.142   4.609  15.583  0.1994  0.5836  0.2722
10775TIP3    H153740   3.123   4.522  15.615  1.0280  0.6554  0.9899
10775TIP3    H253741   3.056   4.648  15.565 -0.2033 -1.3536 -2.8679
10776TIP3   OH253742   0.974   5.091   0.685 -0.0402  0.3119  0.1167
10776TIP3    H153743   1.002   5.176   0.717 -0.1948  1.1636 -1.9044
10776TIP3    H253744   1.055   5.044   0.667  0.0499  0.3336  0.4680
10777TIP3   OH253745   3.758   2.151  14.857  0.1034 -0.7976  0.2518
10777TIP3    H153746   3.770   2.184  14.768 -2.6117  1.1944  0.5218
10777TIP3    H253747   3.791   2.221  14.913  1.9968 -2.1230  0.9244
10778TIP3   OH253748   2.987   4.987  11.062 -0.8155 -0.2720  0.2996
10778TIP3    H153749   3.078   5.004  11.084 -0.1388  0.2281 -2.4377
10778TIP3    H253750   2.989   4.904  11.014 -2.1332 -1.2660  1.8595
10779TIP3   OH253751   5.192   2.951  15.830  0.9028  0.6451 -0.1801
10779TIP3    H153752   5.174   2.988  15.916  0.6398  1.1743 -0.4617
10779TIP3    H253753   5.250   3.014  15.787 -0.1784  1.1556 -0.9565
10780TIP3   OH253754   2.927   0.796   5.477  0.0033  0.1576  0.5317
10780TIP3    H153755   2.982   0.832   5.547  0.0334  0.0107  0.5849
10780TIP3    H253756   2.883   0.722   5.518  1.2827 -0.9676 -0.0531
10781TIP3   OH253757   0.689   4.573  14.779 -0.1139  0.5819  0.1495
10781TIP3    H153758   0.744   4.619  14.841  0.5509  0.7760 -0.5651
10781TIP3    H253759   0.705   4.480  14.796 -1.1409  0.5954  1.3120
10782TIP3   OH253760   3.569   2.992  14.224 -1.1944  0.2540  0.1184
10782TIP3    H153761   3.598   2.977  14.134 -1.9181  1.2941 -0.3093
10782TIP3    H253762   3.545   3.084  14.226 -1.4172  0.1821  1.3201
10783TIP3   OH253763   3.061   1.854  14.788  0.0608  0.1643 -0.6643
10783TIP3    H153764   3.018   1.834  14.704  0.2385 -3.7777  0.0092
10783TIP3    H253765   2.996   1.831  14.854  1.1093 -0.1048  0.2973
10784TIP3   OH253766   2.130   0.188   1.531 -0.3070 -0.5133  0.4107
10784TIP3    H153767   2.036   0.208   1.527 -0.2237 -0.2003 -0.0554
10784TIP3    H253768   2.154   0.204   1.622 -0.8968 -1.4801  0.7504
10785TIP3   OH253769   3.982   2.305  16.927  0.2496  0.1285 -0.3167
10785TIP3    H153770   3.925   2.279  16.854 -0.8710 -1.6278  1.1086
10785TIP3    H253771   3.942   2.385  16.961 -1.3671 -0.9878  0.5613
10786TIP3   OH253772   5.000   3.997   3.184 -0.1573  0.0287 -0.0486
10786TIP3    H153773   5.017   3.916   3.135  0.1783  0.3481 -0.4631
10786TIP3    H253774   4.992   3.968   3.275  1.4372 -0.3054  0.0175
10787TIP3   OH253775   4.644   1.658   3.823  0.0455 -0.1868 -0.1414
10787TIP3    H153776   4.658   1.728   3.887  1.2504  1.4690 -2.0808
10787TIP3    H253777   4.574   1.690   3.766  1.0776 -0.1853 -1.4705
10788TIP3   OH253778   0.806   1.457  12.060 -0.0766  0.4445 -0.0484
10788TIP3    H153779   0.759   1.521  12.007 -1.4832  0.2994  0.9726
10788TIP3    H253780   0.754   1.377  12.052 -1.8736  1.0796  3.5424
10789TIP3   OH253781   6.032   5.022   0.241 -0.7087 -0.1457 -0.1245
10789TIP3    H153782   6.110   5.055   0.196 -0.7061 -1.4461 -1.1328
10789TIP3    H253783   6.061   5.006   0.331 -0.0962  0.3595 -0.2300
10790TIP3   OH253784   6.223   5.248   1.000 -0.2655  0.4879  0.9146
10790TIP3    H153785   6.315   5.238   0.977 -0.6162  1.6572 -1.3346
10790TIP3    H253786   6.224   5.285   1.088  1.5121  2.1093  0.2825
10791TIP3   OH253787   1.221   2.898  13.631 -0.3771  0.3529 -0.0804
10791TIP3    H153788   1.133   2.931  13.612 -0.2330  0.2375 -0.9687
10791TIP3    H253789   1.256   2.960  13.695 -1.5655 -0.3209  1.2900
10792TIP3   OH253790   6.190   2.691   1.458 -0.1335  0.3136 -0.1616
10792TIP3    H153791   6.098   2.666   1.443 -0.2427  0.9829 -0.6042
10792TIP3    H253792   6.185   2.779   1.495  0.2170 -0.5606  2.1627
10793TIP3   OH253793   6.118   6.680   3.169  0.3669  0.4626  0.1821
10793TIP3    H153794   6.048   6.719   3.117 -0.9466 -1.0589  0.6871
10793TIP3    H253795   6.078   6.667   3.255  1.0545 -0.9869  0.3139
10794TIP3   OH253796   4.975   4.987  12.218 -0.5413 -0.0921  0.0224
10794TIP3    H153797   4.917   4.957  12.288  0.9761 -2.0407  0.5337
10794TIP3    H253798   4.918   5.002  12.143 -1.9137 -0.1322  1.0380
10795TIP3   OH253799   0.483   4.436  15.284  0.4940  0.0383 -0.3196
10795TIP3    H153800   0.563   4.438  15.233  0.4220 -1.0431 -0.4906
10795TIP3    H253801   0.434   4.361  15.250 -0.4119  0.4484  0.0435
10796TIP3   OH253802   5.995   4.318   3.268 -0.3135 -0.5171 -0.4015
10796TIP3    H153803   6.019   4.302   3.359  0.5646  1.1347 -0.3038
10796TIP3    H253804   6.014   4.235   3.224 -0.8844 -1.3870  0.9180
10797TIP3   OH253805   2.608   5.541   2.797  0.3195  0.0416 -0.2375
10797TIP3    H153806   2.573   5.453   2.806  0.1096  0.2184  0.7720
10797TIP3    H253807   2.644   5.544   2.708 -1.8548 -0.2748 -1.1920
10798TIP3   OH253808   2.578   2.333   4.888 -0.7540  0.2975  0.3748
10798TIP3    H153809   2.669   2.362   4.892  0.4572 -2.4354 -2.3756
10798TIP3    H253810   2.571   2.266   4.956 -0.4160 -0.0812  0.0442
10799TIP3   OH253811   0.979   6.142  12.445  0.2672  0.8018  0.1229
10799TIP3    H153812   1.028   6.138  12.363  0.8729  0.5123  0.4945
10799TIP3    H253813   1.045   6.162  12.511 -0.2782  1.4638  0.4884
10800TIP3   OH253814   5.583   0.285   5.881 -0.1471 -0.0107  0.0784
10800TIP3    H153815   5.517   0.215   5.883  0.5627 -0.7686 -1.2243
10800TIP3    H253816   5.624   0.282   5.967 -1.2602 -0.0625  0.6236
10801TIP3   OH253817   2.075   6.309   2.462 -0.4030  0.6200  0.6507
10801TIP3    H153818   2.051   6.379   2.402  0.9538  2.0996  1.7426
10801TIP3    H253819   2.053   6.343   2.549  1.5220  0.2852  1.3158
10802TIP3   OH253820   2.792   0.460  12.885  0.7211  0.1556 -0.2911
10802TIP3    H153821   2.791   0.498  12.798 -1.3993 -1.6810 -1.1397
10802TIP3    H253822   2.832   0.374  12.874 -0.8571 -0.6849  0.2333
10803TIP3   OH253823   2.804   5.670  12.312  0.1448 -0.0939 -0.1288
10803TIP3    H153824   2.807   5.731  12.386  0.4697  1.0580 -1.0670
10803TIP3    H253825   2.735   5.705  12.255 -0.0320 -0.9075 -0.4278
10804TIP3   OH253826   4.132   4.115   2.366  0.0233 -0.6799 -0.2399
10804TIP3    H153827   4.220   4.111   2.402  0.1536 -1.2306 -0.6197
10804TIP3    H253828   4.091   4.032   2.391 -0.8321  0.0929  1.0575
10805TIP3   OH253829   1.690   4.237   5.084 -0.2143  0.1577  0.0275
10805TIP3    H153830   1.733   4.248   5.169  1.0768  1.0492 -0.7177
10805TIP3    H253831   1.755   4.263   5.020 -0.8589 -1.3534 -1.3240
10806TIP3   OH253832   5.400   0.989   3.580 -0.0436  0.1547 -0.3517
10806TIP3    H153833   5.374   1.020   3.666  1.0119  0.6226 -0.1750
10806TIP3    H253834   5.472   0.929   3.597  0.9959  1.1829 -0.9413
10807TIP3   OH253835   5.165   2.930  16.851  0.4976  0.3426  0.4152
10807TIP3    H153836   5.080   2.933  16.896  0.0927 -3.5901  0.3190
10807TIP3    H253837   5.221   2.989  16.900 -1.7070  1.3898  1.8408
10808TIP3   OH253838   2.629   3.947   3.613 -0.7007 -0.1836  0.9424
10808TIP3    H153839   2.544   3.949   3.569 -0.5280  0.0375  0.6167
10808TIP3    H253840   2.625   3.869   3.669 -1.0129 -0.3274  0.7229
10809TIP3   OH253841   0.996   5.385   2.835 -0.3415 -0.1082 -0.2755
10809TIP3    H153842   1.009   5.328   2.910 -1.1522 -2.5210 -1.8248
10809TIP3    H253843   1.084   5.413   2.810  0.4685 -2.9642 -1.0244
10810TIP3   OH253844   1.664   2.649   1.187  0.0074  0.2313 -0.4075
10810TIP3    H153845   1.586   2.636   1.134 -1.3718 -0.0297  1.5588
10810TIP3    H253846   1.690   2.560   1.213 -0.8518  0.4473  1.3397
10811TIP3   OH253847   1.916   1.164   4.070 -0.0642 -0.5590 -0.1907
10811TIP3    H153848   1.854   1.231   4.098  0.3971  0.1444 -0.8357
10811TIP3    H253849   1.862   1.095   4.033 -0.4494  0.2506 -1.1682
10812TIP3   OH253850   5.953   0.943   5.591 -0.4921  0.0018  0.6057
10812TIP3    H153851   5.925   1.030   5.622 -2.3562 -0.3589  0.0846
10812TIP3    H253852   5.907   0.882   5.650  1.8034 -0.6811  1.8016
10813TIP3   OH253853   4.097   0.920  15.116 -0.1894  0.2278  0.1763
10813TIP3    H153854   4.100   0.966  15.032 -0.0386 -2.4541 -1.3848
10813TIP3    H253855   4.188   0.911  15.142 -0.2751  2.8039  1.7782
10814TIP3   OH253856   4.206   5.632  15.768 -0.7721  0.1560  0.5948
10814TIP3    H153857   4.288   5.586  15.785 -1.3302 -0.9535  0.4014
10814TIP3    H253858   4.232   5.720  15.741  0.3385 -0.1194  0.7514
10815TIP3   OH253859   0.767   2.996  15.771 -0.1779 -0.6001 -0.0521
10815TIP3    H153860   0.805   3.050  15.701 -1.3161 -0.8715 -0.9283
10815TIP3    H253861   0.678   3.030  15.780  0.6463  1.0776  3.0488
10816TIP3   OH253862   0.859   1.162   0.306 -0.3216 -0.2063  0.0991
10816TIP3    H153863   0.864   1.067   0.292 -2.2200 -0.3648  0.2973
10816TIP3    H253864   0.770   1.185   0.283 -0.1592  1.4051  0.9350
10817TIP3   OH253865   2.405   0.932  14.942 -0.2714 -0.0274 -0.0065
10817TIP3    H153866   2.321   0.963  14.976 -0.6505 -0.1012 -0.8459
10817TIP3    H253867   2.385   0.846  14.904 -0.0080  0.3175 -0.9673
10818TIP3   OH253868   1.175   3.137   5.702 -0.4180  0.2239  0.2356
10818TIP3    H153869   1.082   3.120   5.687  0.0647 -2.8020  0.1582
10818TIP3    H253870   1.221   3.074   5.647  1.6538 -0.0770  2.1476
10819TIP3   OH253871   1.785   3.993  15.722 -0.2261  0.1407 -0.2221
10819TIP3    H153872   1.787   3.990  15.817  0.0359 -0.6045 -0.2426
10819TIP3    H253873   1.862   3.942  15.695 -1.1904 -1.0588 -0.8353
10820TIP3   OH253874   1.557   4.465   5.351 -0.6200 -0.2992 -0.2308
10820TIP3    H153875   1.513   4.550   5.351 -1.6703 -0.7617 -2.5775
10820TIP3    H253876   1.648   4.485   5.328 -0.7304  0.2381 -0.2136
10821TIP3   OH253877   1.685   0.540  13.497 -0.4262 -0.0262 -0.5206
10821TIP3    H153878   1.610   0.600  13.507 -0.9402 -0.9144  1.4120
10821TIP3    H253879   1.761   0.597  13.494 -0.9256  0.7924  1.0534
10822TIP3   OH253880   2.612   2.628   3.282 -0.4059 -0.2745 -0.3244
10822TIP3    H153881   2.620   2.595   3.192 -1.5755 -0.2649 -0.4451
10822TIP3    H253882   2.573   2.555   3.331 -0.9685  0.1637 -0.1115
10823TIP3   OH253883   5.811   5.586  13.876  0.8586 -0.0206  0.1361
10823TIP3    H153884   5.771   5.672  13.883  1.9803  0.4038  2.4190
10823TIP3    H253885   5.796   5.560  13.786 -2.8446  0.8634  0.3316
10824TIP3   OH253886   5.933   1.748   2.495  0.5084 -0.1867  0.7593
10824TIP3    H153887   5.880   1.671   2.475 -0.0771  0.6763 -1.2820
10824TIP3    H253888   6.018   1.729   2.455  0.3892  0.2015  0.3263
10825TIP3   OH253889   0.074   6.328   1.976  1.1010  0.6700 -0.1132
10825TIP3    H153890   0.121   6.381   2.040  1.6658  0.9629 -0.7541
10825TIP3    H253891   0.128   6.332   1.897  0.0212  0.9858 -0.8677
10826TIP3   OH253892   0.264   1.117  11.233 -0.1161 -0.3173 -0.6227
10826TIP3    H153893   0.265   1.080  11.321  0.7691 -0.8325 -0.8370
10826TIP3    H253894   0.223   1.048  11.179 -0.0513 -0.2723 -0.7293
10827TIP3   OH253895   1.328   6.443   1.177  0.4924  0.2027  0.1215
10827TIP3    H153896   1.318   6.520   1.121  0.9250 -0.8672 -1.4743
10827TIP3    H253897   1.248   6.442   1.231 -0.1197  1.0446 -0.7447
10828TIP3   OH253898   1.802   6.127   3.036  0.7391 -0.5772  0.3616
10828TIP3    H153899   1.881   6.124   3.091  0.2994 -2.5087  1.0000
10828TIP3    H253900   1.749   6.196   3.075  1.6311 -0.0102  0.6168
10829TIP3   OH253901   0.675   1.584   3.242 -0.0824 -0.5204  0.0514
10829TIP3    H153902   0.642   1.661   3.289 -0.7199 -0.1412 -0.9767
10829TIP3    H253903   0.702   1.523   3.311  1.2060  0.9297  0.9088
10830TIP3   OH253904   3.268   0.216  13.283  0.7167 -0.4401  0.4934
10830TIP3    H153905   3.199   0.180  13.227  0.5779  0.3475  0.1505
10830TIP3    H253906   3.343   0.228  13.224  0.2097  1.4866  0.1763
10831TIP3   OH253907   2.843   4.424   1.862  0.1270 -0.2037 -1.0857
10831TIP3    H153908   2.778   4.380   1.917  1.5863  0.3262  1.2055
10831TIP3    H253909   2.815   4.406   1.772 -1.1567 -3.0086 -0.2365
10832TIP3   OH253910   3.746   0.695   4.750 -0.2928  0.1067 -0.1726
10832TIP3    H153911   3.705   0.661   4.670 -0.0353  0.4063 -0.4314
10832TIP3    H253912   3.795   0.620   4.785 -0.5061 -0.0599 -0.2248
10833TIP3   OH253913   0.932   0.808  11.689 -0.4202 -0.3415 -0.2329
10833TIP3    H153914   0.923   0.856  11.771 -1.4879  0.3845 -0.7509
10833TIP3    H253915   0.999   0.855  11.640  0.5087 -1.0100  0.3655
10834TIP3   OH253916   6.015   6.600   5.691  0.3559  0.2660 -0.2462
10834TIP3    H153917   6.014   6.505   5.706  0.1280  0.2543 -0.3312
10834TIP3    H253918   6.063   6.611   5.609 -0.9524  0.0971 -1.0651
10835TIP3   OH253919   2.587   2.501  15.324 -0.5594 -0.0495 -0.0310
10835TIP3    H153920   2.525   2.502  15.252  0.1402  1.7085 -0.6510
10835TIP3    H253921   2.645   2.427  15.305 -0.2124  0.5531 -1.4495
10836TIP3   OH253922   3.396   3.068  15.054 -0.1544 -0.2118 -0.1256
10836TIP3    H153923   3.472   3.108  15.013  1.1203 -1.3275  1.0566
10836TIP3    H253924   3.343   3.035  14.981  1.0958 -0.4849 -0.9346
10837TIP3   OH253925   5.245   5.144   2.079 -0.1838 -0.0627  0.2001
10837TIP3    H153926   5.227   5.171   1.989  1.3864 -1.3694 -0.5715
10837TIP3    H253927   5.219   5.052   2.082 -1.2102  0.2317  1.4237
10838TIP3   OH253928   2.369   5.474   4.050 -0.0790 -0.4719  0.2563
10838TIP3    H153929   2.386   5.523   4.130 -1.0922 -1.1178  0.8815
10838TIP3    H253930   2.388   5.383   4.073  1.4954 -0.4591 -0.8072
10839TIP3   OH253931   0.346   3.336   6.114  0.4012 -0.7359 -0.0956
10839TIP3    H153932   0.330   3.422   6.155  1.0149  0.2930 -1.8940
10839TIP3    H253933   0.421   3.301   6.162 -0.7013 -0.9317  1.5758
10840TIP3   OH253934   4.940   4.085  11.400  0.8796 -0.4094 -0.7490
10840TIP3    H153935   4.878   4.014  11.384  0.1604  0.0795 -0.2015
10840TIP3    H253936   5.025   4.041  11.404  0.6002 -1.0718 -1.6367
10841TIP3   OH253937   5.952   1.350   6.145  0.3763  0.6408  0.0639
10841TIP3    H153938   5.994   1.264   6.143 -0.4315  0.2400 -1.2905
10841TIP3    H253939   6.024   1.413   6.135  0.8329  0.0424 -0.4924
10842TIP3   OH253940   6.520   4.569   5.418 -0.0578 -0.1127 -0.5192
10842TIP3    H153941   6.539   4.599   5.507 -2.2422 -1.4599  0.4813
10842TIP3    H253942   6.472   4.642   5.378 -0.4337 -0.0962 -0.0443
10843TIP3   OH253943   2.695   4.787  11.117  0.5150 -0.0712 -0.3571
10843TIP3    H153944   2.653   4.854  11.063  0.7572  0.2981 -0.0832
10843TIP3    H253945   2.728   4.723  11.053  2.3419  1.2250 -0.7920
10844TIP3   OH253946   4.906   5.240  11.180 -0.5269  0.1835  0.0311
10844TIP3    H153947   4.880   5.327  11.149  2.2673  0.8770 -0.6155
10844TIP3    H253948   4.963   5.257  11.254 -0.9674 -1.1938  0.7255
10845TIP3   OH253949   0.966   2.068  11.089  0.6132 -0.2731 -0.2869
10845TIP3    H153950   0.891   2.072  11.030  0.6565 -1.9530 -0.5051
10845TIP3    H253951   1.042   2.064  11.031  0.6793 -1.4578 -0.1553
10846TIP3   OH253952   3.879   2.260  15.534  0.3298  0.0723  0.0128
10846TIP3    H153953   3.787   2.270  15.557  0.5035  0.9617  0.3464
10846TIP3    H253954   3.906   2.345  15.501  1.2341  0.0496  0.6547
10847TIP3   OH253955   3.525   4.675   2.293 -0.0273 -0.4682 -0.0808
10847TIP3    H153956   3.437   4.649   2.264  0.4400  0.4951 -2.6242
10847TIP3    H253957   3.510   4.741   2.360 -1.4194  2.3990 -2.9655
10848TIP3   OH253958   0.843   4.572  11.562 -0.1114 -0.3487 -0.6813
10848TIP3    H153959   0.750   4.552  11.559 -0.6612  1.6451  0.6729
10848TIP3    H253960   0.857   4.633  11.489 -0.1635  0.3356 -0.1301
10849TIP3   OH253961   1.882   3.280  13.121 -0.2228  0.6629  0.1733
10849TIP3    H153962   1.940   3.308  13.192 -0.6742  0.9459  0.4325
10849TIP3    H253963   1.841   3.361  13.090  0.6298  0.6637 -1.0030
10850TIP3   OH253964   0.081   6.064  10.387  0.0555  0.0483  0.0017
10850TIP3    H153965   0.141   6.100  10.451  0.6736 -1.1618  0.1378
10850TIP3    H253966   0.101   5.970  10.385  0.0375  0.0331 -1.9245
10851TIP3   OH253967   4.033   6.664   4.437 -0.4545  0.2577  0.7643
10851TIP3    H153968   4.015   6.571   4.422 -1.5296  0.5615  0.0424
10851TIP3    H253969   4.012   6.677   4.530 -0.7569 -0.1205  0.7556
10852TIP3   OH253970   0.352   4.922  11.078 -0.6140  0.0085  0.1154
10852TIP3    H153971   0.343   4.862  11.004 -0.1670 -0.6222  0.5632
10852TIP3    H253972   0.284   4.989  11.063 -0.3646  0.0345 -0.9842
10853TIP3   OH253973   4.387   1.862  11.412 -0.0118  0.3779  0.3561
10853TIP3    H153974   4.470   1.832  11.376 -0.1281 -0.4054  0.7099
10853TIP3    H253975   4.335   1.886  11.335  0.5376  0.8945  0.1345
10854TIP3   OH253976   3.140   6.013   3.427 -0.7351  0.1196 -0.1261
10854TIP3    H153977   3.164   5.921   3.419 -0.8150  0.1048 -0.2036
10854TIP3    H253978   3.133   6.043   3.336 -2.1576 -0.1744 -0.1379
10855TIP3   OH253979   2.807   5.887  16.725  0.1406 -0.4689 -0.5828
10855TIP3    H153980   2.836   5.945  16.795 -0.6170  0.5033 -1.0567
10855TIP3    H253981   2.816   5.939  16.645  1.0149 -1.5632 -1.2341
10856TIP3   OH253982   1.824   3.827   1.814  0.1573  0.1985  0.0104
10856TIP3    H153983   1.790   3.739   1.794  1.0278 -0.1731  0.1097
10856TIP3    H253984   1.880   3.848   1.739 -0.7806  1.0688 -0.4549
10857TIP3   OH253985   4.140   0.240   3.529  0.1597 -0.2085 -0.2284
10857TIP3    H153986   4.170   0.160   3.572 -0.3930 -0.4771 -0.3339
10857TIP3    H253987   4.210   0.303   3.543  0.1660 -0.4168  0.7175
10858TIP3   OH253988   2.414   5.200  12.562  0.1953 -0.0292 -0.5862
10858TIP3    H153989   2.417   5.117  12.610  0.0873  0.3078  0.0096
10858TIP3    H253990   2.322   5.226  12.565  0.0370 -0.4216 -1.7041
10859TIP3   OH253991   5.233   6.710  14.180  0.6739  0.0781  0.1433
10859TIP3    H153992   5.219   6.698  14.274  1.3980 -2.8412 -0.0267
10859TIP3    H253993   5.210   6.625  14.141 -0.7495  1.5405 -2.5149
10860TIP3   OH253994   3.667   2.529   1.240  0.3396  0.6687 -0.5662
10860TIP3    H153995   3.748   2.566   1.273  0.2355  0.1618  0.3102
10860TIP3    H253996   3.599   2.592   1.265  0.5162  1.3584 -1.7808
10861TIP3   OH253997   3.859   4.015  14.466  0.2943  0.0304  0.1012
10861TIP3    H153998   3.829   4.101  14.435  2.2133  0.1212 -1.7450
10861TIP3    H253999   3.940   4.034  14.514  0.0382 -0.6351  0.7997
10862TIP3   OH254000   5.447   0.941  13.432 -0.1301  0.1532  0.3887
10862TIP3    H154001   5.499   1.002  13.484  0.5315 -0.1637  0.0992
10862TIP3    H254002   5.511   0.890  13.384 -0.6970 -0.5043  0.3273
10863TIP3   OH254003   6.708   1.994   1.672 -0.1157 -0.0316  0.1668
10863TIP3    H154004   6.800   2.012   1.652 -0.2971  0.3076 -0.3782
10863TIP3    H254005   6.677   2.074   1.715 -0.6827  0.6452 -1.4473
10864TIP3   OH254006   5.624   2.367  14.517 -0.3099  0.5939  0.2464
10864TIP3    H154007   5.720   2.377  14.517 -0.5116  3.4624 -0.4085
10864TIP3    H254008   5.602   2.340  14.428 -0.1484  0.7185  0.1674
10865TIP3   OH254009   5.485   2.581   1.004 -0.0191 -0.0936  0.0500
10865TIP3    H154010   5.520   2.600   0.917 -1.5165  3.1769  0.0144
10865TIP3    H254011   5.557   2.537   1.050  2.6566  2.5037 -1.3170
10866TIP3   OH254012   0.589   0.670  16.972 -0.4331 -0.4178  0.5904
10866TIP3    H154013   0.513   0.718  16.940 -0.0079 -0.4384 -0.4773
10866TIP3    H254014   0.646   0.738  17.011  0.6755  0.1806 -1.8802
10867TIP3   OH254015   0.660   4.590  13.020 -0.5042 -0.1634 -0.2830
10867TIP3    H154016   0.659   4.684  13.040  1.2789 -0.3587  0.9575
10867TIP3    H254017   0.570   4.562  13.036 -1.3545  1.5082 -1.7461
10868TIP3   OH254018   6.188   2.728  17.107 -0.4407  0.1160 -0.3037
10868TIP3    H154019   6.278   2.742  17.137 -0.5964  0.4414  0.0053
10868TIP3    H254020   6.185   2.770  17.021 -0.0060 -0.7884 -0.7752
10869TIP3   OH254021   0.208   1.323  12.451  0.1330 -0.1716 -0.2069
10869TIP3    H154022   0.121   1.350  12.480 -0.3232  0.7911 -2.2745
10869TIP3    H254023   0.192   1.256  12.385  1.0294 -0.8908  0.2833
10870TIP3   OH254024   5.610   3.173   4.285  0.8787 -0.2320  0.1588
10870TIP3    H154025   5.664   3.107   4.242 -1.5343 -1.0967 -1.8433
10870TIP3    H254026   5.610   3.247   4.224 -0.5368 -0.4712 -0.1832
10871TIP3   OH254027   3.544   0.549   0.504  0.6122 -0.0143  0.5986
10871TIP3    H154028   3.616   0.491   0.529  0.7214 -0.3637 -0.5037
10871TIP3    H254029   3.580   0.604   0.435 -0.4228 -0.8303 -0.6494
10872TIP3   OH254030   1.893   4.543  17.035 -0.2088 -0.1677 -0.3898
10872TIP3    H154031   1.831   4.518  17.103  1.5584  1.5269  1.9886
10872TIP3    H254032   1.956   4.471  17.034  0.5145  0.4286  0.7878
10873TIP3   OH254033   2.295   6.538   5.662  0.2725 -0.4155  0.1460
10873TIP3    H154034   2.269   6.544   5.754  1.8343 -2.3349  0.7905
10873TIP3    H254035   2.219   6.568   5.614 -1.2919 -1.0983  2.0439
10874TIP3   OH254036   0.075   6.370  13.815 -0.2695 -0.5480  0.2646
10874TIP3    H154037   0.095   6.422  13.893  1.4411 -2.1386  0.9781
10874TIP3    H254038   0.005   6.311  13.844 -2.0546  1.0983 -0.4805
10875TIP3   OH254039   5.163   5.806  11.304 -0.5447 -0.4478 -0.4322
10875TIP3    H154040   5.099   5.877  11.303 -2.2023 -1.8734 -0.1970
10875TIP3    H254041   5.165   5.773  11.215  0.4988  0.0788 -0.6292
10876TIP3   OH254042   1.367   5.704   3.802  0.0424 -0.4260  0.2905
10876TIP3    H154043   1.274   5.719   3.789  0.0648 -1.6979 -1.8537
10876TIP3    H254044   1.410   5.767   3.744  0.6365  1.2357  2.4140
10877TIP3   OH254045   1.998   4.975  15.846 -0.4588 -0.3044 -0.3765
10877TIP3    H154046   1.926   4.939  15.897  0.5710 -0.5878  0.9181
10877TIP3    H254047   1.974   5.067  15.832 -1.9640 -0.8444 -1.6516
10878TIP3   OH254048   5.456   0.326   5.109  0.1516  0.0637  0.1712
10878TIP3    H154049   5.398   0.363   5.176  0.1993  0.2804  0.0935
10878TIP3    H254050   5.473   0.399   5.049  1.2700  0.2536  0.7036
10879TIP3   OH254051   0.365   4.823  13.380  0.6043  0.1093  0.4018
10879TIP3    H154052   0.381   4.763  13.307 -0.3561 -0.2890  0.4968
10879TIP3    H254053   0.269   4.830  13.384  0.6262 -0.1931  1.8638
10880TIP3   OH254054   6.015   3.787  12.129  0.0507 -0.4065  0.2417
10880TIP3    H154055   5.940   3.785  12.188 -0.1566  1.5120  0.1053
10880TIP3    H254056   6.058   3.870  12.148 -0.1021  0.3663 -2.3629
10881TIP3   OH254057   5.113   1.704   4.489  0.3676 -0.4653  0.1619
10881TIP3    H154058   5.205   1.724   4.473  0.5619  0.6011  2.2767
10881TIP3    H254059   5.112   1.612   4.517  0.5012 -1.0742 -1.7046
10882TIP3   OH254060   5.079   3.320   1.587  0.3278  0.8785  0.6799
10882TIP3    H154061   5.026   3.392   1.620  2.5885  2.8949  0.2255
10882TIP3    H254062   5.168   3.342   1.614  1.1313 -1.7514  0.4491
10883TIP3   OH254063   2.550   2.065   2.675 -0.2381  0.0401  0.4369
10883TIP3    H154064   2.467   2.017   2.670 -0.7479  0.6928  1.9744
10883TIP3    H254065   2.526   2.156   2.658  0.1317  0.2526  1.0173
10884TIP3   OH254066   4.073   3.850  16.944 -0.1382 -0.2578  0.1716
10884TIP3    H154067   3.979   3.868  16.934  0.1223  1.3267  0.3087
10884TIP3    H254068   4.081   3.756  16.927 -1.5530 -0.1616 -1.2927
10885TIP3   OH254069   2.555   5.453  16.815  0.2700 -0.4236 -0.3569
10885TIP3    H154070   2.567   5.541  16.849 -2.0071 -0.0335 -0.3957
10885TIP3    H254071   2.592   5.456  16.726 -0.1021  0.6090 -0.4879
10886TIP3   OH254072   0.453   0.076   2.204 -0.1705  0.5129 -0.1804
10886TIP3    H154073   0.500   0.128   2.139 -0.7042  0.7648 -0.3688
10886TIP3    H254074   0.426   0.138   2.271  0.4399  0.2423  0.3264
10887TIP3   OH254075   5.022   2.303  14.081 -0.2756 -0.0537  0.0101
10887TIP3    H154076   4.930   2.297  14.107 -0.3353 -1.1682 -0.3920
10887TIP3    H254077   5.071   2.273  14.158 -0.2927 -0.1626 -0.0203
10888TIP3   OH254078   4.702   2.958   4.471  0.3830  0.2118 -0.0623
10888TIP3    H154079   4.634   3.025   4.463  0.7493  0.5429 -0.4620
10888TIP3    H254080   4.772   3.001   4.521  0.1382 -0.2590  0.7111
10889TIP3   OH254081   2.092   0.463  11.665 -0.0612 -0.2370  0.4454
10889TIP3    H154082   2.072   0.552  11.692 -1.6131 -0.5335  0.4188
10889TIP3    H254083   2.101   0.414  11.746  2.1260  0.1523  0.5010
10890TIP3   OH254084   2.792   2.567  13.752  0.0010  0.1520 -0.1387
10890TIP3    H154085   2.820   2.478  13.771 -1.9715 -0.2763  1.0130
10890TIP3    H254086   2.715   2.557  13.696  0.5650  1.1917 -1.1454
10891TIP3   OH254087   2.216   0.347  13.238 -0.4129 -0.0405  0.1460
10891TIP3    H154088   2.309   0.347  13.218 -0.3750  1.5132  0.2062
10891TIP3    H254089   2.192   0.255  13.243  0.6771 -0.4900 -1.9055
10892TIP3   OH254090   6.733   4.857   0.657  0.1893  0.5469  0.5819
10892TIP3    H154091   6.749   4.950   0.643  0.2460  0.4371 -0.1209
10892TIP3    H254092   6.802   4.813   0.606 -0.8205  0.1018 -0.4414
10893TIP3   OH254093   1.144   3.439   3.028  0.5959 -0.2007  0.4135
10893TIP3    H154094   1.101   3.405   2.950 -0.1023  0.7690  0.3619
10893TIP3    H254095   1.168   3.361   3.079 -0.5370 -0.7803  0.0724
10894TIP3   OH254096   0.867   0.826   0.317  0.7193 -0.1194 -0.1879
10894TIP3    H154097   0.919   0.746   0.306  0.3838 -0.3625 -0.0101
10894TIP3    H254098   0.778   0.800   0.293  0.4760  0.0189  0.5611
10895TIP3   OH254099   4.999   4.183  12.121 -0.8232 -0.1359  0.3065
10895TIP3    H154100   4.948   4.264  12.119 -2.1029 -0.8454  1.9137
10895TIP3    H254101   5.084   4.210  12.156 -1.9533  0.2481  3.0269
10896TIP3   OH254102   4.848   3.789   0.666 -0.1063 -0.1961 -0.9790
10896TIP3    H154103   4.822   3.770   0.576 -0.2099 -1.4232 -0.7020
10896TIP3    H254104   4.888   3.708   0.698 -0.2734  0.1425  0.1499
10897TIP3   OH254105   6.073   5.908  13.907 -0.5576  0.0449 -0.0459
10897TIP3    H154106   6.087   5.902  14.002 -0.6068 -0.0981 -0.0480
10897TIP3    H254107   6.091   6.000  13.886  0.7176 -0.1925 -0.0994
10898TIP3   OH254108   3.507   5.903   3.905 -0.4401 -0.4850 -0.2498
10898TIP3    H154109   3.414   5.920   3.891 -0.2045  1.0805 -0.0845
10898TIP3    H254110   3.551   5.974   3.858  0.7000 -1.5422 -0.8178
10899TIP3   OH254111   3.604   0.717   6.289 -0.0614  0.6348  0.5066
10899TIP3    H154112   3.686   0.672   6.271 -0.0495  0.6635  0.4893
10899TIP3    H254113   3.536   0.654   6.266 -0.0512  0.7903  0.0391
10900TIP3   OH254114   2.413   0.658   0.032  0.1957 -0.0750  0.6687
10900TIP3    H154115   2.363   0.659   0.114 -0.7094 -0.3150  0.1305
10900TIP3    H254116   2.500   0.692   0.056 -0.3739  0.8288  1.5135
10901TIP3   OH254117   1.316   1.411  15.634  0.4080  0.6110 -0.5306
10901TIP3    H154118   1.351   1.458  15.559 -0.5623  1.0071 -0.7621
10901TIP3    H254119   1.221   1.408  15.618  0.3555 -0.6485 -0.0710
10902TIP3   OH254120   2.852   2.629  17.129  0.0241 -0.3685 -0.2849
10902TIP3    H154121   2.925   2.661  17.076  0.3491 -0.8833 -0.1500
10902TIP3    H254122   2.796   2.706  17.142 -0.7341 -0.4920 -2.4358
10903TIP3   OH254123   2.532   2.757  14.086  0.5993  0.1987  0.1905
10903TIP3    H154124   2.567   2.820  14.023 -1.2313 -0.4702 -1.6155
10903TIP3    H254125   2.596   2.686  14.088  0.4131 -0.0576 -1.4561
10904TIP3   OH254126   5.512   1.124  15.187 -0.6460  0.0415 -0.2886
10904TIP3    H154127   5.484   1.161  15.104 -1.5249  0.1379  0.0419
10904TIP3    H254128   5.497   1.194  15.251  1.0795  0.3826 -0.1958
10905TIP3   OH254129   2.479   4.733  14.701 -1.0156 -0.3870  0.1206
10905TIP3    H154130   2.497   4.641  14.723  2.4020 -0.2085 -1.2971
10905TIP3    H254131   2.469   4.733  14.606  2.1508  0.9539 -0.3462
10906TIP3   OH254132   5.631   1.693   5.236 -0.3770 -0.5278  0.0900
10906TIP3    H154133   5.536   1.684   5.247 -0.3535 -0.2118  0.5862
10906TIP3    H254134   5.659   1.746   5.312  0.1556 -0.4045 -0.1884
10907TIP3   OH254135   5.561   2.941  14.975 -0.3612  0.1741 -0.3421
10907TIP3    H154136   5.494   2.935  14.907  1.0056  0.7116 -1.8057
10907TIP3    H254137   5.601   3.027  14.961  1.1629 -0.4548 -0.0612
10908TIP3   OH254138   6.697   0.747  15.613 -0.0395 -0.3854 -0.3618
10908TIP3    H154139   6.744   0.663  15.606 -0.4547 -0.8477  1.8239
10908TIP3    H254140   6.609   0.723  15.642 -0.1263  0.8021  0.4217
10909TIP3   OH254141   5.181   3.592  11.400 -0.4147 -0.0805 -0.2740
10909TIP3    H154142   5.259   3.629  11.441 -0.7483  2.8439 -1.9425
10909TIP3    H254143   5.189   3.498  11.413  2.8485  0.1785  0.4992
10910TIP3   OH254144   0.832   1.876  16.104  0.2403  0.2656 -0.1566
10910TIP3    H154145   0.783   1.833  16.174 -1.4313 -0.0407 -1.4312
10910TIP3    H254146   0.779   1.861  16.026  2.6551 -0.5167 -1.7546
10911TIP3   OH254147   5.344   1.020   3.847  0.0129  0.0126 -0.1278
10911TIP3    H154148   5.416   1.082   3.862  0.2629  0.1023 -1.5424
10911TIP3    H254149   5.325   0.983   3.933 -0.0667  1.9771  0.7407
10912TIP3   OH254150   3.049   0.931  12.071  0.2441 -0.0784  0.3048
10912TIP3    H154151   3.126   0.985  12.055  0.3090 -0.1772  0.2850
10912TIP3    H254152   3.028   0.892  11.986 -0.2875  0.5501  0.1377
10913TIP3   OH254153   6.550   6.434   3.932  0.2394 -0.1257 -0.5916
10913TIP3    H154154   6.607   6.447   4.007  0.4339  0.1229 -0.7778
10913TIP3    H254155   6.494   6.361   3.956  2.8254 -2.6564 -1.6663
10914TIP3   OH254156   4.346   6.478   4.880 -0.4477  0.3051  0.1692
10914TIP3    H154157   4.366   6.395   4.922  0.5355  0.0521 -0.7741
10914TIP3    H254158   4.252   6.491   4.896 -0.8021 -1.3894 -0.3824
10915TIP3   OH254159   6.467   2.168   1.165  0.1480  0.2138 -0.1795
10915TIP3    H154160   6.485   2.158   1.258  0.7009 -0.6136 -0.3602
10915TIP3    H254161   6.372   2.158   1.157  0.2378 -1.1549  0.1482
10916TIP3   OH254162   0.859   0.228   2.981  0.7288  0.1583 -0.3249
10916TIP3    H154163   0.826   0.246   2.893  0.6791  1.0682 -0.1275
10916TIP3    H254164   0.781   0.203   3.031  0.6704  0.2168 -0.3873
10917TIP3   OH254165   1.045   6.634  16.608 -0.0061  0.2721  0.0421
10917TIP3    H154166   1.114   6.698  16.624 -0.8214  0.9432  1.0076
10917TIP3    H254167   1.091   6.554  16.584  1.0292  1.3935 -1.9800
10918TIP3   OH254168   1.799   2.366   4.310 -0.3575  0.0030  0.6912
10918TIP3    H154169   1.761   2.410   4.234 -2.8245 -1.9104  0.6865
10918TIP3    H254170   1.871   2.314   4.275  0.3364  1.2770  0.1672
10919TIP3   OH254171   4.744   1.510  12.264  0.5271 -0.0349 -0.7631
10919TIP3    H154172   4.705   1.431  12.300  1.0106  0.0256 -0.1008
10919TIP3    H254173   4.834   1.510  12.296  0.6459  0.5844 -1.0750
10920TIP3   OH254174   4.319   0.996   0.191 -0.4734  0.0136  0.1042
10920TIP3    H154175   4.269   1.057   0.137 -1.0374 -0.3949  0.1526
10920TIP3    H254176   4.358   0.935   0.129 -0.4045  0.0669  0.0958
10921TIP3   OH254177   1.595   3.982  14.493 -0.1412 -0.1570 -0.0027
10921TIP3    H154178   1.516   4.032  14.474  0.1336  0.5813  0.7639
10921TIP3    H254179   1.613   3.998  14.586  1.6794  0.8259 -0.4719
10922TIP3   OH254180   0.384   4.231   5.135  0.1219 -0.2780  0.2077
10922TIP3    H154181   0.465   4.224   5.186  0.1907 -1.0815 -0.0007
10922TIP3    H254182   0.402   4.181   5.055 -0.3987 -0.0181 -0.0784
10923TIP3   OH254183   5.673   4.115   4.026 -0.0860 -0.7069  0.0346
10923TIP3    H154184   5.606   4.175   4.060 -0.2386  0.2113 -1.7422
10923TIP3    H254185   5.756   4.152   4.057 -0.2101  0.1873 -0.6435
10924TIP3   OH254186   3.408   6.620  14.919 -0.7371  0.2634  0.2004
10924TIP3    H154187   3.416   6.541  14.866 -0.7530 -0.4265  1.1956
10924TIP3    H254188   3.456   6.601  14.999  1.7400  2.3455 -0.6667
10925TIP3   OH254189   1.920   1.984  11.223 -0.4579  0.3237  0.4054
10925TIP3    H154190   1.841   1.931  11.216  0.0297 -0.2316 -1.5044
10925TIP3    H254191   1.990   1.921  11.242  0.0116  0.3007 -1.2016
10926TIP3   OH254192   5.336   4.635  16.841 -0.7552 -0.8960 -0.6049
10926TIP3    H154193   5.407   4.655  16.781 -1.8956 -0.5451 -1.8997
10926TIP3    H254194   5.355   4.687  16.919 -0.0985 -0.0676 -1.2978
10927TIP3   OH254195   2.834   5.160  15.987  0.2534  0.0099  0.2829
10927TIP3    H154196   2.745   5.194  15.991 -0.4659 -0.9833 -3.5160
10927TIP3    H254197   2.827   5.080  15.935  3.3120 -0.4653  0.3973
10928TIP3   OH254198   5.602   2.450   1.642 -1.2900  0.3884  0.0274
10928TIP3    H154199   5.692   2.419   1.645 -1.6618 -1.1862 -2.4835
10928TIP3    H254200   5.574   2.451   1.734  0.8056 -0.4809  0.7410
10929TIP3   OH254201   2.777   2.075  11.231 -0.1932 -0.1738 -0.3017
10929TIP3    H154202   2.823   2.000  11.192  1.5378  0.5579  0.2446
10929TIP3    H254203   2.718   2.036  11.295 -0.3829 -1.1530 -1.0503
10930TIP3   OH254204   0.547   3.122   5.211 -0.5738 -0.1422  0.3600
10930TIP3    H154205   0.569   3.210   5.179 -0.4421  0.1289  1.1686
10930TIP3    H254206   0.551   3.130   5.306 -0.3412 -1.0863  0.4345
10931TIP3   OH254207   4.057   0.125   2.114 -0.4701  0.0147  0.1184
10931TIP3    H154208   3.992   0.065   2.149  0.7325 -0.3838  1.7895
10931TIP3    H254209   4.010   0.208   2.103 -1.5985 -0.6431 -0.1044
10932TIP3   OH254210   1.368   2.747   6.256 -0.4830  0.1138 -0.0208
10932TIP3    H154211   1.334   2.671   6.209 -0.5700  1.1711 -1.7877
10932TIP3    H254212   1.436   2.783   6.198  3.0411 -1.2532  2.8340
10933TIP3   OH254213   3.290   3.762  15.757  0.3315 -0.5163  0.3853
10933TIP3    H154214   3.204   3.802  15.750  0.6779  0.1400 -0.2269
10933TIP3    H254215   3.349   3.835  15.776  1.1282 -0.5213 -1.7459
10934TIP3   OH254216   3.791   2.378   2.460 -0.5808 -0.1889  0.1283
10934TIP3    H154217   3.774   2.415   2.374  0.4584  0.4731  0.1784
10934TIP3    H254218   3.776   2.450   2.521  0.7316 -0.0195  0.2967
10935TIP3   OH254219   4.216   2.455   5.005 -0.0497 -0.1647 -0.5524
10935TIP3    H154220   4.286   2.519   5.018 -0.4467 -0.0393  1.2459
10935TIP3    H254221   4.257   2.386   4.952  0.8549  0.7936 -1.1470
10936TIP3   OH254222   0.737   5.201   4.995  0.0164 -0.1308  0.2021
10936TIP3    H154223   0.782   5.217   5.078  1.3887  1.3590 -0.7643
10936TIP3    H254224   0.801   5.225   4.928 -0.6605 -2.3571 -1.3400
10937TIP3   OH254225   6.429   0.963  12.166 -0.0001 -0.3114 -0.9145
10937TIP3    H154226   6.516   1.003  12.169  0.1030 -0.5147 -1.1670
10937TIP3    H254227   6.377   1.021  12.110  0.0795 -0.3973 -1.0768
10938TIP3   OH254228   5.446   1.594  14.664  0.2055 -0.3272  0.6202
10938TIP3    H154229   5.410   1.507  14.645 -1.0549  0.1708  0.6480
10938TIP3    H254230   5.371   1.653  14.656  1.0930  0.7949  0.3896
10939TIP3   OH254231   4.432   4.778   1.803 -0.1406 -0.4821 -0.4740
10939TIP3    H154232   4.455   4.793   1.711 -1.2673 -0.9228 -0.8534
10939TIP3    H254233   4.337   4.762   1.801 -0.0237 -1.4363  0.6463
10940TIP3   OH254234   5.831   6.073  13.753 -0.3037 -0.2037  0.3522
10940TIP3    H154235   5.902   6.134  13.778 -0.6826  1.1288 -1.6279
10940TIP3    H254236   5.877   5.996  13.718  0.2008  0.4421 -0.4516
10941TIP3   OH254237   3.693   3.224  12.717 -0.0887  0.0322  0.2505
10941TIP3    H154238   3.664   3.168  12.645 -2.0440 -0.5385  1.4082
10941TIP3    H254239   3.616   3.234  12.772  0.5186  2.9619  0.7022
10942TIP3   OH254240   1.151   5.090  10.782 -0.6445 -0.0517  0.5948
10942TIP3    H154241   1.219   5.121  10.841  0.2455 -1.5539  0.4157
10942TIP3    H254242   1.074   5.144  10.803  0.2778  0.9268  1.5630
10943TIP3   OH254243   2.898   3.718  15.993 -0.2175  0.5241  0.5665
10943TIP3    H154244   2.844   3.685  15.921  0.8489  1.2386 -0.6087
10943TIP3    H254245   2.860   3.803  16.016  1.3095  1.8384 -1.4213
10944TIP3   OH254246   0.415   0.881   3.244  0.3558 -0.4670 -0.0748
10944TIP3    H154247   0.345   0.848   3.300  2.3837  0.5723  3.3209
10944TIP3    H254248   0.370   0.909   3.164 -2.6367 -2.5186  0.7158
10945TIP3   OH254249   4.860   1.345  11.186 -0.1483 -0.1514  0.2370
10945TIP3    H154250   4.909   1.407  11.133 -0.6336 -1.0049 -1.2812
10945TIP3    H254251   4.768   1.372  11.175 -0.2155  0.0181  1.1409
10946TIP3   OH254252   2.027   5.917  11.364  0.1491 -0.6315 -0.4062
10946TIP3    H154253   2.071   5.843  11.406 -1.2660 -0.7048  1.0563
10946TIP3    H254254   2.048   5.908  11.271 -0.2884 -3.1052 -0.3385
10947TIP3   OH254255   2.581   5.383   5.601 -0.0611 -0.3664 -0.7085
10947TIP3    H154256   2.557   5.409   5.512 -1.8545  1.0363  0.1102
10947TIP3    H254257   2.516   5.426   5.657  1.3039 -0.8025  1.3334
10948TIP3   OH254258   0.527   6.483  16.569 -0.7243 -0.0064  0.3962
10948TIP3    H154259   0.539   6.395  16.533 -1.3202  0.7647 -1.8550
10948TIP3    H254260   0.592   6.489  16.639  0.9005 -1.4469 -0.8877
10949TIP3   OH254261   3.228   0.437  16.668 -0.0592 -0.0380 -0.0726
10949TIP3    H154262   3.260   0.396  16.588 -0.3144  2.1895 -1.3733
10949TIP3    H254263   3.137   0.460  16.649  0.2534  1.6700  0.3739
10950TIP3   OH254264   3.460   4.796   0.793  0.0982 -0.4137  0.4284
10950TIP3    H154265   3.488   4.818   0.704 -0.4932 -0.9729  0.0943
10950TIP3    H254266   3.390   4.859   0.812  0.1314 -0.3828  0.4497
10951TIP3   OH254267   2.801   1.810  15.573  0.4938 -0.1970  0.0780
10951TIP3    H154268   2.728   1.871  15.576  0.1212 -0.6759  1.6836
10951TIP3    H254269   2.846   1.822  15.657  0.8542 -1.5815  0.1070
10952TIP3   OH254270   0.482   0.787   1.711  0.7563 -0.2446 -0.0776
10952TIP3    H154271   0.557   0.764   1.765 -0.1588 -1.5157  0.7174
10952TIP3    H254272   0.447   0.867   1.751 -0.0574 -1.3023  1.4462
10953TIP3   OH254273   2.867   0.390   5.400 -0.5123  0.6212  0.1304
10953TIP3    H154274   2.894   0.372   5.310  1.8940 -1.1939  1.0763
10953TIP3    H254275   2.931   0.455   5.431 -1.5455  1.5127  0.4599
10954TIP3   OH254276   1.392   2.195  13.879  0.0040 -0.1981  0.1150
10954TIP3    H154277   1.384   2.201  13.974 -0.3572  1.1048  0.0230
10954TIP3    H254278   1.343   2.271  13.846 -1.3357 -1.5515 -1.1847
10955TIP3   OH254279   1.801   2.240   4.637  0.1237  0.5462 -0.4204
10955TIP3    H154280   1.735   2.185   4.595  1.0864  0.2036 -1.5336
10955TIP3    H254281   1.877   2.182   4.649  1.3298  1.6813 -2.0541
10956TIP3   OH254282   4.092   5.646  16.323 -0.4919 -0.6633  0.0090
10956TIP3    H154283   3.999   5.630  16.335 -0.3378 -1.9789 -0.3654
10956TIP3    H254284   4.117   5.589  16.250  0.9400 -1.6359  1.1835
10957TIP3   OH254285   4.727   6.420   0.455  0.8740 -0.0250 -0.3991
10957TIP3    H154286   4.657   6.386   0.512  0.6657  1.0190 -0.0086
10957TIP3    H254287   4.805   6.420   0.511  0.5975  1.3231  0.0310
10958TIP3   OH254288   0.422   6.169  11.825  0.3072  0.9736  0.0133
10958TIP3    H154289   0.451   6.081  11.849 -2.1809 -0.4408 -1.7158
10958TIP3    H254290   0.335   6.178  11.865 -1.3578  0.8331 -3.1809
10959TIP3   OH254291   4.068   1.190   0.485 -0.1286 -0.2782 -0.2283
10959TIP3    H154292   4.027   1.197   0.398 -0.6849 -0.3194  0.0253
10959TIP3    H254293   4.111   1.104   0.484 -3.2769 -2.0367  0.8146
10960TIP3   OH254294   3.972   1.557   5.698  0.3974 -0.1575 -0.1836
10960TIP3    H154295   3.901   1.614   5.728  0.6997  0.2350 -0.2085
10960TIP3    H254296   4.042   1.617   5.673 -0.1466 -0.4063 -2.5466
10961TIP3   OH254297   2.317   2.981   0.902 -0.3733  0.0098  0.3345
10961TIP3    H154298   2.368   3.044   0.953 -0.6811 -0.7995  1.6911
10961TIP3    H254299   2.264   3.035   0.843 -0.6007  1.0389  1.4371
10962TIP3   OH254300   1.155   1.684   6.796  0.7938 -0.1558  0.1749
10962TIP3    H154301   1.094   1.634   6.743 -0.0045 -0.3170  1.2015
10962TIP3    H254302   1.102   1.752   6.837  1.1262 -0.7092  1.6213
10963TIP3   OH254303   6.041   5.884  14.197  0.1467 -0.0789 -0.0417
10963TIP3    H154304   5.973   5.817  14.199 -0.6257  0.4453 -3.0567
10963TIP3    H254305   6.123   5.835  14.193 -0.1440 -0.7439  1.5444
10964TIP3   OH254306   5.881   5.160  12.295  0.6150  0.1931 -0.2931
10964TIP3    H154307   5.797   5.202  12.276  0.1423 -1.2827 -1.6260
10964TIP3    H254308   5.885   5.159  12.391 -0.1156  1.7086 -0.2036
10965TIP3   OH254309   6.481   1.271   2.248 -0.0024  0.4876 -0.2360
10965TIP3    H154310   6.465   1.339   2.182 -0.3466  0.1140 -0.5482
10965TIP3    H254311   6.544   1.212   2.206 -0.5883 -0.0137 -0.4249
10966TIP3   OH254312   0.419   2.484  14.035  0.2089  0.3292 -0.0602
10966TIP3    H154313   0.506   2.479  13.994  0.5223 -0.8115  0.6922
10966TIP3    H254314   0.410   2.576  14.060 -0.1701  1.1990 -2.9582
10967TIP3   OH254315   3.088   0.154  13.061  0.6663 -0.7295  0.4053
10967TIP3    H154316   2.993   0.141  13.055  0.3514  1.5733 -0.4482
10967TIP3    H254317   3.124   0.082  13.009 -0.7245 -0.4644 -1.0276
10968TIP3   OH254318   3.617   6.323   6.112  0.4884 -0.0167  0.2352
10968TIP3    H154319   3.597   6.230   6.123 -0.5333  0.3189  1.4984
10968TIP3    H254320   3.712   6.328   6.123  0.7417 -1.0576 -1.1676
10969TIP3   OH254321   1.937   2.875   3.468  0.2845 -0.1675 -0.2006
10969TIP3    H154322   1.936   2.884   3.373  2.3573  1.5394 -0.1455
10969TIP3    H254323   1.914   2.962   3.500 -0.6700 -0.7944  0.8877
10970TIP3   OH254324   4.420   5.895  13.568 -0.4441  0.0727 -0.1347
10970TIP3    H154325   4.349   5.910  13.630  0.0557  0.0212  0.4522
10970TIP3    H254326   4.407   5.805  13.538 -1.1938  0.3821 -0.7701
10971TIP3   OH254327   6.405   3.562   2.984 -0.0466 -0.2213 -0.6315
10971TIP3    H154328   6.463   3.520   2.921  0.9797  1.3375 -0.7623
10971TIP3    H254329   6.457   3.631   3.023 -0.6600 -1.0944  1.9471
10972TIP3   OH254330   3.591   4.326  14.095 -0.6935 -0.2490 -0.2253
10972TIP3    H154331   3.547   4.248  14.061 -1.0895  0.2349 -0.8394
10972TIP3    H254332   3.665   4.340  14.036  0.2636 -1.0116  0.7549
10973TIP3   OH254333   3.827   0.877  14.138  0.4010 -0.0126 -0.7528
10973TIP3    H154334   3.769   0.950  14.116  2.2695  1.4097 -1.3155
10973TIP3    H254335   3.785   0.800  14.101 -1.1365  0.9298 -1.0522
10974TIP3   OH254336   5.760   0.380  11.072  0.3411  0.0643  0.1373
10974TIP3    H154337   5.717   0.297  11.050  1.1569 -0.2802 -0.1751
10974TIP3    H254338   5.792   0.413  10.989  0.8089  0.2425  0.3864
10975TIP3   OH254339   5.235   4.191  14.087 -0.2697  0.6551 -0.2132
10975TIP3    H154340   5.241   4.153  14.000 -1.0604  0.1692 -0.0665
10975TIP3    H254341   5.263   4.281  14.076 -0.6750  0.6869 -1.0336
10976TIP3   OH254342   6.444   4.360   6.780  0.4873  0.1532  0.3196
10976TIP3    H154343   6.483   4.446   6.766 -0.0858  0.4358  0.4346
10976TIP3    H254344   6.374   4.355   6.716  1.2828 -0.7210 -0.5033
10977TIP3   OH254345   3.887   1.254   3.379  0.4116 -0.2826 -0.3085
10977TIP3    H154346   3.946   1.180   3.362  1.3719  0.1443  0.9668
10977TIP3    H254347   3.799   1.217   3.374  0.8801 -2.1188  2.5289
10978TIP3   OH254348   1.084   0.187   0.038  0.3468  0.1178  0.6657
10978TIP3    H154349   0.994   0.184   0.070  0.2353  1.5051  0.5083
10978TIP3    H254350   1.079   0.233  -0.046  1.1955  0.1548  0.6270
10979TIP3   OH254351   6.150   5.169   3.157  0.0359 -0.2024 -0.0931
10979TIP3    H154352   6.182   5.137   3.072  0.3120 -0.5864  0.1480
10979TIP3    H254353   6.221   5.147   3.218 -0.9408 -1.6665  0.5793
10980TIP3   OH254354   2.935   0.036  11.587 -0.0135 -0.1050  0.1508
10980TIP3    H154355   2.995  -0.005  11.649 -0.5394 -0.4769  0.4191
10980TIP3    H254356   2.868  -0.030  11.572 -1.0957  0.7871  0.8953
10981TIP3   OH254357   0.668   1.218   1.393 -0.2706 -0.5547 -0.3998
10981TIP3    H154358   0.677   1.151   1.461 -1.1694  1.7801  2.2010
10981TIP3    H254359   0.738   1.280   1.411 -2.4603  1.7962  0.5514
10982TIP3   OH254360   3.582   1.664   1.925 -0.5359  0.2149 -0.1455
10982TIP3    H154361   3.526   1.593   1.957 -1.9370  1.0703 -0.6126
10982TIP3    H254362   3.562   1.669   1.831 -0.3217  1.1159 -0.1464
10983TIP3   OH254363   2.135   5.484   1.785 -0.1080  0.2827  0.7605
10983TIP3    H154364   2.222   5.493   1.747 -0.3959 -1.6228 -0.4768
10983TIP3    H254365   2.098   5.407   1.743 -1.4383 -0.4734  3.1215
10984TIP3   OH254366   1.841   5.353  11.825  0.4424  0.1442  0.1780
10984TIP3    H154367   1.937   5.348  11.826  0.3755 -1.6196 -0.0899
10984TIP3    H254368   1.818   5.349  11.733  0.1178  1.5471  0.1729
10985TIP3   OH254369   4.901   4.532   3.177  0.8967  0.0807  0.3971
10985TIP3    H154370   4.863   4.468   3.237  2.7614 -0.6279  0.9136
10985TIP3    H254371   4.921   4.608   3.231  0.5420  0.3190  0.1988
10986TIP3   OH254372   3.830   0.647   0.577  0.0081  0.2202 -0.5505
10986TIP3    H154373   3.844   0.681   0.489 -0.6077  1.1491 -0.3081
10986TIP3    H254374   3.760   0.702   0.613 -0.5939 -0.9216  0.0818
10987TIP3   OH254375   0.019   6.040  15.385  0.7497 -0.1453  0.4677
10987TIP3    H154376   0.040   5.952  15.354  0.2426 -0.6491  1.5135
10987TIP3    H254377   0.086   6.060  15.450  0.3751 -0.0978  0.8397
10988TIP3   OH254378   4.888   6.518   4.866  0.8768  0.2602 -0.2698
10988TIP3    H154379   4.895   6.496   4.773 -1.5362 -0.9721 -0.2431
10988TIP3    H254380   4.849   6.606   4.867 -0.6121 -0.3622 -0.4943
10989TIP3   OH254381   6.027   5.665  15.165  0.4702 -0.3166  0.3888
10989TIP3    H154382   6.030   5.583  15.115  0.9862 -0.3847  0.5208
10989TIP3    H254383   5.939   5.698  15.151 -0.2134 -1.5952  1.4467
10990TIP3   OH254384   0.172   2.673  14.159 -0.0696  0.2439 -0.5339
10990TIP3    H154385   0.227   2.677  14.238  2.4046 -1.2052 -2.0345
10990TIP3    H254386   0.197   2.750  14.109 -0.8488  0.5926 -0.3981
10991TIP3   OH254387   0.263   2.656  15.280 -0.2244  0.7647 -0.0224
10991TIP3    H154388   0.310   2.611  15.351 -0.0603  2.5598  1.0718
10991TIP3    H254389   0.172   2.630  15.291  0.1219 -0.7754 -0.6022
10992TIP3   OH254390   3.773   1.366  16.033 -0.0089 -0.2062 -0.3218
10992TIP3    H154391   3.695   1.310  16.038 -0.5820  0.4262 -1.4660
10992TIP3    H254392   3.846   1.308  16.054 -0.6760 -1.1389 -0.4799
10993TIP3   OH254393   1.652   0.548  16.447  0.5158  0.6074 -0.2187
10993TIP3    H154394   1.667   0.611  16.518  0.2031  0.3241  0.1062
10993TIP3    H254395   1.737   0.505  16.436  0.6454  0.8602 -0.2205
10994TIP3   OH254396   2.051   1.840   3.108 -0.2877 -0.4613  0.6384
10994TIP3    H154397   2.070   1.753   3.073 -1.3332 -0.8328  0.9786
10994TIP3    H254398   2.057   1.898   3.032 -1.1906 -1.0647  0.0929
10995TIP3   OH254399   4.472   2.991   6.868 -0.3494  0.7074  0.2455
10995TIP3    H154400   4.386   2.994   6.827 -0.1310  1.8375 -0.1586
10995TIP3    H254401   4.518   3.067   6.833  0.7081  0.2974  0.6998
10996TIP3   OH254402   3.976   6.528  13.025 -0.1093 -0.6291  0.8466
10996TIP3    H154403   3.942   6.456  13.078 -0.2599 -1.0494  0.1874
10996TIP3    H254404   3.961   6.606  13.078  0.3856 -1.1168  1.7286
10997TIP3   OH254405   6.536   6.017   2.864  0.1073  0.1229  0.1965
10997TIP3    H154406   6.518   6.083   2.797  0.1672 -0.7694 -0.7255
10997TIP3    H254407   6.631   6.013   2.870  0.0973  0.6764  0.8331
10998TIP3   OH254408   1.483   6.024  16.828 -0.4067  0.3880  0.1724
10998TIP3    H154409   1.412   6.062  16.879 -0.3984  1.7778 -0.8014
10998TIP3    H254410   1.440   5.985  16.751 -0.2668 -0.3129  0.4366
10999TIP3   OH254411   3.357   6.064   2.039  0.1948 -0.1772  0.5993
10999TIP3    H154412   3.372   6.021   1.954  1.2859 -2.1374  1.7076
10999TIP3    H254413   3.432   6.121   2.051  1.1233 -1.4758  1.1358
11000TIP3   OH254414   1.652   4.872  12.313 -0.1646  0.6550  0.4801
11000TIP3    H154415   1.581   4.905  12.258  0.5380  0.0969 -0.8101
11000TIP3    H254416   1.732   4.906  12.271  0.3773  0.4468  1.3261
11001TIP3   OH254417   2.261   4.969  14.600  0.2316  0.1483  0.5064
11001TIP3    H154418   2.279   5.020  14.520 -0.1142  1.4522  1.2375
11001TIP3    H254419   2.333   4.991  14.659  0.2164 -0.4248  0.7429
11002TIP3   OH254420   4.050   4.906   1.269 -0.3825 -0.2275  0.6689
11002TIP3    H154421   4.140   4.928   1.247  0.4033 -0.3174  3.4061
11002TIP3    H254422   4.022   4.975   1.328 -1.0680 -1.7047  2.1497
11003TIP3   OH254423   4.456   5.590  11.659  0.4636  1.1118  0.0265
11003TIP3    H154424   4.483   5.537  11.735 -1.5960 -2.5063 -1.4921
11003TIP3    H254425   4.538   5.609  11.613  1.3517 -2.0411  0.0250
11004TIP3   OH254426   0.279   2.702  13.258 -0.5430  0.3816  0.0493
11004TIP3    H154427   0.324   2.715  13.342  3.1770  2.5757 -2.0150
11004TIP3    H254428   0.324   2.627  13.219 -2.7919 -1.1370  0.2135
11005TIP3   OH254429   3.392   2.202   4.103 -0.3860 -0.0220  0.8120
11005TIP3    H154430   3.324   2.252   4.058  0.9950  1.1037 -0.1324
11005TIP3    H254431   3.349   2.121   4.130 -1.8725  0.2829 -0.4937
11006TIP3   OH254432   2.654   0.966   1.394  0.3774  0.2148  0.1899
11006TIP3    H154433   2.669   1.003   1.480  3.6797 -1.1655  0.3324
11006TIP3    H254434   2.581   0.905   1.407 -0.2140  1.1712  1.6014
11007TIP3   OH254435   3.099   0.337   3.374  0.0290 -0.3187  0.2596
11007TIP3    H154436   3.124   0.349   3.283  1.5590  0.3620  0.7271
11007TIP3    H254437   3.170   0.377   3.424 -0.0155 -2.0005  1.7849
11008TIP3   OH254438   0.021   0.673  13.425 -0.1115 -0.9452  0.2637
11008TIP3    H154439  -0.011   0.685  13.335 -0.8539  0.7946  0.7300
11008TIP3    H254440  -0.001   0.582  13.446 -1.5430 -0.8568 -0.6929
11009TIP3   OH254441   0.996   5.929  12.694  0.4675  0.6251 -0.4295
11009TIP3    H154442   1.006   5.834  12.705 -0.5255  0.6664  1.2801
11009TIP3    H254443   1.005   5.944  12.600 -0.9256 -1.3723 -0.9478
11010TIP3   OH254444   5.198   5.669   4.056  0.1624  0.2105 -0.5254
11010TIP3    H154445   5.139   5.727   4.010 -0.4530 -1.1650 -1.5379
11010TIP3    H254446   5.143   5.597   4.087  0.7511  0.5168  1.4251
11011TIP3   OH254447   1.136   1.771   4.925  0.3024 -0.0212 -0.0372
11011TIP3    H154448   1.193   1.779   4.849 -0.0005 -0.2527 -0.2916
11011TIP3    H254449   1.050   1.798   4.893  0.3065  0.5199  0.3929
11012TIP3   OH254450   5.779   3.214  15.463 -0.0785  0.1109  0.0142
11012TIP3    H154451   5.841   3.140  15.461  0.4107  0.5248 -0.3745
11012TIP3    H254452   5.789   3.255  15.378 -1.9481 -0.6582 -0.6202
11013TIP3   OH254453   0.605   2.697  13.900  0.0004  0.2506 -0.6545
11013TIP3    H154454   0.619   2.689  13.994 -1.1712 -2.3177 -0.6101
11013TIP3    H254455   0.514   2.725  13.891 -0.3419 -0.9386 -1.0120
11014TIP3   OH254456   1.215   5.442   1.797  0.4059 -0.3172 -0.5815
11014TIP3    H154457   1.283   5.381   1.825  0.2832  0.5534  1.8813
11014TIP3    H254458   1.228   5.451   1.703  3.5568 -0.3464 -0.2602
11015TIP3   OH254459   5.481   4.687   0.425  0.1923 -0.5986 -0.3983
11015TIP3    H154460   5.463   4.604   0.470  0.3315 -1.1277 -1.2994
11015TIP3    H254461   5.454   4.672   0.335  1.3156 -0.0602 -0.8460
11016TIP3   OH254462   0.610   3.420   5.391  0.2297  0.1979 -0.4279
11016TIP3    H154463   0.619   3.500   5.443 -0.3723  0.2128 -0.3375
11016TIP3    H254464   0.631   3.349   5.452  0.0806  0.2468 -0.3197
11017TIP3   OH254465   5.174   4.749   3.038 -0.0822  0.1817 -0.5996
11017TIP3    H154466   5.210   4.785   3.119 -0.5262 -0.6208 -0.0327
11017TIP3    H254467   5.119   4.819   3.002  0.7567  0.8343 -0.6451
11018TIP3   OH254468   4.004   5.580   0.815 -0.0134 -0.1633  0.0963
11018TIP3    H154469   3.977   5.670   0.804  0.1377 -0.2797 -1.3363
11018TIP3    H254470   4.058   5.581   0.895  1.3863  1.3428 -0.8061
11019TIP3   OH254471   1.624   2.964   4.404  0.4859  0.8545 -0.2292
11019TIP3    H154472   1.624   2.916   4.487  2.0847 -0.5696 -0.9930
11019TIP3    H254473   1.569   2.913   4.345 -0.5717  1.8154 -0.1105
11020TIP3   OH254474   3.804   4.082   5.758  0.4910 -1.2083 -0.2192
11020TIP3    H154475   3.717   4.078   5.719  0.4946 -1.5595 -0.1932
11020TIP3    H254476   3.787   4.086   5.852  0.4088  1.7528 -0.2753
11021TIP3   OH254477   1.530   1.282   2.336 -0.5380  0.5050 -0.1399
11021TIP3    H154478   1.609   1.235   2.310 -1.8921 -1.7200 -0.5371
11021TIP3    H254479   1.509   1.337   2.260  0.4745  0.9147 -0.1299
11022TIP3   OH254480   2.896   6.259  13.737  0.2258  0.1244 -0.3472
11022TIP3    H154481   2.890   6.301  13.651 -1.6951 -0.9547 -0.8043
11022TIP3    H254482   2.984   6.223  13.741  0.0650 -0.5771 -2.2469
11023TIP3   OH254483   0.926   5.288   4.796  0.4329  0.2101  0.0225
11023TIP3    H154484   0.894   5.242   4.719  0.6861  0.5811 -0.3082
11023TIP3    H254485   0.922   5.381   4.772  0.2390  0.3473  0.5605
11024TIP3   OH254486   5.403   4.860  15.024  0.1692  0.8075 -0.6227
11024TIP3    H154487   5.471   4.904  14.973  2.7668  0.6192  2.3797
11024TIP3    H254488   5.359   4.930  15.072 -0.8125  0.7641 -1.4103
11025TIP3   OH254489   6.109   2.908   3.343 -0.5325 -0.6327  0.4813
11025TIP3    H154490   6.054   2.888   3.267  0.0746 -0.6220  0.0363
11025TIP3    H254491   6.156   2.988   3.319 -1.0367 -0.0910  1.2423
11026TIP3   OH254492   0.996   1.611  17.159 -0.1694 -0.1427  1.2901
11026TIP3    H154493   1.062   1.588  17.093 -1.1129  0.8371 -0.0326
11026TIP3    H254494   0.988   1.706  17.153 -0.5606 -0.0798  2.5674
11027TIP3   OH254495   0.734   0.092  12.659  0.3880  0.2430  0.4087
11027TIP3    H154496   0.720   0.102  12.565 -0.6023  0.6713  0.5882
11027TIP3    H254497   0.761   0.001  12.671  0.0188  0.0536 -0.2270
11028TIP3   OH254498   5.459   2.072  12.361  0.1612 -0.2973  0.6197
11028TIP3    H154499   5.380   2.054  12.310  0.1929  1.0362  0.0568
11028TIP3    H254500   5.524   2.011  12.326  0.5276  1.3611 -1.8405
11029TIP3   OH254501   3.475   2.711   5.268  0.2284 -0.2901  0.1524
11029TIP3    H154502   3.398   2.665   5.301 -0.8324  1.9030  0.9657
11029TIP3    H254503   3.455   2.729   5.176  0.3767 -0.8841  0.0001
11030TIP3   OH254504   3.050   2.627   1.265  0.5311 -0.1569  0.0908
11030TIP3    H154505   3.047   2.720   1.243 -1.6323 -0.5712 -1.6991
11030TIP3    H254506   3.122   2.593   1.213 -0.5645  0.0368 -1.6470
11031TIP3   OH254507   2.642   1.534   2.574 -0.2497  0.2170  0.2735
11031TIP3    H154508   2.594   1.593   2.516 -0.8635 -0.6453 -0.1166
11031TIP3    H254509   2.607   1.552   2.661 -0.2336  0.6172  0.2009
11032TIP3   OH254510   4.963   5.810  15.727  0.2160 -0.2105  0.6103
11032TIP3    H154511   5.000   5.882  15.778 -0.8101 -0.1305  1.2567
11032TIP3    H254512   4.946   5.848  15.640  2.5920 -0.5243 -0.0657
11033TIP3   OH254513   1.619   6.613  17.277  0.1063  0.4819 -0.1641
11033TIP3    H154514   1.548   6.550  17.273 -0.6243  1.1306  1.5044
11033TIP3    H254515   1.589   6.687  17.224  0.0445  0.2704 -0.4207
11034TIP3   OH254516   3.738   0.969   5.242  0.2091  0.1969 -0.2940
11034TIP3    H154517   3.726   0.930   5.328  1.4255 -0.1451 -0.2559
11034TIP3    H254518   3.764   0.896   5.186  0.3141  0.5701 -0.7372
11035TIP3   OH254519   5.135   1.415   5.299 -0.3176 -0.3841 -0.2766
11035TIP3    H154520   5.223   1.410   5.335  0.8872  0.8705 -2.7824
11035TIP3    H254521   5.099   1.497   5.333 -0.8218 -1.2102  1.2625
11036TIP3   OH254522   0.507   5.888   0.826 -0.2431  0.5666  0.9925
11036TIP3    H154523   0.525   5.946   0.901  0.3618 -0.1023  1.3783
11036TIP3    H254524   0.448   5.939   0.771 -0.1265  1.3603  1.5691
11037TIP3   OH254525   5.900   2.776   3.654 -0.0434 -0.4313 -0.7538
11037TIP3    H154526   5.942   2.727   3.583  0.8137 -0.5634 -0.1701
11037TIP3    H254527   5.892   2.713   3.725  3.0422  0.7332  0.7899
11038TIP3   OH254528   4.320   1.161  14.636 -0.0597  0.1249  0.1183
11038TIP3    H154529   4.254   1.227  14.616 -1.0144 -0.8443 -0.0351
11038TIP3    H254530   4.370   1.152  14.555 -0.9882 -0.5031 -0.4121
11039TIP3   OH254531   5.808   4.346  15.842  0.3204 -0.2534  0.2199
11039TIP3    H154532   5.862   4.386  15.911 -0.1200 -2.7398  2.1495
11039TIP3    H254533   5.723   4.389  15.849  0.9942  1.2958 -0.5634
11040TIP3   OH254534   0.251   0.661   3.793 -0.1233 -0.2457  0.2247
11040TIP3    H154535   0.327   0.613   3.825 -0.1493 -0.7010 -0.3708
11040TIP3    H254536   0.191   0.593   3.763 -0.0320  0.1574 -0.9213
11041TIP3   OH254537   2.258   5.477  15.165 -0.0113  0.1171  0.1367
11041TIP3    H154538   2.337   5.531  15.163  0.1912 -0.2071 -0.8222
11041TIP3    H254539   2.197   5.527  15.220  0.8057  0.4227  0.7865
11042TIP3   OH254540   4.348   3.196  15.548 -0.2233  0.4677  0.3444
11042TIP3    H154541   4.428   3.196  15.495 -0.2903 -0.2074  0.2247
11042TIP3    H254542   4.366   3.256  15.620 -0.3716  1.9361 -0.7899
11043TIP3   OH254543   2.532   0.383  13.120 -0.4780 -0.4238 -0.1683
11043TIP3    H154544   2.514   0.294  13.090  2.7365 -1.2794  0.0806
11043TIP3    H254545   2.532   0.436  13.040 -0.9358 -0.9247 -0.5062
11044TIP3   OH254546   5.120   5.974  13.531 -0.3062  0.4544 -0.8562
11044TIP3    H154547   5.183   5.919  13.485  1.2102  0.8224  0.6708
11044TIP3    H254548   5.038   5.964  13.482  0.3092 -1.9240 -1.5058
11045TIP3   OH254549   0.047   5.019  11.321  0.3635 -0.2102 -0.2422
11045TIP3    H154550   0.068   4.926  11.320  1.8596  0.0583  1.5232
11045TIP3    H254551   0.126   5.062  11.353  0.1912  1.8418 -2.3350
11046TIP3   OH254552   5.970   3.126   4.354  0.4138 -0.5123  0.0520
11046TIP3    H154553   5.986   3.091   4.266 -1.9479  0.5361 -0.8749
11046TIP3    H254554   5.994   3.219   4.347 -4.5128  0.9705 -1.2101
11047TIP3   OH254555   5.665   0.210  15.151 -0.2860 -0.4246 -0.1099
11047TIP3    H154556   5.732   0.146  15.130 -1.2065 -1.0817 -1.1580
11047TIP3    H254557   5.612   0.169  15.220 -0.9658 -0.8665 -0.8868
11048TIP3   OH254558   5.441   5.031   1.447  0.6602  0.1205  0.2091
11048TIP3    H154559   5.534   5.012   1.440  0.8138  0.9726 -0.3150
11048TIP3    H254560   5.434   5.092   1.520  0.6931  1.0346 -0.5258
11049TIP3   OH254561   6.436   4.831   5.350 -0.2923  0.2544  0.1801
11049TIP3    H154562   6.435   4.879   5.432 -1.6672 -0.5475  0.6783
11049TIP3    H254563   6.388   4.887   5.289 -2.2010 -0.5435  0.8504
11050TIP3   OH254564   4.192   2.265   2.988  0.2039  0.3873  0.0445
11050TIP3    H154565   4.222   2.351   3.019  0.0545  0.8385 -1.0163
11050TIP3    H254566   4.163   2.281   2.898 -0.4960 -0.6380  0.0753
11051TIP3   OH254567   0.938   3.588  17.181  0.3999  0.0590 -0.0611
11051TIP3    H154568   1.019   3.634  17.205  0.5444 -1.2918  2.3992
11051TIP3    H254569   0.929   3.520  17.248 -2.4218 -0.2749 -0.6727
11052TIP3   OH254570   1.344   1.016  15.675  0.2740  0.1332 -0.2173
11052TIP3    H154571   1.433   1.027  15.641  0.6804  0.6292  0.9310
11052TIP3    H254572   1.356   0.961  15.753 -0.3388  0.7066  0.2917
11053TIP3   OH254573   2.125   2.892  14.973  0.0558  0.1285 -0.5180
11053TIP3    H154574   2.188   2.895  15.045 -2.0172 -2.4093  1.5873
11053TIP3    H254575   2.141   2.808  14.930  0.2015  0.9206 -2.1176
11054TIP3   OH254576   2.208   0.905   2.698  0.4937 -0.5869 -0.3789
11054TIP3    H154577   2.192   0.989   2.741  0.3737 -0.4489 -0.6917
11054TIP3    H254578   2.198   0.923   2.605  0.4322 -0.9554 -0.4465
11055TIP3   OH254579   6.526   2.916  12.091 -0.0231  0.3438 -0.5624
11055TIP3    H154580   6.563   2.998  12.057  1.7871 -0.4129 -0.5329
11055TIP3    H254581   6.450   2.944  12.142 -0.0424  1.9120 -1.3763
11056TIP3   OH254582   2.978   0.982   2.894 -0.3405  0.2196 -0.1238
11056TIP3    H154583   2.886   0.966   2.916 -0.2096 -0.1194  0.2003
11056TIP3    H254584   2.977   1.065   2.847 -0.7019  0.7249  0.7420
11057TIP3   OH254585   1.913   5.235  16.716 -0.4535 -0.4502  0.6257
11057TIP3    H154586   1.990   5.196  16.674 -0.5205 -0.3520  0.4117
11057TIP3    H254587   1.872   5.288  16.647 -0.6671 -0.4371  0.7631
11058TIP3   OH254588   3.879   4.173  12.191  0.5235  0.5638 -0.0558
11058TIP3    H154589   3.806   4.126  12.232  0.2789  3.0852  2.7569
11058TIP3    H254590   3.957   4.131  12.226  0.5342 -1.4148 -2.2057
11059TIP3   OH254591   2.485   4.722   0.744 -0.1223  0.3718 -0.0700
11059TIP3    H154592   2.417   4.735   0.810  0.8552  0.9944  0.8326
11059TIP3    H254593   2.459   4.780   0.672 -0.6414  0.4740  0.1941
11060TIP3   OH254594   3.313   2.531  13.523 -0.0893  0.1988 -0.0348
11060TIP3    H154595   3.368   2.569  13.591  1.9162 -0.6748 -1.0740
11060TIP3    H254596   3.278   2.606  13.475  0.3874  0.7825  0.5220
11061TIP3   OH254597   1.062   5.561  16.928  0.6247  0.0174 -0.2141
11061TIP3    H154598   1.076   5.512  17.010 -1.2348 -2.1456 -1.0908
11061TIP3    H254599   1.092   5.501  16.860 -3.0493 -0.6352 -1.4315
11062TIP3   OH254600   0.787   5.703   3.819  0.0417  0.0282 -0.3477
11062TIP3    H154601   0.763   5.652   3.743  1.2975 -0.1179 -0.6686
11062TIP3    H254602   0.742   5.787   3.807  1.5966  0.6642 -2.1785
11063TIP3   OH254603   5.957   5.265  16.753 -0.3062  0.5348 -0.1834
11063TIP3    H154604   6.019   5.233  16.818 -0.4745  1.6950  0.5791
11063TIP3    H254605   5.987   5.354  16.732 -0.5291  0.3555 -1.3432
11064TIP3   OH254606   0.124   2.198  13.993  0.7501 -0.0699 -0.2309
11064TIP3    H154607   0.074   2.124  14.027  0.2468  0.3500 -0.0421
11064TIP3    H254608   0.086   2.215  13.907  0.4861  0.3285 -0.0362
11065TIP3   OH254609   1.534   2.552  12.010  0.3857  0.5127  0.1491
11065TIP3    H154610   1.552   2.640  11.978  1.6185 -0.2803 -1.5174
11065TIP3    H254611   1.463   2.521  11.953  1.5690 -0.3695 -0.9158
11066TIP3   OH254612   4.673   4.865   2.994  0.8189  0.1989 -0.4347
11066TIP3    H154613   4.726   4.913   2.931  1.8557 -0.7854 -0.3485
11066TIP3    H254614   4.673   4.920   3.073 -0.1842  1.2615 -1.1550
11067TIP3   OH254615   6.512   6.677  16.357 -0.5019  0.6789  0.5713
11067TIP3    H154616   6.424   6.641  16.355 -0.2320  0.0187 -0.4822
11067TIP3    H254617   6.563   6.615  16.409 -0.6589  1.0894  1.2273
11068TIP3   OH254618   2.844   5.880  11.707 -0.3587 -0.3422  0.2465
11068TIP3    H154619   2.887   5.797  11.688 -1.5657 -1.1251  0.8322
11068TIP3    H254620   2.881   5.906  11.792  1.6813  0.8985 -0.9281
11069TIP3   OH254621   6.573   2.177  11.442 -0.3914  0.5257 -0.2178
11069TIP3    H154622   6.485   2.157  11.472  0.0779 -2.5427 -0.6235
11069TIP3    H254623   6.630   2.127  11.500  0.8050 -1.0702 -2.6483
11070TIP3   OH254624   0.540   3.935  15.777  0.3345 -0.2688 -0.2821
11070TIP3    H154625   0.593   3.910  15.853 -0.5356 -1.3121  0.0118
11070TIP3    H254626   0.564   3.871  15.710 -2.0283 -2.1466  0.5221
11071TIP3   OH254627   2.260   4.589   2.489 -0.3898 -1.2131 -0.4835
11071TIP3    H154628   2.173   4.620   2.464  0.2016  0.0459 -1.0883
11071TIP3    H254629   2.283   4.524   2.422 -1.6456 -3.0708  0.7993
11072TIP3   OH254630   2.282   1.586   4.352 -0.3820  0.8100  0.1283
11072TIP3    H154631   2.218   1.638   4.401 -2.0775  0.3679 -1.5277
11072TIP3    H254632   2.283   1.502   4.397  0.3447  1.3622  1.1862
11073TIP3   OH254633   0.937   2.714  15.175  0.1159  1.0247 -0.1870
11073TIP3    H154634   0.959   2.697  15.083  1.6858  2.4680 -0.1181
11073TIP3    H254635   0.888   2.796  15.173 -0.7087  0.5499  0.1940
11074TIP3   OH254636   5.579   4.899   4.561  0.0739  0.3899  0.3068
11074TIP3    H154637   5.530   4.851   4.628  0.3177  0.9464  0.8893
11074TIP3    H254638   5.562   4.991   4.579  1.0426  0.5826  0.3018
11075TIP3   OH254639   0.061   4.618   4.201  0.1966  0.3064 -0.0409
11075TIP3    H154640   0.120   4.547   4.174 -0.0014  0.4280 -0.7943
11075TIP3    H254641   0.070   4.684   4.133  1.4610  1.6643  1.3383
11076TIP3   OH254642   0.082   5.782   5.937 -0.2160 -0.1355 -0.3536
11076TIP3    H154643   0.024   5.798   6.012 -0.2285 -0.0637 -0.3785
11076TIP3    H254644   0.049   5.840   5.869 -1.3810 -1.5383 -1.0368
11077TIP3   OH254645   3.107   6.434  14.759  0.4071 -0.0241  0.6909
11077TIP3    H154646   3.066   6.513  14.792  1.5321  0.2933  1.3803
11077TIP3    H254647   3.130   6.455  14.668  0.3044  0.2895  0.7376
11078TIP3   OH254648   0.946   6.265   5.560 -0.6529  0.4820  0.1875
11078TIP3    H154649   1.037   6.252   5.533 -1.4494 -2.1060 -1.5459
11078TIP3    H254650   0.937   6.212   5.639 -1.0497 -0.6196 -0.5809
11079TIP3   OH254651   5.379   0.247   3.107  0.5414  0.0907  0.9564
11079TIP3    H154652   5.470   0.250   3.078  0.6221 -0.2736  1.1625
11079TIP3    H254653   5.332   0.208   3.034  0.2573  1.8218  0.1572
11080TIP3   OH254654   4.301   5.210  12.412 -0.0710 -0.0950  0.1297
11080TIP3    H154655   4.354   5.198  12.333 -0.1724  0.4686 -0.0290
11080TIP3    H254656   4.325   5.297  12.444 -1.5975  0.5844 -0.4807
11081TIP3   OH254657   2.791   4.847   2.664  0.6104  0.5108 -0.6090
11081TIP3    H154658   2.798   4.752   2.653  0.5851  0.2429  1.3661
11081TIP3    H254659   2.705   4.861   2.702  0.5028  1.3768 -1.1429
11082TIP3   OH254660   0.118   0.774  17.055 -0.1342 -0.1642  0.0199
11082TIP3    H154661   0.047   0.749  16.996 -0.2461  0.1319  0.0273
11082TIP3    H254662   0.074   0.795  17.137  0.1143 -1.6513  0.5640
11083TIP3   OH254663   0.379   3.405   4.346  1.0175 -0.2623  0.5561
11083TIP3    H154664   0.464   3.437   4.376  1.8700 -0.8098 -1.1390
11083TIP3    H254665   0.382   3.417   4.251 -0.9431 -0.0041  0.4969
11084TIP3   OH254666   5.630   6.016   5.393  0.5345  0.4637  0.1518
11084TIP3    H154667   5.607   5.928   5.362  0.3648  0.5582  0.0120
11084TIP3    H254668   5.645   6.005   5.487 -2.0805  0.7765  0.6889
11085TIP3   OH254669   2.141   5.808   5.074  0.0975 -0.0003 -0.4611
11085TIP3    H154670   2.109   5.779   4.989 -0.7751 -0.4561  0.0119
11085TIP3    H254671   2.142   5.904   5.069 -1.1572  0.0218 -0.5688
11086TIP3   OH254672   1.009   6.617  15.735  0.2030 -0.3194 -0.1734
11086TIP3    H154673   1.095   6.590  15.703  0.4720  0.2499  0.0479
11086TIP3    H254674   0.954   6.539  15.727  0.4442 -0.3877 -1.3481
11087TIP3   OH254675   1.976   4.264  14.254 -0.1580  0.0817 -0.2500
11087TIP3    H154676   2.042   4.195  14.256  1.5015  1.6072  1.7337
11087TIP3    H254677   2.016   4.334  14.204 -2.2162 -0.5819 -3.1253
11088TIP3   OH254678   4.458   0.218   4.838 -0.4153 -0.2257  0.1335
11088TIP3    H154679   4.444   0.189   4.929  1.9909 -0.7389  0.3910
11088TIP3    H254680   4.537   0.271   4.842  1.0638 -2.0839 -1.9768
11089TIP3   OH254681   1.493   1.906   5.593  0.2621 -0.2977  0.1545
11089TIP3    H154682   1.415   1.951   5.626 -0.4364  0.0306 -1.8130
11089TIP3    H254683   1.515   1.842   5.661 -0.9644  0.4674  1.3066
11090TIP3   OH254684   6.030   6.277  14.508 -0.2470 -0.3746  0.2650
11090TIP3    H154685   6.076   6.239  14.582 -2.1653  0.0589  1.7584
11090TIP3    H254686   6.078   6.246  14.431  0.7110 -2.3759  1.5912
11091TIP3   OH254687   5.109   4.122   0.286 -0.9338  0.6717  0.1410
11091TIP3    H154688   5.172   4.114   0.358 -1.3999  1.8487  0.6952
11091TIP3    H254689   5.031   4.077   0.317 -0.4298 -0.7402 -0.5256
11092TIP3   OH254690   4.912   4.011   5.099 -0.1406 -0.3855  0.0325
11092TIP3    H154691   4.891   3.964   5.018  2.0349 -0.2377 -0.6795
11092TIP3    H254692   4.952   3.945   5.156  0.9300  0.0961 -0.1341
11093TIP3   OH254693   2.040   3.907   0.774 -0.2038 -0.0857  0.1211
11093TIP3    H154694   2.114   3.961   0.744  0.2031 -0.8839 -0.3379
11093TIP3    H254695   2.081   3.833   0.818 -0.6874 -0.9799 -0.8911
11094TIP3   OH254696   2.956   2.718  14.155 -0.7217 -0.0853 -0.1082
11094TIP3    H154697   3.039   2.756  14.124 -1.5843 -0.4527 -3.2350
11094TIP3    H254698   2.924   2.781  14.220  0.4902  1.7733 -1.1928
11095TIP3   OH254699   0.401   4.637  12.042  0.1896 -0.2458  0.9815
11095TIP3    H154700   0.481   4.689  12.050  1.1969 -1.5046 -0.3482
11095TIP3    H254701   0.380   4.639  11.948 -1.3447  0.0413  1.3069
11096TIP3   OH254702   3.639   0.414  12.108  0.3557 -0.0213 -0.4570
11096TIP3    H154703   3.586   0.482  12.151  1.1768  0.1484  0.3227
11096TIP3    H254704   3.727   0.427  12.144  0.6822 -1.0255 -0.8742
11097TIP3   OH254705   0.178   2.886   3.949  0.5245  0.1815  0.1493
11097TIP3    H154706   0.149   2.825   4.018  0.9828 -1.7306 -1.2509
11097TIP3    H254707   0.142   2.970   3.975 -1.4061 -0.9542  1.4659
11098TIP3   OH254708   6.708   3.625   5.574 -0.2372 -0.6681  0.1107
11098TIP3    H154709   6.715   3.573   5.654  0.6833 -1.8223 -0.6834
11098TIP3    H254710   6.625   3.599   5.535  0.2644 -1.6662 -0.3327
11099TIP3   OH254711   5.074   2.409   2.371  0.1414  0.4393 -0.6662
11099TIP3    H154712   5.034   2.325   2.395  0.3869  0.4574 -0.1782
11099TIP3    H254713   5.082   2.456   2.454  2.6367 -0.1906 -0.4609
11100TIP3   OH254714   3.622   5.792   4.450 -0.0962  0.5164  0.3228
11100TIP3    H154715   3.601   5.864   4.510 -2.2964 -0.5627  0.9557
11100TIP3    H254716   3.640   5.717   4.507 -2.1081 -0.5003 -0.2931
11101TIP3   OH254717   0.486   3.558   0.322 -0.0858  0.8860 -0.0067
11101TIP3    H154718   0.447   3.643   0.301 -3.8029 -0.1982  1.6334
11101TIP3    H254719   0.502   3.561   0.417  0.9994  0.1770 -0.1413
11102TIP3   OH254720   5.915   2.185  16.179  0.2981 -0.3905  0.5545
11102TIP3    H154721   5.940   2.165  16.269  0.9770 -3.1172 -0.1533
11102TIP3    H254722   5.966   2.125  16.125  1.5031  2.5393 -1.8813
11103TIP3   OH254723   4.494   3.674  14.159 -0.0888  0.0770 -0.2957
11103TIP3    H154724   4.574   3.696  14.111 -0.5626  1.9652 -0.2864
11103TIP3    H254725   4.502   3.720  14.242 -2.0215  1.9314 -1.0534
11104TIP3   OH254726   2.828   2.460  12.325 -0.0601 -0.2829 -0.4287
11104TIP3    H154727   2.820   2.366  12.338 -0.5647 -0.1289  0.4772
11104TIP3    H254728   2.757   2.482  12.265  0.0878 -0.4768 -0.6795
11105TIP3   OH254729   1.675   4.969  13.962  0.2113  0.1907  0.3691
11105TIP3    H154730   1.669   4.877  13.987  2.9474 -0.2134 -0.1537
11105TIP3    H254731   1.599   4.984  13.905  1.9754 -3.0418 -3.2601
11106TIP3   OH254732   4.896   4.861  17.192  0.0993 -0.2101 -0.2868
11106TIP3    H154733   4.829   4.924  17.218  0.1582  0.2019 -1.0863
11106TIP3    H254734   4.898   4.797  17.263 -0.9384 -0.0763 -0.1237
11107TIP3   OH254735   1.957   3.205   2.689 -0.2818  0.0328  0.3004
11107TIP3    H154736   1.881   3.198   2.746  0.1356 -1.1615  0.7410
11107TIP3    H254737   1.921   3.198   2.600 -0.7479  0.1518  0.4792
11108TIP3   OH254738   2.637   6.307   1.473  0.6394 -0.0079  0.2433
11108TIP3    H154739   2.675   6.331   1.557 -0.0599 -1.6273  1.0691
11108TIP3    H254740   2.546   6.337   1.479 -0.0146 -1.9990  0.9668
11109TIP3   OH254741   1.994   2.935  17.202  0.3390 -0.1540  0.0965
11109TIP3    H154742   2.016   2.986  17.124 -1.6866 -1.2006 -1.2315
11109TIP3    H254743   1.898   2.934  17.204  0.3378 -1.4368  1.7521
11110TIP3   OH254744   3.157   3.031   5.043  0.1865  0.0521 -0.9857
11110TIP3    H154745   3.239   3.025   5.092 -0.5673 -0.4974  0.2353
11110TIP3    H254746   3.089   3.019   5.108 -0.8363 -2.7543 -2.4039
11111TIP3   OH254747   4.864   1.338   1.207  0.9877  0.3452  0.8105
11111TIP3    H154748   4.852   1.273   1.277  1.2394 -1.0839 -0.4272
11111TIP3    H254749   4.958   1.350   1.201  1.3074 -2.2799 -1.5862
11112TIP3   OH254750   5.006   2.219  10.586  0.3695 -0.2282  0.3247
11112TIP3    H154751   5.044   2.287  10.530 -1.4572 -0.6798 -1.6331
11112TIP3    H254752   5.027   2.137  10.541  1.2417 -0.8607  1.8414
11113TIP3   OH254753   4.461   6.264  16.058  0.7293  0.0447  0.0801
11113TIP3    H154754   4.459   6.353  16.093  0.8015 -0.1454  0.5771
11113TIP3    H254755   4.489   6.275  15.967 -1.2217  0.7115 -0.4857
11114TIP3   OH254756   1.847   2.827  15.085 -0.2203 -0.6687 -0.0869
11114TIP3    H154757   1.850   2.731  15.088  0.1477 -0.6587 -0.0899
11114TIP3    H254758   1.938   2.853  15.073 -0.4939 -0.3804 -1.8784
11115TIP3   OH254759   5.860   5.839   1.648 -0.3748 -0.1097  0.0785
11115TIP3    H154760   5.781   5.869   1.693 -0.5016  0.1551 -0.3083
11115TIP3    H254761   5.829   5.770   1.589 -0.3951  0.2847 -0.3835
11116TIP3   OH254762   0.972   1.345  17.060 -0.0995 -0.0364 -0.2147
11116TIP3    H154763   0.942   1.426  17.102 -2.1010 -1.8905  2.2256
11116TIP3    H254764   1.061   1.333  17.094 -0.0423  0.7729 -0.0464
11117TIP3   OH254765   3.350   4.331  17.117  0.0205  0.2100 -0.1721
11117TIP3    H154766   3.393   4.387  17.051 -0.1398  0.0686 -0.3986
11117TIP3    H254767   3.296   4.272  17.066 -0.0966  0.0904  0.0899
11118TIP3   OH254768   5.551   6.454  16.536 -0.3596  0.0758  0.3787
11118TIP3    H154769   5.523   6.408  16.457 -0.1324  2.2118 -1.0324
11118TIP3    H254770   5.476   6.509  16.559  0.0700  0.4707  0.8602
11119TIP3   OH254771   1.370   0.533   5.400 -0.5718 -0.4584  0.2552
11119TIP3    H154772   1.297   0.577   5.356 -1.2743 -0.3234  1.4942
11119TIP3    H254773   1.395   0.594   5.470  1.0972 -0.2600 -0.4765
11120TIP3   OH254774   1.510   5.994  12.270 -0.5602 -0.1405 -0.2647
11120TIP3    H154775   1.462   6.067  12.308 -1.6595 -0.0910 -1.6678
11120TIP3    H254776   1.514   5.928  12.340  0.7912  1.3638  1.1524
11121TIP3   OH254777   3.718   2.358   6.865 -0.0976 -0.0994  0.2272
11121TIP3    H154778   3.718   2.298   6.940 -1.6365 -0.1323  0.2336
11121TIP3    H254779   3.706   2.302   6.789  0.2938  0.0376  0.0653
11122TIP3   OH254780   6.334   3.731   3.529 -0.0295 -0.0100 -0.3856
11122TIP3    H154781   6.252   3.762   3.566 -0.6382  0.4518 -2.0533
11122TIP3    H254782   6.314   3.644   3.495  0.1232  0.1582 -0.9172
11123TIP3   OH254783   4.190   4.513  10.927  0.3310  0.1708 -0.4541
11123TIP3    H154784   4.231   4.531  11.011  0.3784 -2.6803  0.2602
11123TIP3    H254785   4.098   4.498  10.947  0.1430  0.4686 -1.0698
11124TIP3   OH254786   5.077   4.999  15.421  0.0711 -0.1953 -0.6059
11124TIP3    H154787   5.011   5.027  15.358 -0.9677 -1.9187 -0.3498
11124TIP3    H254788   5.028   4.985  15.502  0.4830 -2.6982 -0.7274
11125TIP3   OH254789   6.727   1.961  14.112 -0.0558  0.4868 -0.1385
11125TIP3    H154790   6.807   1.928  14.071 -0.2775  0.4397 -0.5402
11125TIP3    H254791   6.722   1.914  14.195  0.0935  0.1537 -0.3144
11126TIP3   OH254792   4.916   3.264   0.586  0.3912 -0.4086  0.1190
11126TIP3    H154793   4.877   3.232   0.667  1.3970 -2.4400 -0.1512
11126TIP3    H254794   4.972   3.337   0.613 -0.2980 -0.2174  1.0581
11127TIP3   OH254795   5.447   5.069  14.026 -0.1165  0.6320 -0.1055
11127TIP3    H154796   5.357   5.040  14.045  0.3977 -0.2833  1.1239
11127TIP3    H254797   5.484   4.999  13.973  1.0964 -1.1101  2.7835
11128TIP3   OH254798   3.640   5.372  13.677 -0.4005  0.9415 -0.2369
11128TIP3    H154799   3.727   5.361  13.640 -1.7622 -0.3686 -3.3932
11128TIP3    H254800   3.630   5.298  13.738 -0.1600 -0.4787 -1.8357
11129TIP3   OH254801   2.158   6.534   4.127  0.3163  0.0282  0.1675
11129TIP3    H154802   2.204   6.474   4.186  0.4521  1.3355  1.4472
11129TIP3    H254803   2.215   6.540   4.051 -0.4298 -2.6321 -0.7137
11130TIP3   OH254804   6.107   5.832   4.261 -0.0358 -0.3190  0.1128
11130TIP3    H154805   6.193   5.874   4.259  0.6166 -1.4798  1.6829
11130TIP3    H254806   6.099   5.788   4.177  1.0398 -0.4523  0.0710
11131TIP3   OH254807   5.989   5.874  12.748 -0.2302  0.2888  0.0083
11131TIP3    H154808   6.031   5.789  12.762  0.2094  0.3479 -0.8697
11131TIP3    H254809   5.903   5.865  12.789  1.1845  0.7107  3.3306
11132TIP3   OH254810   5.391   5.447   1.671  0.4755 -0.4504  0.2878
11132TIP3    H154811   5.333   5.483   1.739  0.4565  1.9526 -0.9006
11132TIP3    H254812   5.476   5.485   1.689  0.6061 -0.2487 -0.6878
11133TIP3   OH254813   2.132   3.600   2.178  0.2209 -0.3995  0.5556
11133TIP3    H154814   2.105   3.691   2.184  0.8846 -0.0198 -1.4353
11133TIP3    H254815   2.067   3.552   2.229  1.1454  1.3514  3.6216
11134TIP3   OH254816   1.797   4.384  15.464  0.3947 -0.7105  0.3738
11134TIP3    H154817   1.892   4.369  15.472  0.2850 -1.8592 -0.1676
11134TIP3    H254818   1.787   4.426  15.379  0.3517 -1.4851 -0.0167
11135TIP3   OH254819   0.562   0.108   0.714 -0.2224  0.9125 -0.0651
11135TIP3    H154820   0.505   0.032   0.700 -0.0324  0.5873  0.9212
11135TIP3    H254821   0.621   0.107   0.638 -0.4048  0.2494 -0.2101
11136TIP3   OH254822   1.527   1.261  15.820 -0.5061  0.3761 -0.3484
11136TIP3    H154823   1.524   1.318  15.898  0.1833 -0.5140  0.3475
11136TIP3    H254824   1.437   1.263  15.786 -0.0396  3.8949 -1.8800
11137TIP3   OH254825   4.931   3.110   6.407 -0.1099 -0.0455 -0.5671
11137TIP3    H154826   4.906   3.087   6.317 -0.1144 -0.2644 -0.5109
11137TIP3    H254827   4.882   3.190   6.425 -1.9446 -1.2505  0.0538
11138TIP3   OH254828   2.061   0.549  14.069  0.2155  0.2098 -0.6369
11138TIP3    H154829   2.014   0.533  14.150 -0.3162  1.7323 -0.6045
11138TIP3    H254830   2.140   0.597  14.096 -0.3814  1.4743 -1.0650
11139TIP3   OH254831   5.006   4.368  16.430  0.5260 -0.1648  0.2894
11139TIP3    H154832   4.951   4.402  16.501  1.5664  1.8535  0.2096
11139TIP3    H254833   5.082   4.427  16.429  0.4393  0.0161 -2.6299
11140TIP3   OH254834   1.131   1.578  11.779  0.5140  0.2159  0.1883
11140TIP3    H154835   1.121   1.588  11.685  2.0787 -2.4528 -0.3667
11140TIP3    H254836   1.193   1.646  11.804 -0.2109  1.1964 -0.6305
11141TIP3   OH254837   2.504   3.492   4.297 -0.9381  0.6954 -1.0806
11141TIP3    H154838   2.519   3.581   4.328  1.9005  0.0168 -0.1976
11141TIP3    H254839   2.485   3.442   4.376 -0.3043  0.1498 -1.2588
11142TIP3   OH254840   6.671   6.665  10.870  0.2468 -0.4784 -0.3390
11142TIP3    H154841   6.625   6.689  10.951  1.0013  0.6843 -0.2324
11142TIP3    H254842   6.708   6.747  10.839  2.9608 -1.4728  0.0234
11143TIP3   OH254843   0.687   4.039   1.311  0.1071 -0.7354  0.2429
11143TIP3    H154844   0.640   3.956   1.324  0.8623 -1.1876  0.1277
11143TIP3    H254845   0.778   4.014   1.300  0.1824  0.0208 -1.0277
11144TIP3   OH254846   1.571   6.487   1.936  0.7487 -0.1706 -0.0889
11144TIP3    H154847   1.529   6.532   1.864  1.3843  0.8734  0.1748
11144TIP3    H254848   1.651   6.451   1.898  2.0528  1.9736  0.4553
11145TIP3   OH254849   5.238   1.503  11.801 -0.1996  0.0923 -0.1168
11145TIP3    H154850   5.167   1.438  11.804 -0.5858  0.5003 -0.3408
11145TIP3    H254851   5.257   1.514  11.708 -0.1571  0.3175 -0.0821
11146TIP3   OH254852   1.017   3.580  15.565  0.0007 -0.0330  0.0731
11146TIP3    H154853   1.104   3.618  15.571 -0.3012  0.7300 -0.1097
11146TIP3    H254854   1.001   3.541  15.651  0.2958  0.3378  0.2990
11147TIP3   OH254855   1.620   2.818   1.436 -0.5512 -0.1818  0.2523
11147TIP3    H154856   1.641   2.733   1.476 -1.0379 -1.1003 -1.3553
11147TIP3    H254857   1.640   2.806   1.343 -0.7808  1.4269 -0.0226
11148TIP3   OH254858   5.469   2.426  13.052 -0.0160  0.6093 -0.1547
11148TIP3    H154859   5.480   2.487  12.979 -1.2968 -1.1010 -1.9066
11148TIP3    H254860   5.393   2.373  13.026  1.2858 -1.9892  1.0399
11149TIP3   OH254861   3.309   2.270  16.614  0.2321  0.4394 -0.0977
11149TIP3    H154862   3.238   2.234  16.667  1.2303 -2.2777 -0.4293
11149TIP3    H254863   3.288   2.244  16.525  0.6092  1.4235 -0.4846
11150TIP3   OH254864   1.288   4.018   4.973 -0.0697 -0.8029  0.3088
11150TIP3    H154865   1.222   4.040   5.039 -0.6086 -0.8117 -0.2250
11150TIP3    H254866   1.317   4.103   4.939 -1.2814 -0.8346 -0.8938
11151TIP3   OH254867   5.017   3.257  17.176  0.5475  0.3410  0.1208
11151TIP3    H154868   5.037   3.189  17.240  0.4303 -0.6405 -0.8476
11151TIP3    H254869   5.060   3.228  17.095 -0.0310  1.0868 -0.4773
11152TIP3   OH254870   1.164   5.367  14.550  0.2376 -0.2602 -0.3653
11152TIP3    H154871   1.088   5.400  14.598 -0.4028 -0.1586 -1.4168
11152TIP3    H254872   1.140   5.278  14.524  1.0947 -0.7885  0.5858
11153TIP3   OH254873   0.002   6.633  16.797 -0.5382  0.0788 -0.1819
11153TIP3    H154874   0.059   6.601  16.867 -0.5601  3.5120  1.6174
11153TIP3    H254875  -0.076   6.667  16.842 -1.4798  0.5675 -2.0544
11154TIP3   OH254876   1.632   5.147   6.345 -0.4247  0.3275 -0.1586
11154TIP3    H154877   1.550   5.134   6.297 -0.4069 -0.4684  0.0055
11154TIP3    H254878   1.690   5.078   6.313  0.0443  0.6296  0.0219
11155TIP3   OH254879   3.514   6.404   5.046  0.4425  0.5618  0.3142
11155TIP3    H154880   3.495   6.437   5.133  0.8662  3.9659 -0.7539
11155TIP3    H254881   3.533   6.311   5.059 -0.8853  0.6301  3.5869
11156TIP3   OH254882   6.686   5.958  14.320  0.2534 -0.0786  0.0117
11156TIP3    H154883   6.773   5.991  14.341  1.0545 -0.2974 -2.5348
11156TIP3    H254884   6.704   5.881  14.265 -1.5226  0.0053 -0.7342
11157TIP3   OH254885   4.238   4.038   5.159  0.2293  0.4343  0.2710
11157TIP3    H154886   4.203   3.952   5.137  1.4225 -0.4236  1.5684
11157TIP3    H254887   4.178   4.072   5.225  0.4475  0.0445  0.6741
11158TIP3   OH254888   4.781   1.751  17.211  0.4839 -0.1014 -0.2770
11158TIP3    H154889   4.737   1.697  17.145  0.9885 -1.4540  0.4594
11158TIP3    H254890   4.824   1.688  17.269 -0.2047  1.0474  1.5339
11159TIP3   OH254891   0.204   0.186   6.171  0.7177 -0.1178  0.4752
11159TIP3    H154892   0.206   0.253   6.240 -0.2892  1.5803 -1.0471
11159TIP3    H254893   0.137   0.124   6.201  0.0275  0.7944  0.8859
11160TIP3   OH254894   5.550   0.459  13.845 -0.6441 -0.1031  0.3649
11160TIP3    H154895   5.514   0.429  13.929 -3.7041  0.3437 -0.6485
11160TIP3    H254896   5.552   0.554  13.853  0.4803 -0.1282  0.4340
11161TIP3   OH254897   0.388   1.285  13.871  0.2101  0.3124  0.6218
11161TIP3    H154898   0.369   1.336  13.792  1.0298  1.0934  0.9119
11161TIP3    H254899   0.450   1.218  13.843 -1.0925 -0.7462  0.1771
11162TIP3   OH254900   0.334   4.734  14.584 -0.8298 -0.2947 -0.5350
11162TIP3    H154901   0.385   4.657  14.560 -0.0260 -0.1139  0.5370
11162TIP3    H254902   0.288   4.708  14.664 -0.5337  0.3396 -0.1527
11163TIP3   OH254903   2.725   5.910   2.402  0.2215 -0.4384 -0.3683
11163TIP3    H154904   2.722   5.992   2.352  1.2836 -0.4452 -0.4625
11163TIP3    H254905   2.809   5.870   2.377 -0.5294 -1.8274 -0.7555
11164TIP3   OH254906   1.784   3.611  12.226 -0.8127  0.2365 -0.4313
11164TIP3    H154907   1.768   3.624  12.132 -0.4180 -0.4882 -0.6133
11164TIP3    H254908   1.818   3.522  12.231 -0.4261  0.4270  0.3589
11165TIP3   OH254909   2.035   1.072   2.009  0.4316  0.7502  0.3249
11165TIP3    H154910   2.012   1.024   1.929 -1.1909  0.8165  0.7149
11165TIP3    H254911   2.129   1.084   2.004  0.6608 -1.1018 -0.5664
11166TIP3   OH254912   0.301   1.092  15.289 -0.2534 -0.0719 -0.6966
11166TIP3    H154913   0.294   1.014  15.234  1.9866 -1.3814  0.7349
11166TIP3    H254914   0.302   1.165  15.227 -1.3175 -1.2381 -2.1416
11167TIP3   OH254915   5.546   2.518   3.776  0.0394  0.3269  0.5280
11167TIP3    H154916   5.492   2.460   3.829  0.5674 -0.7082 -0.0317
11167TIP3    H254917   5.496   2.531   3.696  0.5012 -0.4543  0.1007
11168TIP3   OH254918   5.095   1.392   5.985  0.2043  0.0517 -0.4639
11168TIP3    H154919   5.062   1.444   6.058  0.1719  0.0166 -0.4533
11168TIP3    H254920   5.104   1.455   5.913  1.1823  0.2811 -0.1455
11169TIP3   OH254921   3.461   1.716  12.423 -0.1213  0.0493 -0.0195
11169TIP3    H154922   3.459   1.626  12.390  2.0849  0.2604 -0.8894
11169TIP3    H254923   3.426   1.710  12.512  2.7997 -2.2705  1.1279
11170TIP3   OH254924   2.108   0.946   5.766  0.9624  0.4745 -0.8476
11170TIP3    H154925   2.181   0.969   5.823  1.0523 -0.8356 -0.4097
11170TIP3    H254926   2.104   0.850   5.768 -0.0754  0.4717 -1.7366
11171TIP3   OH254927   4.845   2.704  12.406 -0.8952 -0.5054  0.3592
11171TIP3    H154928   4.891   2.688  12.323  0.7345  1.0327  0.8946
11171TIP3    H254929   4.874   2.632  12.463 -0.9613 -0.8209  0.0001
11172TIP3   OH254930   6.069   2.377   5.987  0.5103  0.2503 -0.6680
11172TIP3    H154931   5.995   2.403   6.042  1.0523 -0.6830  0.5465
11172TIP3    H254932   6.088   2.455   5.935 -1.4040  0.4648 -1.1177
11173TIP3   OH254933   1.984   6.040  15.011 -0.5102  0.0203 -0.0179
11173TIP3    H154934   1.948   5.951  15.004  1.2911 -0.7253 -0.2934
11173TIP3    H254935   2.018   6.059  14.924 -0.0249  0.5993  0.2914
11174TIP3   OH254936   3.635   1.157  11.516 -0.1310 -0.4277 -0.1006
11174TIP3    H154937   3.552   1.114  11.535 -0.2744  0.3404  1.1642
11174TIP3    H254938   3.617   1.250  11.527  0.9337 -0.2658  0.3942
11175TIP3   OH254939   6.053   4.445   2.843  0.0209  0.1460  0.2409
11175TIP3    H154940   6.025   4.530   2.809 -1.5877 -0.4087  0.0708
11175TIP3    H254941   6.071   4.393   2.764 -1.7176 -0.5064  0.2364
11176TIP3   OH254942   0.836   2.922  11.723  0.6338  0.6044 -0.1907
11176TIP3    H154943   0.895   2.929  11.647  2.7007 -0.3004  1.2125
11176TIP3    H254944   0.885   2.962  11.795  0.7883 -2.5609  1.6530
11177TIP3   OH254945   2.925   2.047   0.544  0.3080  0.0027  0.1833
11177TIP3    H154946   2.952   2.044   0.452 -0.9429 -0.0124 -0.2079
11177TIP3    H254947   2.889   2.134   0.556  0.1278 -0.1205  0.5591
11178TIP3   OH254948   1.940   6.006  13.910 -0.8253 -0.3151  0.6995
11178TIP3    H154949   1.902   5.927  13.872 -0.2920 -1.2227  2.0168
11178TIP3    H254950   2.021   6.020  13.860 -2.1406  0.9173 -1.2682
11179TIP3   OH254951   3.426   5.460  12.689  0.0907  0.0712  0.1802
11179TIP3    H154952   3.356   5.453  12.753 -0.0046 -1.1292 -0.0204
11179TIP3    H254953   3.445   5.369  12.664  1.4798  0.3819 -0.0168
11180TIP3   OH254954   3.920   1.414  13.824  0.7782  0.0912  0.4533
11180TIP3    H154955   3.871   1.444  13.747  0.9907 -1.9224 -0.5364
11180TIP3    H254956   4.000   1.468  13.823 -0.5056  2.1396  1.0355
11181TIP3   OH254957   3.089   0.955  13.407  0.8392  0.3921  0.1459
11181TIP3    H154958   3.169   1.007  13.396  0.9446  0.2991  0.4700
11181TIP3    H254959   3.062   0.971  13.498  1.1770 -0.5439  0.4203
11182TIP3   OH254960   4.174   2.825   4.049 -0.6437  0.8736 -0.9868
11182TIP3    H154961   4.234   2.776   3.992 -0.0030  1.6459 -0.9917
11182TIP3    H254962   4.172   2.913   4.012 -1.9509  0.8083 -1.0946
11183TIP3   OH254963   4.560   5.009  16.893 -0.1529  0.1396  0.1020
11183TIP3    H154964   4.568   5.031  16.800 -0.7220  0.7941  0.2011
11183TIP3    H254965   4.639   4.959  16.912  0.3220  0.6037 -0.5694
11184TIP3   OH254966   1.730   5.005  14.738  0.0918  0.1418 -0.0807
11184TIP3    H154967   1.670   5.080  14.740 -1.9822 -1.4142  0.2370
11184TIP3    H254968   1.786   5.017  14.815  1.3199  2.4389 -1.2298
11185TIP3   OH254969   5.572   0.742   3.249 -0.1541  0.2974 -0.0932
11185TIP3    H154970   5.640   0.695   3.298 -0.1869 -0.5668 -0.8598
11185TIP3    H254971   5.560   0.690   3.169  1.5764  2.8813 -2.2144
11186TIP3   OH254972   4.901   3.616   3.334  0.0696  0.2422  0.6024
11186TIP3    H154973   4.917   3.580   3.247  0.0006 -0.2957  0.8123
11186TIP3    H254974   4.844   3.691   3.318  0.5896  0.5439  0.1212
11187TIP3   OH254975   0.076   0.902  11.532 -0.0420 -0.2597 -0.3091
11187TIP3    H154976   0.020   0.906  11.454 -0.7000  0.0650  0.1722
11187TIP3    H254977   0.074   0.809  11.557 -2.5324  0.0998  1.2179
11188TIP3   OH254978   6.659   6.721   1.985 -0.0075  0.1507 -0.2362
11188TIP3    H154979   6.577   6.677   2.005 -0.8544  1.6245 -0.3319
11188TIP3    H254980   6.657   6.735   1.891  0.5470 -0.1528 -0.2978
11189TIP3   OH254981   1.857   0.655   3.884  0.0830 -0.1789 -0.4431
11189TIP3    H154982   1.899   0.724   3.833  2.0928 -1.4474 -0.6026
11189TIP3    H254983   1.791   0.700   3.936 -0.3331  1.5079 -2.3161
11190TIP3   OH254984   4.985   1.061   4.453  0.0656  0.0768  0.2057
11190TIP3    H154985   5.021   1.025   4.534  0.8488  0.9576  0.2531
11190TIP3    H254986   4.981   1.155   4.467  1.4989  0.4073 -1.2545
11191TIP3   OH254987   1.951   4.094   6.917  0.3159  0.3667 -0.0425
11191TIP3    H154988   1.886   4.106   6.847  0.2520  2.4031  0.2843
11191TIP3    H254989   1.991   4.181   6.927  1.3228 -0.2328  1.4763
11192TIP3   OH254990   1.979   0.646   0.260  0.0698 -0.3527  0.5829
11192TIP3    H154991   1.919   0.680   0.194 -1.0717  0.4815  1.9897
11192TIP3    H254992   2.020   0.570   0.218 -1.2137 -0.3412 -0.7891
11193TIP3   OH254993   3.077   2.993  12.293 -0.5646  0.3660 -0.3277
11193TIP3    H154994   3.044   2.916  12.339  0.5621  0.9082  1.5231
11193TIP3    H254995   3.087   2.965  12.202  1.5810 -2.3139  0.6050
11194TIP3   OH254996   1.475   6.390   6.040  0.3459  0.2834  0.4321
11194TIP3    H154997   1.524   6.392   5.958  0.3627  0.0993  0.4365
11194TIP3    H254998   1.386   6.416   6.016  0.2799 -0.0492  0.3017
11195TIP3   OH254999   6.705   3.463   3.397  0.5887 -0.2235  0.2945
11195TIP3    H155000   6.625   3.468   3.448 -1.6490 -0.5960 -2.8571
11195TIP3    H255001   6.743   3.378   3.420 -2.0847 -1.8529 -0.8456
11196TIP3   OH255002   4.970   6.257   4.833  0.3086  0.4272  0.0181
11196TIP3    H155003   5.065   6.245   4.831  0.5345  1.8928 -2.6469
11196TIP3    H255004   4.957   6.339   4.881  0.5614  1.1750 -1.1663
11197TIP3   OH255005   2.974   3.479   4.805 -0.4334 -0.1704 -0.0595
11197TIP3    H155006   2.899   3.471   4.745 -0.8195  1.1923  0.2101
11197TIP3    H255007   3.047   3.440   4.757 -0.6982  1.0092 -1.5009
11198TIP3   OH255008   4.918   6.686  14.992 -0.0106  0.2029  0.0522
11198TIP3    H155009   5.004   6.647  15.003 -1.4534 -3.5042 -0.3186
11198TIP3    H255010   4.929   6.748  14.920  2.4843  0.6133  0.6800
11199TIP3   OH255011   5.413   1.305  14.044  0.5358  0.0463  0.7959
11199TIP3    H155012   5.393   1.398  14.050 -0.6484  0.3624 -3.8837
11199TIP3    H255013   5.509   1.300  14.045  0.7434  1.8120 -1.7585
11200TIP3   OH255014   1.925   5.833  13.096  0.5493 -0.1767 -0.1736
11200TIP3    H155015   1.960   5.883  13.169  1.0222 -0.5645 -0.1337
11200TIP3    H255016   1.859   5.890  13.057 -3.4107 -1.7407  3.5155
11201TIP3   OH255017   3.077   4.334   4.022 -0.5035  0.0921  0.5293
11201TIP3    H155018   3.098   4.269   3.955  1.2205 -0.1054  1.1917
11201TIP3    H255019   3.012   4.391   3.982 -0.1820 -0.5588 -0.9700
11202TIP3   OH255020   6.540   3.932   1.741 -0.3604 -0.0404  0.1369
11202TIP3    H155021   6.498   4.015   1.720 -1.3371 -0.2991  0.9933
11202TIP3    H255022   6.617   3.956   1.792 -1.2479  0.3244  1.3704
11203TIP3   OH255023   5.710   3.448  12.098  0.0631  0.2949  0.2817
11203TIP3    H155024   5.691   3.364  12.140  0.8060  0.6957  1.4733
11203TIP3    H255025   5.667   3.513  12.154  1.4105  0.8790  0.6843
11204TIP3   OH255026   6.235   4.399   3.543  0.0306 -0.2264  0.2373
11204TIP3    H155027   6.217   4.470   3.481 -0.4200 -1.3659 -0.9864
11204TIP3    H255028   6.148   4.372   3.574  0.2375  0.1470  1.1798
11205TIP3   OH255029   0.685   1.534   0.114 -0.0226 -0.3132  0.2045
11205TIP3    H155030   0.755   1.578   0.164  1.3748 -1.3335 -0.7775
11205TIP3    H255031   0.626   1.500   0.181  1.6998 -1.4851  1.2167
11206TIP3   OH255032   3.558   3.454   5.611  0.5183 -0.5411  0.2281
11206TIP3    H155033   3.464   3.452   5.627  0.5665  1.3172  0.9568
11206TIP3    H255034   3.589   3.533   5.656  2.2371 -0.4662 -0.9811
11207TIP3   OH255035   0.704   2.918  16.102 -0.1826 -0.2096 -0.0483
11207TIP3    H155036   0.637   2.864  16.145  0.3170  0.2560  1.3986
11207TIP3    H255037   0.758   2.856  16.054 -1.7254 -0.5840 -1.3967
11208TIP3   OH255038   4.199   3.208   3.025  0.1121  0.0647 -0.3077
11208TIP3    H155039   4.143   3.255   2.963 -1.6959 -1.4248  0.0769
11208TIP3    H255040   4.279   3.188   2.977  0.0015  1.5520 -1.1532
11209TIP3   OH255041   6.690   3.809  13.281 -0.0316 -0.0364  0.3515
11209TIP3    H155042   6.723   3.885  13.330  1.3728 -1.3246  1.4956
11209TIP3    H255043   6.769   3.759  13.259 -0.8675 -0.7943 -1.0609
11210TIP3   OH255044   4.450   2.452   3.460 -0.2864 -0.1041 -0.0780
11210TIP3    H155045   4.390   2.519   3.427  0.8335  1.4774  0.9570
11210TIP3    H255046   4.521   2.449   3.396 -0.4573 -0.5179 -0.2564
11211TIP3   OH255047   0.874   4.748   5.032  0.2139 -0.1814  0.6464
11211TIP3    H155048   0.939   4.684   5.004 -1.1536 -1.2256 -0.3036
11211TIP3    H255049   0.804   4.743   4.966 -0.0559  2.1655  0.6561
11212TIP3   OH255050   5.834   6.293  16.007  0.4231  0.2220  0.1140
11212TIP3    H155051   5.925   6.275  16.031  0.1410 -0.2480  0.8525
11212TIP3    H255052   5.828   6.264  15.916  0.9448  0.0091  0.1438
11213TIP3   OH255053   2.058   4.027  16.649 -0.5154  0.3609  0.3216
11213TIP3    H155054   1.981   3.971  16.649  0.0092 -0.4372  2.1012
11213TIP3    H255055   2.098   4.014  16.563 -0.6219 -1.7104  0.5454
11214TIP3   OH255056   0.435   1.415  14.349  0.0647  0.1795  0.3330
11214TIP3    H155057   0.343   1.412  14.323  0.6832 -1.1458 -2.0372
11214TIP3    H255058   0.450   1.333  14.395  0.1759  0.1209  0.1955
11215TIP3   OH255059   1.406   1.206   5.498 -0.2549  0.1832 -0.3321
11215TIP3    H155060   1.474   1.162   5.448  0.3726 -0.6153  1.1860
11215TIP3    H255061   1.327   1.154   5.483  0.2713 -0.9440  0.6892
11216TIP3   OH255062   1.450   5.438   1.240 -0.8482 -0.0675  0.1925
11216TIP3    H155063   1.397   5.408   1.166 -1.8158 -0.8173  1.1449
11216TIP3    H255064   1.430   5.375   1.310 -1.3101  1.5863  1.6209
11217TIP3   OH255065   2.361   4.342   3.518  0.1306 -0.4313 -0.0919
11217TIP3    H155066   2.343   4.373   3.606 -0.8177 -1.8764  0.2577
11217TIP3    H255067   2.333   4.414   3.461  0.3778  0.3562  0.7563
11218TIP3   OH255068   2.795   5.114  12.419 -0.5284 -0.0258  0.9496
11218TIP3    H155069   2.827   5.197  12.382 -0.0468 -0.7051 -0.2034
11218TIP3    H255070   2.831   5.113  12.508  1.3177  0.0095  0.2410
11219TIP3   OH255071   3.279   0.810   1.924  0.1028 -0.2658  0.3845
11219TIP3    H155072   3.318   0.727   1.896  1.4149  0.4242  0.0691
11219TIP3    H255073   3.333   0.838   1.998 -1.7619 -0.8073  2.0480
11220TIP3   OH255074   3.559   3.500  16.485  0.1580  0.1168  0.5587
11220TIP3    H155075   3.561   3.469  16.394 -0.8306  0.5359  0.3892
11220TIP3    H255076   3.477   3.465  16.520 -0.2458  1.2863  0.8091
11221TIP3   OH255077   0.429   5.998  16.524 -0.1288 -0.0574 -0.4309
11221TIP3    H155078   0.501   5.972  16.581  1.5718  0.8108 -2.1008
11221TIP3    H255079   0.455   5.969  16.437 -0.8113  2.1432 -1.4304
11222TIP3   OH255080   4.357   2.183  13.484 -0.5670 -0.3599 -0.1953
11222TIP3    H155081   4.312   2.171  13.400 -1.1265  0.3817 -0.0042
11222TIP3    H255082   4.350   2.277  13.502  0.5626 -0.3241  0.1163
11223TIP3   OH255083   1.485   1.685  14.698  0.0678 -0.2001 -0.2344
11223TIP3    H155084   1.420   1.695  14.629  0.3632  1.1824 -0.3438
11223TIP3    H255085   1.561   1.645  14.654 -0.0455 -0.0977 -0.5248
11224TIP3   OH255086   1.915   3.928  14.551 -0.2441 -0.8057  0.2311
11224TIP3    H155087   1.922   4.021  14.572  0.3437 -0.7196 -0.2866
11224TIP3    H255088   1.876   3.888  14.628 -0.9470 -0.0583  0.2779
11225TIP3   OH255089   0.198   3.545  13.486 -0.3793 -0.0304 -0.2672
11225TIP3    H155090   0.291   3.527  13.474 -0.5131 -1.0975  0.1371
11225TIP3    H255091   0.187   3.553  13.581 -0.6849  0.1499 -0.3172
11226TIP3   OH255092   2.876   0.473   4.752 -0.2825  0.0575 -0.1411
11226TIP3    H155093   2.856   0.564   4.731  0.5761  0.4051  0.5020
11226TIP3    H255094   2.970   0.471   4.766 -0.4903 -0.5931  1.4259
11227TIP3   OH255095   3.522   1.942   5.386 -0.0589 -0.2069 -0.2422
11227TIP3    H155096   3.504   1.943   5.480 -0.8403  3.9725 -0.2357
11227TIP3    H255097   3.611   1.908   5.379  1.2441  2.1450  2.4547
11228TIP3   OH255098   6.224   3.116   5.826 -0.6465  0.0508  0.1447
11228TIP3    H155099   6.200   3.199   5.867 -0.5265  0.5217 -0.7126
11228TIP3    H255100   6.200   3.049   5.891  0.3957  0.8180  1.3606
11229TIP3   OH255101   4.328   0.548   3.887 -0.3024 -0.5723  1.0190
11229TIP3    H155102   4.318   0.489   3.812  0.3470  1.5775 -0.8672
11229TIP3    H255103   4.239   0.563   3.917 -1.1037  1.4708 -1.8546
11230TIP3   OH255104   6.531   2.000   4.456  0.5465 -0.2284  0.1014
11230TIP3    H155105   6.525   1.934   4.387  1.7410 -1.0792  0.7906
11230TIP3    H255106   6.531   1.950   4.538 -1.9036  0.7986  0.8464
11231TIP3   OH255107   0.030   1.509   3.733 -0.4208  0.3546 -0.0914
11231TIP3    H155108   0.034   1.513   3.638  0.2772  0.2928 -0.0681
11231TIP3    H255109  -0.004   1.595   3.759  0.0654  0.6333 -0.3621
11232TIP3   OH255110   3.444   5.131  14.250 -0.4688 -0.1890 -0.5741
11232TIP3    H155111   3.350   5.117  14.239 -0.2939 -0.6799 -1.5600
11232TIP3    H255112   3.483   5.046  14.228  0.1654 -0.1982  0.5267
11233TIP3   OH255113   0.797   2.378   1.235  0.2390 -0.2676  0.0811
11233TIP3    H155114   0.704   2.396   1.223  0.2505 -0.2440  0.0265
11233TIP3    H255115   0.835   2.387   1.148  0.3994  0.3825  0.2090
11234TIP3   OH255116   0.323   0.482  12.789 -0.3771  0.8435 -0.3230
11234TIP3    H155117   0.252   0.527  12.835 -2.0111 -1.4278 -0.4605
11234TIP3    H255118   0.307   0.389  12.806  1.3285  0.1531 -2.1627
11235TIP3   OH255119   4.858   1.681   3.081 -0.2508 -0.2737 -0.6911
11235TIP3    H155120   4.926   1.675   3.148 -0.7384 -0.3775 -0.2000
11235TIP3    H255121   4.864   1.599   3.033 -0.4865 -0.5805 -0.2013
11236TIP3   OH255122   0.435   1.483  17.084  0.4935 -0.4191 -0.4207
11236TIP3    H155123   0.421   1.560  17.029 -0.1884  0.2068  0.5785
11236TIP3    H255124   0.529   1.470  17.085  0.7405  1.1881  0.4006
11237TIP3   OH255125   6.246   6.470   1.727 -0.7207 -0.3722 -0.4363
11237TIP3    H155126   6.195   6.389   1.724 -0.6961 -0.4459  0.7619
11237TIP3    H255127   6.333   6.443   1.755 -0.6037  0.0279 -0.4049
11238TIP3   OH255128   2.719   0.731   3.502 -0.5422 -0.2792  0.1614
11238TIP3    H155129   2.773   0.657   3.474  1.1754  0.4676  1.3223
11238TIP3    H255130   2.746   0.804   3.447  0.1718  0.2675  1.1995
11239TIP3   OH255131   2.807   0.404   2.190 -0.1288  0.1753  0.2006
11239TIP3    H155132   2.815   0.335   2.124 -0.2781 -0.2333  0.6017
11239TIP3    H255133   2.864   0.474   2.159  1.1513 -0.6967  0.4921
11240TIP3   OH255134   0.281   4.094   2.258 -0.3519  0.3897 -0.0466
11240TIP3    H155135   0.242   4.164   2.310  0.6385  1.3515 -0.5504
11240TIP3    H255136   0.321   4.035   2.322  1.5978  2.0056  0.3054
11241TIP3   OH255137   6.326   4.975   5.887 -0.2857  0.8429 -0.6072
11241TIP3    H155138   6.362   5.059   5.917 -1.7875  1.3145 -0.0449
11241TIP3    H255139   6.256   4.999   5.827 -0.5393 -0.0303 -0.6768
11242TIP3   OH255140   3.986   0.479   0.711 -0.0397  0.3053 -0.2572
11242TIP3    H155141   4.021   0.528   0.786 -1.6203  1.7675 -0.4070
11242TIP3    H255142   3.914   0.533   0.679 -1.3038 -1.7029 -1.0167
11243TIP3   OH255143   3.386   0.312   0.546  0.2998 -0.2323 -0.1772
11243TIP3    H155144   3.446   0.387   0.546  0.1292 -0.0414  1.7978
11243TIP3    H255145   3.442   0.237   0.526  0.7659  0.2171 -0.5970
11244TIP3   OH255146   1.551   2.461  11.509 -0.0840  0.0055  0.6878
11244TIP3    H155147   1.481   2.403  11.480  0.4411 -0.6476  0.6874
11244TIP3    H255148   1.570   2.515  11.432 -1.7100  1.3636  1.1887
11245TIP3   OH255149   3.810   2.380   3.669  0.2203  0.1791  0.1055
11245TIP3    H155150   3.838   2.306   3.614  0.8404 -0.1379  0.8334
11245TIP3    H255151   3.809   2.455   3.609 -2.3102 -0.7234 -1.1316
11246TIP3   OH255152   3.770   4.110   3.462  0.1997 -0.1798  0.0234
11246TIP3    H155153   3.765   4.109   3.366 -1.1636 -0.5760  0.0708
11246TIP3    H255154   3.692   4.158   3.489  1.1622  0.9403  0.9336
11247TIP3   OH255155   3.966   6.106  11.066  0.0665  0.2050  0.6439
11247TIP3    H155156   3.906   6.162  11.114 -1.8808 -0.5045 -0.8413
11247TIP3    H255157   3.995   6.041  11.130 -1.0451  0.3386  1.2940
11248TIP3   OH255158   3.878   3.568   0.360 -0.0159 -0.3972 -0.5098
11248TIP3    H155159   3.805   3.627   0.340 -0.5123 -0.7460  0.2474
11248TIP3    H255160   3.837   3.487   0.390  0.6754 -0.4349  0.3846
11249TIP3   OH255161   3.084   5.592   3.059  0.5971  0.5542  0.7022
11249TIP3    H155162   3.017   5.527   3.076  0.0138  0.8441 -0.3800
11249TIP3    H255163   3.147   5.548   3.002 -0.5225  1.2748 -1.2254
11250TIP3   OH255164   1.894   1.011  13.351  0.1643  0.3247 -0.3396
11250TIP3    H155165   1.959   1.070  13.312  0.3780  2.5150  2.9871
11250TIP3    H255166   1.946   0.948  13.401 -0.1069  1.6147  1.6974
11251TIP3   OH255167   1.748   2.266   0.826  0.1587 -0.3716  0.3606
11251TIP3    H155168   1.760   2.356   0.794  0.8285 -0.5763  0.0146
11251TIP3    H255169   1.749   2.212   0.747  1.0721 -0.8074  0.6522
11252TIP3   OH255170   6.354   2.837   5.860  0.3934  0.6868  0.5556
11252TIP3    H155171   6.343   2.750   5.821 -1.7332  1.0251  0.3373
11252TIP3    H255172   6.389   2.819   5.947  0.0522 -0.3792  0.4874
11253TIP3   OH255173   4.175   3.367  13.678 -0.4194  0.5274  0.4662
11253TIP3    H155174   4.127   3.431  13.625  0.0392  2.0949  1.8283
11253TIP3    H255175   4.109   3.305  13.707 -0.8206  0.1295 -1.2081
11254TIP3   OH255176   0.042   3.302   5.316  0.0109 -0.0285 -0.0459
11254TIP3    H155177   0.104   3.229   5.318  1.3681  1.0783 -0.2693
11254TIP3    H255178   0.018   3.316   5.408 -1.4059 -1.6541 -0.1248
11255TIP3   OH255179   1.990   5.452  12.321  0.2339  0.3744 -0.5648
11255TIP3    H155180   2.045   5.531  12.323 -1.1847  1.3946  0.1169
11255TIP3    H255181   2.014   5.409  12.239  2.8484  0.1396  0.2463
11256TIP3   OH255182   3.881   1.569  11.646  0.1971 -0.0949  0.6403
11256TIP3    H155183   3.962   1.616  11.628 -0.6749  1.6291  0.9479
11256TIP3    H255184   3.896   1.523  11.728  0.8653  0.1994  0.6840
11257TIP3   OH255185   3.176   5.045   0.370  0.1184 -0.2492 -0.0204
11257TIP3    H155186   3.243   5.105   0.404  1.0949 -1.2476 -0.1133
11257TIP3    H255187   3.183   5.052   0.275 -1.1437  0.9452 -0.0571
11258TIP3   OH255188   5.764   1.112   4.022 -0.2970  0.5831  0.5325
11258TIP3    H155189   5.810   1.095   4.103 -0.6009  0.8106  0.7546
11258TIP3    H255190   5.680   1.065   4.032 -0.3133  0.5675  0.3293
11259TIP3   OH255191   4.096   2.651   3.490  0.1511 -0.0125  0.5137
11259TIP3    H155192   4.179   2.655   3.443 -0.2730 -0.0014 -0.2342
11259TIP3    H255193   4.086   2.559   3.515 -0.2835 -0.2813 -0.6160
11260TIP3   OH255194   4.324   2.574   7.021  0.2911  0.2031  0.0539
11260TIP3    H155195   4.292   2.563   7.111  2.8382 -0.1109  0.9994
11260TIP3    H255196   4.245   2.594   6.970 -1.3945 -0.6692  2.1464
11261TIP3   OH255197   3.516   2.543   2.096 -0.2579  0.0042 -0.1911
11261TIP3    H155198   3.431   2.512   2.128 -0.5550  0.4118 -0.5808
11261TIP3    H255199   3.495   2.599   2.021  0.3017  0.8399  0.2623
11262TIP3   OH255200   6.742   1.919   1.404  0.3553  0.1758 -0.3630
11262TIP3    H155201   6.735   1.824   1.411  0.4232  0.0809 -1.5210
11262TIP3    H255202   6.676   1.952   1.465 -1.0839 -0.6232 -1.4306
11263TIP3   OH255203   5.569   3.436   2.717  0.3317  0.2481 -0.3426
11263TIP3    H155204   5.568   3.437   2.621  0.2223  2.0462 -0.3580
11263TIP3    H255205   5.651   3.392   2.740 -0.9162 -2.7451 -1.1791
11264TIP3   OH255206   4.297   3.993   0.828  0.4490 -0.4062 -0.3251
11264TIP3    H155207   4.210   4.005   0.792 -0.2312  0.6202  1.5054
11264TIP3    H255208   4.291   3.911   0.878  0.7068 -0.6433 -0.6818
11265TIP3   OH255209   6.373   2.015   3.131  0.3338 -0.5403 -0.2349
11265TIP3    H155210   6.301   2.076   3.138 -0.0535 -0.9890 -0.2594
11265TIP3    H255211   6.339   1.933   3.166  0.9952 -0.6235  0.2499
11266TIP3   OH255212   0.618   6.014   2.085 -0.1372 -0.1977 -0.3344
11266TIP3    H155213   0.657   5.936   2.124  1.1840  0.1708 -0.8842
11266TIP3    H255214   0.657   6.020   1.998  0.5890  1.6363  0.0666
11267TIP3   OH255215   3.169   3.830  14.644 -0.0839 -0.2147  0.2173
11267TIP3    H155216   3.191   3.800  14.556 -0.1833  1.3398 -0.3642
11267TIP3    H255217   3.245   3.880  14.672 -1.0775  1.5626 -0.0879
11268TIP3   OH255218   1.440   5.486   3.653  0.0503  0.6142 -0.7719
11268TIP3    H155219   1.465   5.552   3.717 -2.2702 -1.6186  2.8214
11268TIP3    H255220   1.394   5.535   3.584  0.6259  2.9460  0.4158
11269TIP3   OH255221   3.178   2.259  14.665 -0.6450 -0.2277  0.6180
11269TIP3    H155222   3.225   2.177  14.682 -0.4876 -1.3251 -3.7942
11269TIP3    H255223   3.097   2.231  14.624 -0.8922  1.8099 -0.3866
11270TIP3   OH255224   4.344   4.738  17.210  0.0719  0.3360 -0.3516
11270TIP3    H155225   4.432   4.709  17.234  0.3738  2.5482  1.5926
11270TIP3    H255226   4.289   4.661  17.224  1.3069 -0.3290  1.1685
11271TIP3   OH255227   0.789   4.705   1.677 -0.0431  0.0633 -0.8440
11271TIP3    H155228   0.863   4.648   1.655 -0.4541 -0.7863 -0.0843
11271TIP3    H255229   0.711   4.655   1.653 -0.4281  0.1139  0.2525
11272TIP3   OH255230   4.283   0.427  12.920  0.0364 -0.8980  0.3885
11272TIP3    H155231   4.242   0.379  12.992  0.3831  0.8214  1.8159
11272TIP3    H255232   4.347   0.485  12.963 -0.8729  1.3921 -1.1109
11273TIP3   OH255233   3.704   0.594  11.815  0.3014 -0.8163  0.1307
11273TIP3    H155234   3.780   0.536  11.826 -0.1956 -1.8654 -1.5268
11273TIP3    H255235   3.738   0.682  11.833  0.9141 -1.6188  3.4191
11274TIP3   OH255236   5.569   4.858  16.753 -0.2509  0.0080 -0.2863
11274TIP3    H155237   5.539   4.839  16.842 -0.7309  2.9092  0.2575
11274TIP3    H255238   5.664   4.865  16.761 -0.1929 -0.7234 -0.2369
11275TIP3   OH255239   2.851   3.185   0.901  0.0483  0.3690  0.4354
11275TIP3    H155240   2.797   3.263   0.892  0.6910  0.7119 -0.5469
11275TIP3    H255241   2.796   3.123   0.950 -0.1579  1.7096  1.9682
11276TIP3   OH255242   5.366   4.970   4.298 -0.1102 -0.4814  0.0977
11276TIP3    H155243   5.456   4.944   4.281  0.2527 -0.2744  1.5930
11276TIP3    H255244   5.363   5.064   4.277 -0.1307 -0.6013 -0.4596
11277TIP3   OH255245   5.625   2.743   4.284 -1.2009  0.9528  0.2003
11277TIP3    H155246   5.572   2.740   4.364 -1.5616  0.1560 -0.0629
11277TIP3    H255247   5.602   2.663   4.236 -2.7453  2.5190 -1.8427
11278TIP3   OH255248   1.428   4.528   0.704  0.4874  0.1739  0.3168
11278TIP3    H155249   1.367   4.583   0.753 -1.4707 -2.1130  0.6723
11278TIP3    H255250   1.514   4.548   0.740 -0.3878  1.5747  1.7571
11279TIP3   OH255251   2.025   6.421  14.504 -0.5997 -0.8077 -0.1927
11279TIP3    H155252   2.121   6.416  14.500 -0.5189 -0.7309  1.0555
11279TIP3    H255253   1.995   6.346  14.454  0.1550 -1.5973  0.5078
11280TIP3   OH255254   2.865   2.584   6.051  0.1433 -0.2166  1.0441
11280TIP3    H155255   2.873   2.648   5.980  3.7860 -1.3765  0.2292
11280TIP3    H255256   2.771   2.567   6.057 -0.5372  1.9201 -1.6542
11281TIP3   OH255257   2.280   3.595   2.960  0.6211  0.0529 -0.1481
11281TIP3    H155258   2.358   3.638   2.994  1.5302 -1.3896 -0.3332
11281TIP3    H255259   2.239   3.555   3.036  0.8664 -0.4089 -0.2538
11282TIP3   OH255260   2.801   2.964  15.580 -0.0044  0.7583 -0.3272
11282TIP3    H155261   2.887   2.977  15.620  0.2091 -1.2941 -0.0038
11282TIP3    H255262   2.739   2.977  15.652  0.2083 -0.1635  0.0345
11283TIP3   OH255263   2.246   1.345   4.468 -0.1917  0.0471  0.8423
11283TIP3    H155264   2.315   1.327   4.404  0.0859 -0.5117  1.2908
11283TIP3    H255265   2.164   1.329   4.421 -0.0718  1.8969 -0.0577
11284TIP3   OH255266   5.030   4.778   5.732 -0.1057 -0.5837 -0.6425
11284TIP3    H155267   5.005   4.690   5.761  1.8207 -0.3631  1.9952
11284TIP3    H255268   5.072   4.817   5.808  2.7495  1.1535 -2.9323
11285TIP3   OH255269   3.057   6.615   2.199  0.0090  0.0775  0.4081
11285TIP3    H155270   3.139   6.578   2.169 -0.6986 -0.1150 -1.4119
11285TIP3    H255271   3.004   6.540   2.226  1.3341  0.3330  4.3247
11286TIP3   OH255272   4.085   2.946  11.408 -0.2268  0.8522 -0.2674
11286TIP3    H155273   4.015   2.987  11.459 -0.0350  1.1012 -0.2017
11286TIP3    H255274   4.096   3.002  11.332 -1.1523 -0.0315 -1.0722
11287TIP3   OH255275   4.848   2.253   3.705 -0.1240 -0.1056  0.0072
11287TIP3    H155276   4.889   2.219   3.625  1.0119 -0.2334  0.6280
11287TIP3    H255277   4.755   2.256   3.684 -0.2718 -3.2436 -0.2102
11288TIP3   OH255278   5.763   5.007   0.061  0.0392 -0.3812 -0.0317
11288TIP3    H155279   5.749   4.920   0.024 -0.2695 -0.3636  0.0437
11288TIP3    H255280   5.791   4.990   0.151 -0.5674 -0.3909  0.1584
11289TIP3   OH255281   5.852   2.133  14.626 -0.1523  0.0233  0.6601
11289TIP3    H155282   5.887   2.152  14.713 -1.0183 -0.0086  1.0373
11289TIP3    H255283   5.853   2.218  14.581 -1.8910  0.5913  1.5496
11290TIP3   OH255284   2.944   0.166   0.273 -0.3463 -0.1075 -0.1799
11290TIP3    H155285   2.927   0.078   0.239 -0.6593 -1.2127  2.5814
11290TIP3    H255286   2.872   0.182   0.334  0.6382  1.3248  0.6518
11291TIP3   OH255287   0.070   1.648   6.144  0.5845 -0.3265 -0.6293
11291TIP3    H155288   0.130   1.574   6.152  1.1456  0.1787 -0.0705
11291TIP3    H255289   0.104   1.714   6.204 -0.5349 -0.0306 -0.2823
11292TIP3   OH255290   2.723   3.253  16.816 -0.1529 -0.4374 -0.4536
11292TIP3    H155291   2.793   3.239  16.752  0.9999 -1.8126  1.0126
11292TIP3    H255292   2.737   3.342  16.848 -0.0833 -0.1255 -1.3305
11293TIP3   OH255293   4.012   4.901   6.717  0.0960  0.0226 -0.4183
11293TIP3    H155294   4.026   4.990   6.749  0.3126  0.2470 -1.1229
11293TIP3    H255295   4.090   4.853   6.745 -0.7984 -0.4307  1.5435
11294TIP3   OH255296   3.709   6.117  12.577 -0.2218 -0.0591 -0.2339
11294TIP3    H155297   3.677   6.028  12.589 -0.2516 -0.1456 -0.9042
11294TIP3    H255298   3.631   6.172  12.579 -0.0916  0.1080  1.4622
11295TIP3   OH255299   0.747   4.253   1.004  0.2820 -0.4776 -0.6467
11295TIP3    H155300   0.702   4.332   0.975  2.2946  0.0985 -2.4740
11295TIP3    H255301   0.817   4.285   1.061 -0.5069 -1.2153  0.7992
11296TIP3   OH255302   5.735   4.219   0.078  0.1993  0.2999 -0.1428
11296TIP3    H155303   5.713   4.149   0.139 -1.2640  0.2957 -0.6389
11296TIP3    H255304   5.779   4.174   0.006 -0.6210 -0.1122 -0.4029
11297TIP3   OH255305   4.365   1.345  15.120  0.2352  0.4003 -0.6678
11297TIP3    H155306   4.432   1.398  15.078 -0.2923  2.5071  0.9376
11297TIP3    H255307   4.380   1.359  15.214  0.6572 -3.1474 -0.0742
11298TIP3   OH255308   1.815   3.093  12.946  0.6765 -0.2116 -0.1529
11298TIP3    H155309   1.836   3.145  13.023 -0.2654 -0.0792  0.0280
11298TIP3    H255310   1.861   3.010  12.960  0.8003 -0.0559  0.3776
11299TIP3   OH255311   3.975   3.813   4.207  0.3604 -0.2397  0.6586
11299TIP3    H155312   4.023   3.745   4.160 -0.8791 -0.5050 -0.2706
11299TIP3    H255313   3.937   3.867   4.138  0.4167  0.7564  1.3862
11300TIP3   OH255314   3.126   2.962   3.941 -0.4068 -0.1811  0.5309
11300TIP3    H155315   3.065   2.909   3.993 -1.3428 -0.2032 -0.5479
11300TIP3    H255316   3.071   3.030   3.902  0.3148 -0.0282 -0.2336
11301TIP3   OH255317   5.414   3.686  11.531  0.2839  0.3002  0.5072
11301TIP3    H155318   5.464   3.743  11.472  0.1292 -0.5247 -0.4511
11301TIP3    H255319   5.462   3.688  11.613  1.6448 -0.1023 -0.2502
11302TIP3   OH255320   2.216   3.448   3.196  0.1802 -0.5235 -0.4146
11302TIP3    H155321   2.187   3.363   3.230 -1.1428 -0.0345 -0.2648
11302TIP3    H255322   2.292   3.470   3.250  1.4233 -2.2331 -1.3764
11303TIP3   OH255323   1.817   3.783  13.556 -0.1354  0.5774  0.2173
11303TIP3    H155324   1.729   3.778  13.595  0.4375 -2.7336  1.3802
11303TIP3    H255325   1.801   3.798  13.463 -1.9981 -0.5779  0.2888
11304TIP3   OH255326   0.894   5.934  11.919 -0.1171  0.1800 -0.5315
11304TIP3    H155327   0.904   6.027  11.897 -1.3127  0.1858 -1.1364
11304TIP3    H255328   0.801   5.924  11.939 -0.1171 -1.0121 -1.0516
11305TIP3   OH255329   4.466   5.747   3.986 -0.2820 -0.5743  0.3631
11305TIP3    H155330   4.459   5.694   3.907  1.3431 -2.0710  1.1485
11305TIP3    H255331   4.450   5.837   3.957 -0.2937 -1.1580 -1.5518
11306TIP3   OH255332   2.043   4.509  11.735  0.2331 -0.1939  0.3037
11306TIP3    H155333   2.032   4.437  11.798 -1.5499 -1.4924 -1.3722
11306TIP3    H255334   2.119   4.482  11.682  2.2607  1.2889  2.2455
11307TIP3   OH255335   0.293   5.241   0.269 -0.0635  0.2206  0.5385
11307TIP3    H155336   0.215   5.228   0.215  0.8080 -0.2315 -0.6653
11307TIP3    H255337   0.366   5.231   0.208  0.9311  1.5658  1.4377
11308TIP3   OH255338   2.534   3.179   0.105  0.4208  0.0058 -0.4254
11308TIP3    H155339   2.497   3.100   0.145  0.3108  1.1989  2.0569
11308TIP3    H255340   2.621   3.186   0.144  0.6047  0.8500 -0.9790
11309TIP3   OH255341   0.800   6.693  15.923 -0.2036  0.5281  0.3762
11309TIP3    H155342   0.742   6.623  15.953  1.7945 -0.7895  1.3827
11309TIP3    H255343   0.855   6.652  15.857 -0.6589  1.8735 -0.9036
11310TIP3   OH255344   6.039   5.994  11.939  0.0272  0.3933 -0.4287
11310TIP3    H155345   6.082   5.954  11.864 -0.5997  0.0764 -0.6310
11310TIP3    H255346   6.058   6.087  11.932 -0.3732  0.4187 -1.2075
11311TIP3   OH255347   0.280   2.927   5.232  0.1448  0.4711 -0.6271
11311TIP3    H155348   0.373   2.934   5.212  0.5877 -2.0771  0.1234
11311TIP3    H255349   0.236   2.934   5.147  0.8153  3.3209 -0.8199
11312TIP3   OH255350   6.297   4.539  13.684  0.0493 -0.0047 -0.4654
11312TIP3    H155351   6.374   4.595  13.689  0.0793  0.0773 -1.6410
11312TIP3    H255352   6.226   4.593  13.721  0.4228  0.1329  0.0663
11313TIP3   OH255353   1.646   2.776   3.743  0.2367 -0.4665  0.8048
11313TIP3    H155354   1.591   2.852   3.763  0.3452 -0.2738  0.3798
11313TIP3    H255355   1.732   2.799   3.776 -0.0115 -0.9394  1.8581
11314TIP3   OH255356   0.456   2.745  14.172  0.5263 -0.4549  0.0270
11314TIP3    H155357   0.464   2.836  14.145 -2.3547  0.5571  2.0624
11314TIP3    H255358   0.519   2.736  14.244  1.8861 -0.5884 -1.1302
11315TIP3   OH255359   3.883   6.364   1.163  0.9185 -0.0516 -0.0789
11315TIP3    H155360   3.863   6.356   1.256  2.8709 -2.4199  0.2484
11315TIP3    H255361   3.974   6.394   1.160  0.6521  0.7332 -1.2695
11316TIP3   OH255362   6.328   1.682  14.825  0.4549 -0.4641  0.0450
11316TIP3    H155363   6.368   1.765  14.853 -0.8079 -0.5985  2.5216
11316TIP3    H255364   6.258   1.708  14.765 -0.6919  0.4219  1.6926
11317TIP3   OH255365   1.828   1.801   5.401 -0.2053  0.0098  0.4614
11317TIP3    H155366   1.785   1.886   5.390 -0.0856 -0.0047 -0.1340
11317TIP3    H255367   1.867   1.782   5.316  1.2881  0.1968  1.0579
11318TIP3   OH255368   0.304   5.560  16.408  0.4451 -0.0741 -0.4615
11318TIP3    H155369   0.243   5.498  16.449 -1.2744  1.5948 -0.3446
11318TIP3    H255370   0.323   5.624  16.476 -0.0965  1.0977 -1.3780
11319TIP3   OH255371   5.350   0.640   2.275 -0.6126 -0.2143  0.1007
11319TIP3    H155372   5.412   0.703   2.313 -1.6435  2.3198 -2.1389
11319TIP3    H255373   5.401   0.593   2.209 -0.7662  1.1827 -1.0563
11320TIP3   OH255374   0.404   2.515   3.068  0.3495 -0.3321  1.0528
11320TIP3    H155375   0.443   2.471   3.143  1.3259  0.3872  0.9968
11320TIP3    H255376   0.314   2.485   3.065  0.5492 -1.0375  1.9884
11321TIP3   OH255377   5.972   0.189   1.615 -0.1852  0.0650 -0.1971
11321TIP3    H155378   6.051   0.181   1.562  0.2460  0.6383  0.3270
11321TIP3    H255379   6.000   0.165   1.703 -0.2032  1.6609  0.2925
11322TIP3   OH255380   5.702   6.502  16.790 -0.0085 -0.5999  0.3449
11322TIP3    H155381   5.759   6.577  16.776 -0.2550 -0.4714  0.0109
11322TIP3    H255382   5.675   6.475  16.702  1.7652 -2.4135  0.2948
11323TIP3   OH255383   6.451   0.347   4.961 -0.3372  0.1999 -0.2465
11323TIP3    H155384   6.532   0.387   4.929  1.1706 -1.6363  1.0548
11323TIP3    H255385   6.472   0.318   5.050 -0.4835 -5.2127 -1.6188
11324TIP3   OH255386   2.434   2.051  13.516 -0.1813  0.2038 -0.3951
11324TIP3    H155387   2.379   2.064  13.593  0.5118  2.1197 -0.1605
11324TIP3    H255388   2.373   2.021  13.448 -1.0367 -0.2019  0.5244
11325TIP3   OH255389   4.856   3.722   3.852 -0.0094 -0.1296 -0.1801
11325TIP3    H155390   4.794   3.714   3.779  1.2227 -1.1924 -1.1574
11325TIP3    H255391   4.807   3.690   3.928 -1.7318  2.1197 -0.2232
11326TIP3   OH255392   2.520   6.491  11.881  0.1869 -0.1246 -0.5455
11326TIP3    H155393   2.489   6.445  11.959 -0.4793  0.4856 -0.4344
11326TIP3    H255394   2.534   6.581  11.911 -0.1742  0.1368 -1.1501
11327TIP3   OH255395   1.152   0.788  14.483  0.4071  0.1886  0.8806
11327TIP3    H155396   1.244   0.769  14.469  0.0602 -0.4667 -0.7774
11327TIP3    H255397   1.151   0.859  14.547  1.9152 -1.9644  3.4754
11328TIP3   OH255398   5.756   2.718   5.408 -0.2849  0.2175  0.2330
11328TIP3    H155399   5.764   2.701   5.501  1.8845  0.3185  0.1073
11328TIP3    H255400   5.722   2.636   5.371 -0.5754 -0.0149  1.0090
11329TIP3   OH255401   3.947   3.899   1.266  0.5805 -0.7077  0.4431
11329TIP3    H155402   4.033   3.940   1.260  0.1649  0.3490  1.3488
11329TIP3    H255403   3.965   3.805   1.265  1.7855 -0.5029  1.1456
11330TIP3   OH255404   1.693   1.879  14.439  0.5944  0.3855 -0.1794
11330TIP3    H155405   1.688   1.950  14.503 -0.9226  0.2208 -0.0879
11330TIP3    H255406   1.730   1.806  14.489  0.0138  0.4472  0.3617
11331TIP3   OH255407   4.542   5.914  11.220  0.1207 -0.2344  0.6829
11331TIP3    H155408   4.476   5.956  11.164  1.0109 -1.4360 -1.3822
11331TIP3    H255409   4.490   5.868  11.286 -0.9496  1.6318  1.2430
11332TIP3   OH255410   6.422   0.391  11.823  0.4047 -0.0330  0.3755
11332TIP3    H155411   6.420   0.297  11.807 -0.4319  0.2723 -1.5304
11332TIP3    H255412   6.353   0.427  11.768  1.4409  1.8146  0.1881
11333TIP3   OH255413   2.861   1.517  13.771  0.2441  0.0670 -0.4300
11333TIP3    H155414   2.767   1.520  13.788  0.2204  0.8863 -0.6672
11333TIP3    H255415   2.896   1.461  13.841 -0.7129 -2.4258 -1.8228
11334TIP3   OH255416   0.492   4.535  14.433  0.4237 -0.2738 -0.4487
11334TIP3    H155417   0.583   4.564  14.445  0.5554 -0.9991  0.4585
11334TIP3    H255418   0.465   4.575  14.351  1.7719 -0.5182 -1.0432
11335TIP3   OH255419   2.061   6.634  16.767  0.2374 -0.3427 -0.3179
11335TIP3    H155420   1.979   6.636  16.815  0.6624  1.4470  0.4201
11335TIP3    H255421   2.061   6.549  16.723 -0.9214 -1.3681  1.5242
11336TIP3   OH255422   5.723   1.646   4.432  0.2885 -0.3143  0.1674
11336TIP3    H155423   5.797   1.703   4.454  0.0842 -0.0442  0.1642
11336TIP3    H255424   5.731   1.573   4.493  0.6413 -0.3588  0.0721
11337TIP3   OH255425   5.720   5.352   3.127 -0.1685  0.2967  0.7940
11337TIP3    H155426   5.741   5.389   3.041 -0.7398  1.1374  0.9964
11337TIP3    H255427   5.626   5.369   3.138 -0.6375 -1.9189  0.5952
11338TIP3   OH255428   3.283   4.824  11.434 -0.3886  0.2931  0.4613
11338TIP3    H155429   3.233   4.743  11.436 -1.9897  1.2577  1.4043
11338TIP3    H255430   3.287   4.852  11.526  1.6131  0.4365  0.3742
11339TIP3   OH255431   3.686   6.258   0.917 -0.1785 -0.0657 -0.0877
11339TIP3    H155432   3.602   6.222   0.891 -1.0306  0.8909  1.2272
11339TIP3    H255433   3.677   6.276   1.010  0.8917  1.5822 -0.2533
11340TIP3   OH255434   2.129   2.732   2.467 -0.1506 -0.6906 -0.5049
11340TIP3    H155435   2.181   2.808   2.492  1.0867 -2.2005  2.0037
11340TIP3    H255436   2.181   2.689   2.398  0.7388 -0.8557  0.2388
11341TIP3   OH255437   2.640   1.340   0.228  0.2701  0.1481  0.2496
11341TIP3    H155438   2.692   1.385   0.295  0.8131 -0.4660  0.2561
11341TIP3    H255439   2.675   1.251   0.227  2.5531  0.9007 -3.1611
11342TIP3   OH255440   5.440   2.387   0.332 -0.0838  0.8691 -0.3230
11342TIP3    H155441   5.356   2.430   0.318 -0.8931 -0.5755 -0.1483
11342TIP3    H255442   5.470   2.364   0.244 -0.1222  0.9463 -0.3562
11343TIP3   OH255443   3.459   1.650   1.686 -0.3346  0.4866  0.2375
11343TIP3    H155444   3.396   1.720   1.703 -0.8181 -0.3836  2.2498
11343TIP3    H255445   3.491   1.668   1.597 -0.5012  3.1926  0.6466
11344TIP3   OH255446   4.822   4.263   3.830  0.1376  0.0860 -0.5161
11344TIP3    H155447   4.727   4.261   3.815  0.0303 -1.3171  0.1883
11344TIP3    H255448   4.840   4.183   3.879  1.6534  0.4930 -0.3671
11345TIP3   OH255449   6.626   5.523   5.646  0.0064  0.0704  0.1166
11345TIP3    H155450   6.714   5.554   5.628 -0.0254  0.6521  0.8800
11345TIP3    H255451   6.570   5.576   5.590  0.1556 -0.5108 -0.5954
11346TIP3   OH255452   4.339   2.019   3.614  0.3002  0.7302 -0.0010
11346TIP3    H155453   4.372   2.109   3.613 -1.2617  1.3327 -0.3438
11346TIP3    H255454   4.342   1.993   3.706  0.2220  1.3460  0.1812
11347TIP3   OH255455   5.667   5.505   0.680 -0.2811 -0.0157  0.4659
11347TIP3    H155456   5.697   5.502   0.771  0.3818 -0.2653  0.2410
11347TIP3    H255457   5.633   5.594   0.669 -0.0225  0.1334  0.8545
11348TIP3   OH255458   1.824   2.976  13.476  0.0598  1.1168 -0.1912
11348TIP3    H155459   1.907   3.023  13.476  0.0020  1.2331  0.4508
11348TIP3    H255460   1.809   2.952  13.384  1.1076  0.5408 -0.2227
11349TIP3   OH255461   1.108   6.647   1.264 -0.9378  0.0321 -0.4436
11349TIP3    H155462   1.132   6.734   1.296 -3.2171  0.3871  0.5173
11349TIP3    H255463   1.012   6.648   1.261 -1.0043 -2.2239 -1.0861
11350TIP3   OH255464   6.755   3.948  12.342 -0.0200  0.2498  0.3314
11350TIP3    H155465   6.793   4.009  12.279 -1.0694  0.9683  0.3645
11350TIP3    H255466   6.830   3.900  12.378  0.5457 -0.6562 -1.9090
11351TIP3   OH255467   4.999   3.387   5.084 -0.1790 -0.1967 -0.4522
11351TIP3    H155468   4.954   3.434   5.155  2.4564 -0.3990  1.4913
11351TIP3    H255469   5.051   3.455   5.040  0.9741 -0.6692  0.1525
11352TIP3   OH255470   6.061   4.374  13.660  0.1665 -0.5032  0.2886
11352TIP3    H155471   6.131   4.432  13.690  0.3979  0.2109 -1.4910
11352TIP3    H255472   5.996   4.376  13.730  0.9420  0.5663  1.0087
11353TIP3   OH255473   6.046   5.850  16.080 -0.3361 -0.1940 -0.7229
11353TIP3    H155474   6.039   5.909  16.005  1.8806 -0.3003 -1.0695
11353TIP3    H255475   6.060   5.764  16.042  0.0098 -0.3722 -0.2004
11354TIP3   OH255476   6.210   0.962  12.341  0.0945  0.1306 -0.3820
11354TIP3    H155477   6.236   0.969  12.433 -1.4252  1.6036 -0.0077
11354TIP3    H255478   6.293   0.963  12.293  0.8753  0.7930  0.9102
11355TIP3   OH255479   0.710   4.093   1.841  0.1886  0.1183 -0.2820
11355TIP3    H155480   0.747   4.179   1.823 -0.3039  0.2698 -0.5981
11355TIP3    H255481   0.754   4.064   1.921  2.6150 -0.6769 -1.8169
11356TIP3   OH255482   5.410   0.525  11.650 -0.4106 -0.2692  0.3153
11356TIP3    H155483   5.364   0.587  11.707  1.2530  2.2580 -0.9215
11356TIP3    H255484   5.393   0.440  11.690 -1.1829  1.1329  3.2898
11357TIP3   OH255485   4.834   5.786  11.904 -0.1900 -0.3242  0.0491
11357TIP3    H155486   4.881   5.832  11.972  2.7824 -2.7997 -0.1352
11357TIP3    H255487   4.776   5.725  11.951 -1.0079  0.5937  0.2722
11358TIP3   OH255488   3.338   5.565  16.765 -0.1783 -0.4523 -0.7956
11358TIP3    H155489   3.267   5.620  16.799  1.5716  0.5854  1.3654
11358TIP3    H255490   3.296   5.480  16.750 -2.1899  0.5112 -0.9755
11359TIP3   OH255491   3.859   4.879   5.766 -0.0106 -0.0370  0.5105
11359TIP3    H155492   3.781   4.893   5.712 -0.2527  0.1145  0.8935
11359TIP3    H255493   3.923   4.943   5.733 -0.3515  0.4499  0.7665
11360TIP3   OH255494   5.699   4.075   1.522 -0.2617  0.2735  0.4591
11360TIP3    H155495   5.646   3.997   1.538  0.7749 -0.5383  0.0219
11360TIP3    H255496   5.743   4.092   1.605 -1.3799  1.1265  0.9151
11361TIP3   OH255497   1.312   4.846  12.670  0.1135  0.0964  0.5786
11361TIP3    H155498   1.284   4.937  12.670  2.4036  0.8820 -0.2998
11361TIP3    H255499   1.343   4.830  12.759  1.4712  0.8157  0.2590
11362TIP3   OH255500   0.551   3.114  16.441  0.3062 -0.0018 -0.4207
11362TIP3    H155501   0.583   3.025  16.432  2.2650  0.6446 -0.4104
11362TIP3    H255502   0.483   3.109  16.508 -0.7151 -1.7048 -1.5356
11363TIP3   OH255503   0.552   5.750   2.173 -0.2219  0.5790  0.1305
11363TIP3    H155504   0.561   5.655   2.162 -1.3616  0.6953 -2.5745
11363TIP3    H255505   0.506   5.760   2.256  0.1554 -1.1975  0.6150
11364TIP3   OH255506   2.028   1.569   1.245  0.0423  0.0912 -0.1871
11364TIP3    H155507   2.028   1.585   1.151 -2.5972 -1.9394 -0.6610
11364TIP3    H255508   2.058   1.651   1.284 -1.3805  1.9257 -2.6894
11365TIP3   OH255509   0.570   4.893   3.371  0.1717  0.2667 -0.3363
11365TIP3    H155510   0.652   4.931   3.341  0.2336  0.1811 -0.2766
11365TIP3    H255511   0.545   4.832   3.302 -1.5176  2.6240 -1.9417
11366TIP3   OH255512   4.749   2.618  17.251  0.3537 -0.7850  0.6082
11366TIP3    H155513   4.695   2.679  17.300  0.3157  0.7618 -1.2192
11366TIP3    H255514   4.692   2.585  17.182  1.2280 -0.4400 -0.3091
11367TIP3   OH255515   6.138   1.931   0.150  0.2048 -0.6456 -0.6747
11367TIP3    H155516   6.098   1.846   0.166  1.4974 -0.9943  0.9655
11367TIP3    H255517   6.216   1.932   0.206  1.5122  0.6949 -2.3912
11368TIP3   OH255518   5.651   0.669   4.015 -0.4989  0.8384 -0.4305
11368TIP3    H155519   5.566   0.631   4.033 -0.4742  1.1305  0.3532
11368TIP3    H255520   5.658   0.669   3.920 -1.0633  0.1497 -0.4789
11369TIP3   OH255521   5.792   0.244   3.968 -0.2693  0.3940 -1.1981
11369TIP3    H155522   5.708   0.288   3.949 -1.3708 -0.6901  0.8386
11369TIP3    H255523   5.802   0.253   4.063 -0.4267 -3.4107 -0.6759
11370TIP3   OH255524   0.454   2.358   5.179  0.2417 -0.1216 -0.1577
11370TIP3    H155525   0.435   2.441   5.222 -4.1435 -0.8125 -0.3125
11370TIP3    H255526   0.497   2.306   5.247 -2.0037  0.4900  1.9219
11371TIP3   OH255527   2.604   5.677  15.805 -0.4492  0.2124 -0.2669
11371TIP3    H155528   2.674   5.674  15.741  1.3303 -0.1506  1.5922
11371TIP3    H255529   2.598   5.769  15.831 -0.1179  0.1254  0.1271
11372TIP3   OH255530   4.757   5.401   2.122  0.1075  0.5093  0.5404
11372TIP3    H155531   4.678   5.449   2.149  0.4042  1.1107  0.3551
11372TIP3    H255532   4.745   5.313   2.158  0.3191  1.1700  2.3303
11373TIP3   OH255533   0.367   6.531   4.301 -0.0653 -0.1340 -0.1759
11373TIP3    H155534   0.278   6.562   4.316 -0.5644 -1.6096  0.0329
11373TIP3    H255535   0.382   6.546   4.207  0.3572  2.2457  0.1981
11374TIP3   OH255536   6.054   3.654  11.438  0.1024  0.4827 -0.4444
11374TIP3    H155537   6.078   3.714  11.368  0.4002  1.6496  0.6123
11374TIP3    H255538   6.124   3.663  11.503  0.3230 -1.2653 -0.3888
11375TIP3   OH255539   3.111   3.970   3.996 -0.1423  0.2061  0.1778
11375TIP3    H155540   3.023   3.961   4.034 -0.3444  0.8712 -0.1108
11375TIP3    H255541   3.167   3.989   4.072  0.3038 -3.0721  0.8018
11376TIP3   OH255542   5.656   3.518   6.183 -0.3395 -0.1145  0.8034
11376TIP3    H155543   5.658   3.476   6.269  1.8709 -0.1816  0.7716
11376TIP3    H255544   5.603   3.597   6.197  0.8147  0.4258  2.5148
11377TIP3   OH255545   0.721   2.706   4.134  0.1167 -0.3563  0.0591
11377TIP3    H155546   0.633   2.669   4.126  0.7402 -2.1367  0.9550
11377TIP3    H255547   0.748   2.685   4.224  1.2756  0.5828 -0.0477
11378TIP3   OH255548   1.040   3.172   0.396  0.3632 -0.6044  0.2244
11378TIP3    H155549   1.033   3.261   0.431  0.2379 -0.5993  0.1859
11378TIP3    H255550   1.110   3.177   0.331  0.9530 -0.7292  0.8390
11379TIP3   OH255551   0.878   4.570  12.310  0.5800  0.0843 -0.2058
11379TIP3    H155552   0.969   4.592  12.332  0.2410  0.7484  0.5848
11379TIP3    H255553   0.879   4.556  12.216  1.2956  1.1884 -0.3871
11380TIP3   OH255554   4.764   4.690   0.758  0.1254 -0.0629 -0.2602
11380TIP3    H155555   4.740   4.763   0.815 -0.9671  0.1536 -0.9718
11380TIP3    H255556   4.682   4.662   0.719  0.6907 -0.9662 -0.8471
11381TIP3   OH255557   6.311   4.536   4.600  0.4028  0.2718 -0.0145
11381TIP3    H155558   6.285   4.628   4.602  0.2921  0.2242  1.0387
11381TIP3    H255559   6.234   4.489   4.568 -0.0448  0.3809  0.9027
11382TIP3   OH255560   6.700   0.017  15.518  0.5138 -0.7105 -0.3136
11382TIP3    H155561   6.736  -0.011  15.433  1.1231  0.5622 -0.5002
11382TIP3    H255562   6.744  -0.038  15.582 -0.2776 -1.9973 -0.8355
11383TIP3   OH255563   0.526   5.411  13.842 -1.2399 -0.2882 -0.0976
11383TIP3    H155564   0.614   5.375  13.857 -0.6778  1.5813  1.4729
11383TIP3    H255565   0.476   5.337  13.807  1.1059 -1.2176 -1.7552
11384TIP3   OH255566   2.214   3.328   5.000 -0.4043 -0.4797 -0.1973
11384TIP3    H155567   2.255   3.337   5.086 -1.7734 -0.4418  0.4815
11384TIP3    H255568   2.169   3.411   4.986 -0.6776 -0.7047 -0.6833
11385TIP3   OH255569   4.651   0.018  11.791 -0.1995  0.1063  0.6721
11385TIP3    H155570   4.684   0.069  11.717 -2.1799  1.2688  0.5355
11385TIP3    H255571   4.597  -0.050  11.751  0.3152 -0.5035  0.9875
11386TIP3   OH255572   3.836   6.727  11.206 -0.1495 -0.1968 -0.1393
11386TIP3    H155573   3.792   6.684  11.133 -1.4948 -0.3797  0.7538
11386TIP3    H255574   3.768   6.776  11.251  0.5283 -0.4708  1.2776
11387TIP3   OH255575   4.074   0.922   4.479  0.4531  0.0606  0.2265
11387TIP3    H155576   4.057   0.835   4.514  0.1166  0.0076 -0.0614
11387TIP3    H255577   4.148   0.955   4.530  1.3178 -0.8414 -0.4091
11388TIP3   OH255578   3.383   2.832   0.551 -0.1841 -0.1867 -0.3229
11388TIP3    H155579   3.330   2.899   0.508 -0.4894 -1.1137 -1.4447
11388TIP3    H255580   3.348   2.749   0.518  1.9207 -0.8375 -1.0898
11389TIP3   OH255581   5.897   3.246   1.347  0.3825 -0.3642  0.3303
11389TIP3    H155582   5.828   3.295   1.301  1.0067  0.0319 -0.2036
11389TIP3    H255583   5.979   3.278   1.308  0.8746 -0.7540  1.0275
11390TIP3   OH255584   3.726   2.770   1.616  0.1861  0.1314 -0.5780
11390TIP3    H155585   3.743   2.749   1.707 -0.9684 -0.1284 -0.4015
11390TIP3    H255586   3.775   2.705   1.566  0.2340 -0.1867 -0.1204
11391TIP3   OH255587   0.742   3.410  16.967 -0.0744 -0.0434 -0.0804
11391TIP3    H155588   0.834   3.387  16.951  0.6031  1.6077  1.1377
11391TIP3    H255589   0.698   3.393  16.884  2.1012  2.6637 -1.9906
11392TIP3   OH255590   1.560   6.698  16.210 -0.1513  0.2489  0.5508
11392TIP3    H155591   1.529   6.770  16.264  1.8705  0.9364  0.8693
11392TIP3    H255592   1.552   6.730  16.120  1.4205  1.2028  0.7189
11393TIP3   OH255593   3.081   6.714  11.092 -0.1911 -0.0053  0.5299
11393TIP3    H155594   3.005   6.659  11.070 -0.6888  0.3339  1.3666
11393TIP3    H255595   3.043   6.800  11.109  0.2677 -0.0583  1.8880
11394TIP3   OH255596   0.642   4.270   0.594  0.7025  0.0851  0.3378
11394TIP3    H155597   0.693   4.345   0.564  0.3063  0.4444  0.5544
11394TIP3    H255598   0.554   4.304   0.607  0.9578  0.1059  2.4482
11395TIP3   OH255599   0.792   2.105   1.229  0.2980 -0.2844 -0.3667
11395TIP3    H155600   0.781   2.197   1.206  1.8189  0.2412  0.8100
11395TIP3    H255601   0.724   2.089   1.295  0.9727  0.4546  0.5386
11396TIP3   OH255602   1.007   6.765  13.070  0.3784  0.4749 -0.0816
11396TIP3    H155603   1.001   6.688  13.014 -2.0082  0.5374 -0.0150
11396TIP3    H255604   0.947   6.828  13.030  0.9045  1.6464  0.8930
11397TIP3   OH255605   5.465   6.054   2.875 -0.0123 -0.5617  0.1733
11397TIP3    H155606   5.423   6.126   2.826 -0.6287  0.7733  2.4895
11397TIP3    H255607   5.406   6.039   2.949  0.6283 -2.8330  0.2771
11398TIP3   OH255608   3.126   0.165  12.749  0.1578  0.1543 -0.7015
11398TIP3    H155609   3.161   0.225  12.815 -0.3978  1.2114 -1.3386
11398TIP3    H255610   3.193   0.098  12.739  1.3221  1.2964 -0.7992
11399TIP3   OH255611   5.350   1.388  11.277 -0.2094  0.0326  0.2443
11399TIP3    H155612   5.360   1.478  11.244  0.8983 -0.3834 -0.6470
11399TIP3    H255613   5.319   1.339  11.201  0.2506 -0.5328  0.4135
11400TIP3   OH255614   1.962   2.634  14.710  0.1867 -0.3386  0.3038
11400TIP3    H155615   2.052   2.633  14.742 -0.2810  0.3346  1.7291
11400TIP3    H255616   1.941   2.542  14.694  0.2040 -0.8656  2.8442
11401TIP3   OH255617   6.781   1.654  11.353  0.9674  0.1497  0.1245
11401TIP3    H155618   6.844   1.676  11.421 -0.6272  0.8861  1.4300
11401TIP3    H255619   6.764   1.561  11.365  0.5793  0.3096  0.8386
11402TIP3   OH255620   3.453   3.044  12.838  0.0954 -0.0221 -0.5291
11402TIP3    H155621   3.372   3.003  12.869 -0.2628  0.0546 -1.3325
11402TIP3    H255622   3.424   3.113  12.778  0.7760 -1.1603 -2.2520
11403TIP3   OH255623   3.323   5.856   5.935 -0.1231 -0.2784  0.2595
11403TIP3    H155624   3.316   5.761   5.937 -0.5270 -0.2437  0.5684
11403TIP3    H255625   3.277   5.885   6.014  0.7923  0.1202  0.6714
11404TIP3   OH255626   0.948   4.625   4.716  0.5746 -0.0261 -0.0334
11404TIP3    H155627   0.879   4.613   4.651 -0.4381  0.3657  0.9204
11404TIP3    H255628   0.963   4.538   4.752  0.5230 -0.1024 -0.1976
11405TIP3   OH255629   4.534   6.150   4.158 -0.2304  0.6095  0.1351
11405TIP3    H155630   4.528   6.105   4.242 -0.5189 -1.0934 -0.7523
11405TIP3    H255631   4.626   6.178   4.152  0.0852 -0.3151  0.5038
11406TIP3   OH255632   3.786   4.340   2.528 -0.3927 -0.3434 -0.6559
11406TIP3    H155633   3.859   4.301   2.576 -0.5570  1.4166  1.1478
11406TIP3    H255634   3.827   4.394   2.461  0.2767  2.9399  2.1122
11407TIP3   OH255635   1.563   6.557  12.215  0.5850 -0.0165  0.4905
11407TIP3    H155636   1.471   6.582  12.209  0.8853  1.0079 -0.2387
11407TIP3    H255637   1.563   6.462  12.221 -0.4909 -0.0595 -0.0987
11408TIP3   OH255638   3.437   4.994   1.312 -0.0583 -0.1418  0.4272
11408TIP3    H155639   3.376   5.030   1.247 -1.3100 -2.1888  0.3739
11408TIP3    H255640   3.442   4.900   1.290  1.5619 -0.3881  1.6912
11409TIP3   OH255641   1.201   0.231  14.978  0.8285  0.2830 -0.3271
11409TIP3    H155642   1.176   0.169  14.910  0.6017 -1.0144  0.8900
11409TIP3    H255643   1.292   0.209  14.999  0.0127 -1.4184  1.8536
11410TIP3   OH255644   0.115   4.769   3.366  0.2328  0.7031  0.1469
11410TIP3    H155645   0.157   4.731   3.443 -0.3077 -1.3288 -0.4929
11410TIP3    H255646   0.179   4.831   3.332  1.1164  0.4918  1.3503
11411TIP3   OH255647   4.252   0.877   2.868 -0.1836  0.0701  0.1736
11411TIP3    H155648   4.173   0.920   2.835 -0.8813 -0.8117  0.6408
11411TIP3    H255649   4.223   0.789   2.893  0.6470  0.1697  1.6102
11412TIP3   OH255650   1.781   2.094  11.547  0.1058  0.2241  0.0254
11412TIP3    H155651   1.809   2.151  11.475  0.3055  0.7679  0.5234
11412TIP3    H255652   1.687   2.084  11.535 -0.0193  1.1021  0.2394
11413TIP3   OH255653   0.373   2.476  13.124 -0.1769 -0.1310 -0.0119
11413TIP3    H155654   0.446   2.476  13.062 -0.5760  1.9356 -0.5698
11413TIP3    H255655   0.388   2.399  13.178  0.1166 -2.1635 -2.7453
11414TIP3   OH255656   3.669   0.946   5.512  0.1170  0.3472 -0.6163
11414TIP3    H155657   3.684   1.041   5.506  0.1876  0.4384  0.6713
11414TIP3    H255658   3.576   0.938   5.534  0.2508  0.1542 -0.1080
11415TIP3   OH255659   2.109   5.726  13.632 -0.4872  0.1056  0.4807
11415TIP3    H155660   2.044   5.757  13.568 -0.3208 -0.5652 -0.0243
11415TIP3    H255661   2.113   5.632  13.618 -0.9388 -0.1575  1.9426
11416TIP3   OH255662   0.654   5.087  12.284 -0.0275 -0.4028  0.3252
11416TIP3    H155663   0.680   5.167  12.329 -1.2904 -1.2577  2.7667
11416TIP3    H255664   0.560   5.099  12.266  0.5637  0.2198 -2.9352
11417TIP3   OH255665   2.213   5.685  11.744 -0.1165  0.4495 -0.0475
11417TIP3    H155666   2.292   5.732  11.772 -0.5137  0.3073  1.4141
11417TIP3    H255667   2.243   5.595  11.732  0.8774  1.1020 -3.8519
11418TIP3   OH255668   5.741   3.760  14.503 -0.3844 -0.5907 -0.4973
11418TIP3    H155669   5.745   3.794  14.592 -1.0143 -0.2312 -0.6065
11418TIP3    H255670   5.833   3.745  14.480 -0.1274  0.4575 -0.2221
11419TIP3   OH255671   2.311   3.983  16.702  0.2962  0.2440  0.0146
11419TIP3    H155672   2.218   4.004  16.703 -0.0674 -1.0376  2.7007
11419TIP3    H255673   2.355   4.068  16.712 -0.6581  0.7217  0.2356
11420TIP3   OH255674   6.519   4.050   1.098 -0.0124  0.3008  0.1865
11420TIP3    H155675   6.568   3.968   1.098 -0.0663  0.2681  0.2537
11420TIP3    H255676   6.586   4.118   1.086 -0.0356  0.2108 -0.4431
11421TIP3   OH255677   0.910   2.670   0.019  0.4897 -0.1598 -0.1090
11421TIP3    H155678   0.893   2.747   0.073 -0.8264 -0.4108 -0.1315
11421TIP3    H255679   1.006   2.663   0.016  0.6229  1.2162  0.2415
11422TIP3   OH255680   5.987   4.637   2.637 -0.1544  0.2627 -0.3483
11422TIP3    H155681   6.070   4.609   2.599  0.1169  1.3863 -0.6130
11422TIP3    H255682   5.931   4.656   2.562 -0.6669 -0.4809 -0.1715
11423TIP3   OH255683   1.914   2.182  16.311 -0.3292 -0.4219  0.0889
11423TIP3    H155684   1.996   2.163  16.264  0.4168 -1.0501  1.5875
11423TIP3    H255685   1.886   2.097  16.346 -0.8898  0.0199  0.7394
11424TIP3   OH255686   1.955   1.951   6.014 -0.2251  0.2407  0.0057
11424TIP3    H155687   1.888   1.922   5.951 -1.0136  0.2926  0.8062
11424TIP3    H255688   1.955   2.047   6.006  0.3214  0.2041 -0.5493
11425TIP3   OH255689   6.746   0.851  17.277 -0.6642 -0.1552  0.5016
11425TIP3    H155690   6.718   0.943  17.270 -0.8097 -0.2550 -0.3039
11425TIP3    H255691   6.670   0.801  17.249 -0.4846 -0.5157  0.6594
11426TIP3   OH255692   2.197   4.407   4.978  0.0536 -0.0173 -0.6522
11426TIP3    H155693   2.170   4.316   4.991 -1.1908  0.2289 -1.3329
11426TIP3    H255694   2.274   4.417   5.033 -1.2957 -0.7582  1.5321
11427TIP3   OH255695   4.269   5.339   1.545 -0.2537 -0.1624  0.7390
11427TIP3    H155696   4.299   5.348   1.636 -0.8613 -0.7455  1.0051
11427TIP3    H255697   4.306   5.415   1.500 -0.1458  0.2639  1.5287
11428TIP3   OH255698   5.269   2.852  12.336  0.5179 -0.2372 -0.4149
11428TIP3    H155699   5.340   2.916  12.341  0.6539 -0.2595 -1.8051
11428TIP3    H255700   5.189   2.905  12.339  0.6312  0.1624 -2.8619
11429TIP3   OH255701   5.818   4.359   2.573 -0.4635  0.2809 -0.1086
11429TIP3    H155702   5.862   4.425   2.520 -2.1092  1.1497 -0.4424
11429TIP3    H255703   5.741   4.403   2.609  1.2954  0.2502  4.3838
11430TIP3   OH255704   2.789   5.235   5.093  0.3089  0.0117 -0.1651
11430TIP3    H155705   2.701   5.204   5.115 -0.4674  1.1735 -1.4794
11430TIP3    H255706   2.784   5.330   5.103  0.9925  0.2193 -1.6264
11431TIP3   OH255707   4.757   4.136   1.923 -0.2370  0.3713 -0.6931
11431TIP3    H155708   4.684   4.081   1.951 -1.2671  2.0312  0.0418
11431TIP3    H255709   4.735   4.223   1.956  1.4185  1.1970 -1.6572
11432TIP3   OH255710   3.055   3.297  16.368  0.1778 -0.6913  0.6423
11432TIP3    H155711   3.118   3.286  16.297  0.6350 -0.4567  1.0030
11432TIP3    H255712   2.970   3.300  16.325  0.6160  2.6917 -0.2572
11433TIP3   OH255713   6.134   4.552   3.337 -0.1913  0.3668 -0.2854
11433TIP3    H155714   6.053   4.514   3.303 -0.2057  0.6126 -0.5327
11433TIP3    H255715   6.150   4.627   3.280 -0.8171  1.4739  0.9367
11434TIP3   OH255716   0.565   4.977   0.096  0.0251  0.3241 -0.0260
11434TIP3    H155717   0.549   4.934   0.180 -1.0578 -0.6840 -0.7146
11434TIP3    H255718   0.660   4.971   0.085 -0.1028 -2.4812 -0.3374
11435TIP3   OH255719   2.345   4.263   3.953  0.0335  0.5506 -0.3218
11435TIP3    H155720   2.275   4.323   3.978  0.2058  1.2429 -1.4059
11435TIP3    H255721   2.302   4.178   3.946 -0.3856  0.6908  0.4638
11436TIP3   OH255722   0.007   5.782  10.181  0.0550 -0.0739 -0.5305
11436TIP3    H155723   0.092   5.799  10.221 -0.2517 -1.1895  0.6516
11436TIP3    H255724  -0.057   5.806  10.248 -0.4448 -2.8511  0.0817
11437TIP3   OH255725   0.474   5.480  13.483  0.0502 -0.0107 -0.4482
11437TIP3    H155726   0.471   5.514  13.393 -1.1730  2.6433  0.4811
11437TIP3    H255727   0.382   5.467  13.507  0.3362 -0.2323  0.5812
11438TIP3   OH255728   1.768   3.717  11.935  0.4038 -0.0796 -0.1686
11438TIP3    H155729   1.835   3.678  11.879  0.1311  1.1272 -1.3738
11438TIP3    H255730   1.709   3.761  11.875  0.7427  2.2935  1.1004
11439TIP3   OH255731   4.174   2.380  13.793  0.0067  0.2473  0.2261
11439TIP3    H155732   4.114   2.405  13.864 -1.4611  0.5994 -1.0957
11439TIP3    H255733   4.119   2.332  13.731  1.2618 -0.0577 -0.6834
11440TIP3   OH255734   3.887   2.408   4.469 -0.3794  0.6825  0.0550
11440TIP3    H155735   3.919   2.499   4.467  0.1806  0.5357  1.2356
11440TIP3    H255736   3.841   2.397   4.386  0.0261  1.8742 -0.3554
11441TIP3   OH255737   2.300   6.341  13.382 -0.5695 -0.7685  0.1867
11441TIP3    H155738   2.218   6.385  13.404 -0.8552 -1.5214  0.6614
11441TIP3    H255739   2.304   6.345  13.287 -1.5688 -1.4276  0.0953
11442TIP3   OH255740   4.647   2.404   4.994 -0.3875  0.1349 -0.0148
11442TIP3    H155741   4.573   2.463   4.980  0.5684  0.7615 -3.4157
11442TIP3    H255742   4.723   2.462   5.002  0.3523 -0.5197 -1.7827
11443TIP3   OH255743   1.655   4.494  11.785 -0.5506 -0.2656 -0.0912
11443TIP3    H155744   1.713   4.551  11.734  1.4210 -1.6417  0.5418
11443TIP3    H255745   1.646   4.538  11.869 -0.8572  0.1924 -0.3564
11444TIP3   OH255746   6.447   1.337   1.836 -0.7784  0.4502  0.5027
11444TIP3    H155747   6.379   1.362   1.899 -1.5937 -1.2457  0.3440
11444TIP3    H255748   6.460   1.244   1.850  1.7842  0.7931  0.7358
11445TIP3   OH255749   2.527   3.285  14.473 -0.6036 -0.7716  0.7037
11445TIP3    H155750   2.568   3.282  14.559 -0.3839 -0.1919  0.6299
11445TIP3    H255751   2.593   3.250  14.414 -0.6488 -0.9131  0.7386
11446TIP3   OH255752   4.225   0.916  11.983  0.2409  0.0426  0.8627
11446TIP3    H155753   4.154   0.882  12.038 -0.0233 -1.5030 -0.3355
11446TIP3    H255754   4.303   0.873  12.017  0.0651 -0.9821  0.0411
11447TIP3   OH255755   5.937   5.492   1.761 -0.0190  0.5807 -0.7404
11447TIP3    H155756   5.976   5.450   1.838 -1.9860  0.9834  0.5485
11447TIP3    H255757   6.012   5.513   1.706  1.2350 -2.9665 -0.6777
11448TIP3   OH255758   1.814   4.924  10.929  0.0092 -0.5314 -0.2064
11448TIP3    H155759   1.747   4.991  10.916 -0.0304  0.1677  2.8960
11448TIP3    H255760   1.897   4.968  10.910 -0.1936 -0.6482 -1.4813
11449TIP3   OH255761   4.218   5.166  12.953  0.5527 -0.3027 -0.2794
11449TIP3    H155762   4.306   5.197  12.973  0.7213  0.3597 -1.9039
11449TIP3    H255763   4.229   5.108  12.878 -0.2628 -1.2159  0.2824
11450TIP3   OH255764   0.957   3.037   3.377  0.1452  0.0063  0.1486
11450TIP3    H155765   1.022   3.098   3.410 -1.9597  1.6129  1.5665
11450TIP3    H255766   0.939   3.067   3.288  0.1878  0.5322  0.3166
11451TIP3   OH255767   2.044   6.584  16.065 -0.5084 -0.2650 -0.0483
11451TIP3    H155768   2.018   6.653  16.003 -2.5944  0.3809  1.4161
11451TIP3    H255769   2.015   6.617  16.150  0.2620 -2.0957  0.9686
11452TIP3   OH255770   0.704   1.030   1.161 -0.4925 -0.0231  0.1323
11452TIP3    H155771   0.779   1.016   1.104 -0.0168 -0.8824  0.9349
11452TIP3    H255772   0.730   1.105   1.216 -0.2992 -0.1939  0.2762
11453TIP3   OH255773   6.334   2.685   2.612 -0.0332  0.0859  0.9847
11453TIP3    H155774   6.323   2.663   2.519 -0.7615  0.7043  0.9121
11453TIP3    H255775   6.421   2.654   2.634 -0.7978 -2.4578  0.7573
11454TIP3   OH255776   5.031   0.780  13.346 -0.1483 -0.8431  0.3095
11454TIP3    H155777   4.998   0.690  13.347 -1.0131 -0.5418  1.1267
11454TIP3    H255778   5.093   0.784  13.418 -1.2665 -0.4062  1.2858
11455TIP3   OH255779   6.471   2.076   1.431 -0.0240  0.7817  0.4992
11455TIP3    H155780   6.388   2.045   1.468 -0.2750  1.0902  0.2072
11455TIP3    H255781   6.505   2.138   1.496 -0.0334  0.6690  0.6111
11456TIP3   OH255782   2.077   6.491   4.871  0.1802 -0.1759  0.6522
11456TIP3    H155783   2.088   6.551   4.945  0.1560  0.0465  0.4779
11456TIP3    H255784   2.027   6.541   4.807  0.5730 -0.2144  0.3110
11457TIP3   OH255785   2.143   0.140  16.946  0.2420 -0.0081 -0.2256
11457TIP3    H155786   2.058   0.098  16.934 -0.3837  0.8597  0.8665
11457TIP3    H255787   2.136   0.222  16.896  0.4501  0.0268 -0.1962
11458TIP3   OH255788   3.983   3.905  13.024  0.3259 -0.3052 -0.6245
11458TIP3    H155789   4.042   3.856  12.967 -0.0551  0.1246 -1.4092
11458TIP3    H255790   3.913   3.844  13.044  1.1818 -0.9304  0.5889
11459TIP3   OH255791   0.730   4.587  15.251  0.2260  0.1599 -0.1228
11459TIP3    H155792   0.692   4.632  15.176 -1.5279  0.6370  0.9857
11459TIP3    H255793   0.747   4.498  15.219  3.0766  1.2770 -2.1313
11460TIP3   OH255794   5.451   3.047  12.404  0.1961  0.5364 -0.1460
11460TIP3    H155795   5.503   2.987  12.458 -0.1235 -2.3274 -2.6973
11460TIP3    H255796   5.428   3.119  12.463  1.2697 -1.4578  2.9819
11461TIP3   OH255797   4.324   2.574   4.770  0.1307 -0.0313  0.2382
11461TIP3    H155798   4.318   2.498   4.712 -0.0058 -1.0948  1.6125
11461TIP3    H255799   4.233   2.597   4.789  0.1837 -0.0589  0.5210
11462TIP3   OH255800   3.614   2.290  11.405  0.1413 -0.0786 -0.1128
11462TIP3    H155801   3.525   2.253  11.403  0.5020 -1.0518  0.5584
11462TIP3    H255802   3.664   2.226  11.456  1.4449 -0.0146 -1.2740
11463TIP3   OH255803   4.219   6.356   3.398 -0.9987  1.1838  0.0304
11463TIP3    H155804   4.229   6.441   3.354  1.6970 -0.5210 -3.1366
11463TIP3    H255805   4.146   6.314   3.353 -1.7587  1.4577  0.9884
11464TIP3   OH255806   2.043   4.168  13.141  0.0418 -0.5254  0.3693
11464TIP3    H155807   1.961   4.217  13.147  0.6964  0.4250  2.0368
11464TIP3    H255808   2.091   4.213  13.071 -0.1710 -0.0184  0.5405
11465TIP3   OH255809   2.617   5.132   2.810  0.2692 -0.4308 -0.6513
11465TIP3    H155810   2.609   5.068   2.880  0.9778 -1.4283 -1.4513
11465TIP3    H255811   2.707   5.122   2.778  0.7750  1.7091 -0.1089
11466TIP3   OH255812   1.832   4.613   2.779  0.0580 -0.2690  0.0830
11466TIP3    H155813   1.859   4.526   2.749  0.8851 -0.0073  0.0482
11466TIP3    H255814   1.743   4.600   2.813  0.4190 -1.2639  0.6932
11467TIP3   OH255815   4.722   3.851  16.553 -0.2951  0.2589  0.2329
11467TIP3    H155816   4.769   3.900  16.486  0.8348 -1.7117 -0.5132
11467TIP3    H255817   4.787   3.838  16.623 -1.0705  1.1740  1.1524
11468TIP3   OH255818   3.611   2.399   0.359 -0.1405  0.3076  0.3001
11468TIP3    H155819   3.688   2.422   0.308 -1.5151  0.4372 -1.8150
11468TIP3    H255820   3.644   2.386   0.448  2.1069  1.4993 -0.3007
11469TIP3   OH255821   5.074   6.352   2.553  0.1690 -0.2877 -0.6974
11469TIP3    H155822   5.031   6.283   2.604  1.4528 -1.0272 -0.5651
11469TIP3    H255823   5.007   6.419   2.540 -1.0348 -1.4531 -0.6139
11470TIP3   OH255824   2.551   2.932  12.601 -0.2282  0.1668 -0.0696
11470TIP3    H155825   2.520   3.022  12.602  1.5230  0.8140  1.3337
11470TIP3    H255826   2.533   2.901  12.512 -0.4493  2.0357 -0.7143
11471TIP3   OH255827   2.532   4.443   5.723 -0.4073 -0.4025 -0.3415
11471TIP3    H155828   2.578   4.525   5.742  1.2292 -1.6002  1.0713
11471TIP3    H255829   2.468   4.434   5.793 -0.5239 -0.4138 -0.4471
11472TIP3   OH255830   5.488   0.738  16.131  0.4377  0.6742 -0.4821
11472TIP3    H155831   5.423   0.806  16.144 -0.2239 -0.0988  0.3498
11472TIP3    H255832   5.451   0.681  16.063 -1.2450 -1.4672  2.0299
11473TIP3   OH255833   5.296   3.265   3.262 -0.6780  0.3166 -0.0019
11473TIP3    H155834   5.225   3.251   3.199  0.1067 -2.1913 -0.4417
11473TIP3    H255835   5.372   3.288   3.208 -0.1204 -1.3848 -0.0315
11474TIP3   OH255836   6.666   0.452   4.847 -0.1981 -0.1720 -0.0891
11474TIP3    H155837   6.657   0.426   4.755  1.1951  0.9539 -0.5765
11474TIP3    H255838   6.659   0.547   4.846 -1.2918 -0.2115  1.1444
11475TIP3   OH255839   2.082   1.301  12.752  0.8734  0.4504  0.0077
11475TIP3    H155840   2.153   1.365  12.745 -0.9803  2.4790 -1.2578
11475TIP3    H255841   2.025   1.334  12.821  0.5654 -0.5468  0.2468
11476TIP3   OH255842   5.108   0.334   5.901 -0.0481  0.0135 -0.2056
11476TIP3    H155843   5.052   0.388   5.845 -1.8119 -1.0836  0.3888
11476TIP3    H255844   5.070   0.343   5.988  0.8900 -0.5663  0.2779
11477TIP3   OH255845   1.446   2.495  12.965 -0.1138  0.1589  0.1799
11477TIP3    H155846   1.419   2.526  12.879  1.2781 -1.8177 -1.0781
11477TIP3    H255847   1.538   2.521  12.972  0.2453 -1.0675  0.3324
11478TIP3   OH255848   0.768   1.584  16.695  0.2060 -0.3286  0.7398
11478TIP3    H155849   0.790   1.647  16.764 -1.2777 -1.3324  2.2086
11478TIP3    H255850   0.761   1.500  16.741 -0.8402 -1.0326 -0.6442
11479TIP3   OH255851   4.432   5.814   2.703  0.5666 -0.7778  0.3209
11479TIP3    H155852   4.501   5.878   2.688  1.1136 -1.8092 -1.9581
11479TIP3    H255853   4.469   5.754   2.767  1.6468 -1.0767 -0.5622
11480TIP3   OH255854   0.066   3.091   1.432 -0.0817  0.0857 -0.2582
11480TIP3    H155855   0.112   3.173   1.454  0.5431  0.4269 -2.5787
11480TIP3    H255856   0.036   3.058   1.516  0.6505  2.1133  0.8856
11481TIP3   OH255857   0.214   2.464   5.501 -0.1227  0.8240  0.3168
11481TIP3    H155858   0.185   2.527   5.435  1.3950  1.2112 -0.0082
11481TIP3    H255859   0.254   2.517   5.570 -0.5204  0.3279  0.9459
11482TIP3   OH255860   6.674   0.763  13.670  0.3024  0.0247 -0.0563
11482TIP3    H155861   6.715   0.784  13.586 -0.0505  1.5792  0.1218
11482TIP3    H255862   6.619   0.687  13.652  0.5819  0.0684 -1.1228
11483TIP3   OH255863   4.998   2.484   6.289  0.1383 -0.2621 -0.4397
11483TIP3    H155864   4.905   2.509   6.287  0.3842  0.7563  0.1403
11483TIP3    H255865   5.037   2.541   6.355  1.0530 -1.1630 -0.1720
11484TIP3   OH255866   1.431   6.761   0.210 -0.3221  0.0823 -0.1949
11484TIP3    H155867   1.499   6.695   0.221 -0.0501  0.1921 -1.1047
11484TIP3    H255868   1.349   6.712   0.215 -0.2747  0.1404  2.3165
11485TIP3   OH255869   2.180   5.166   1.731 -0.5444  0.0487 -0.0541
11485TIP3    H155870   2.215   5.077   1.738  2.0121  0.9922  0.3153
11485TIP3    H255871   2.154   5.175   1.640  1.5696 -0.2898 -0.7300
11486TIP3   OH255872   6.342   5.892   6.406 -0.6340  0.0105 -1.0945
11486TIP3    H155873   6.364   5.799   6.417  1.4493  0.5622  0.0244
11486TIP3    H255874   6.424   5.931   6.375 -0.5312  1.9452  1.3603
11487TIP3   OH255875   0.628   6.763   4.121 -0.1433 -0.4880  0.1068
11487TIP3    H155876   0.668   6.850   4.123 -0.8174 -0.1124 -1.1579
11487TIP3    H255877   0.537   6.779   4.097 -0.8282 -1.4023  1.9610
11488TIP3   OH255878   0.543   3.045   3.826 -0.2175 -0.6207 -0.0952
11488TIP3    H155879   0.511   3.133   3.805  0.4701 -0.4596 -0.5131
11488TIP3    H255880   0.492   2.987   3.770 -0.1939 -0.4179 -0.3327
11489TIP3   OH255881   3.557   2.470   4.750  0.3981  0.2987  0.5388
11489TIP3    H155882   3.525   2.475   4.660  0.1428  0.9230  0.6546
11489TIP3    H255883   3.512   2.394   4.788  0.6779 -0.0965  0.0750
11490TIP3   OH255884   1.024   1.144   5.815  0.1221 -0.0484 -0.0204
11490TIP3    H155885   1.048   1.226   5.771  0.3450  0.5593  1.1829
11490TIP3    H255886   0.962   1.102   5.755 -0.4636  1.2920 -0.3987
11491TIP3   OH255887   2.421   1.161  17.216 -0.7768 -0.2689 -0.3657
11491TIP3    H155888   2.486   1.151  17.286 -0.8659  1.0396 -0.0667
11491TIP3    H255889   2.376   1.077  17.212 -0.0057 -0.7307  0.3720
11492TIP3   OH255890   0.325   6.192   0.039 -0.3420 -0.0414  0.1363
11492TIP3    H155891   0.384   6.260   0.070 -1.5391  0.4496  1.4353
11492TIP3    H255892   0.377   6.112   0.043  1.4615  0.8511 -2.4836
11493TIP3   OH255893   0.061   6.451   5.388 -0.1800 -0.4461  0.6203
11493TIP3    H155894  -0.001   6.483   5.454 -1.0446 -0.5260 -0.1276
11493TIP3    H255895   0.041   6.357   5.381 -0.5590 -0.3151 -0.2153
11494TIP3   OH255896   6.741   2.525  16.482 -0.1929  0.0318  0.2550
11494TIP3    H155897   6.820   2.545  16.432 -1.1073 -0.2328 -1.3921
11494TIP3    H255898   6.756   2.563  16.568  1.6487  0.1164 -0.0671
11495TIP3   OH255899   5.471   3.255   2.994  0.0081 -0.4065 -0.0785
11495TIP3    H155900   5.409   3.221   2.929 -1.2032  0.5847  0.5024
11495TIP3    H255901   5.549   3.201   2.984 -0.1234 -0.2763 -2.3705
11496TIP3   OH255902   0.992   4.153   3.683 -0.2164  0.3294 -0.0455
11496TIP3    H155903   1.082   4.186   3.687  0.1369 -0.3815 -1.4882
11496TIP3    H255904   0.955   4.173   3.769  1.3017  0.6943  0.5462
11497TIP3   OH255905   1.977   1.469   4.655 -0.2983 -0.3715 -0.5304
11497TIP3    H155906   1.945   1.432   4.573 -1.0765  0.3790 -0.5869
11497TIP3    H255907   1.899   1.507   4.696  0.2647  0.1815  0.0605
11498TIP3   OH255908   4.924   2.561  11.550  0.2987  0.2080 -0.1605
11498TIP3    H155909   5.007   2.607  11.567 -0.2518  0.0896  3.8232
11498TIP3    H255910   4.942   2.470  11.575 -0.4814 -0.2843 -1.3479
11499TIP3   OH255911   6.441   5.709  11.698  0.1209 -0.2876  0.0826
11499TIP3    H155912   6.530   5.673  11.702  0.6454  0.8221 -0.8036
11499TIP3    H255913   6.454   5.803  11.682 -1.2021  0.1342  1.2459
11500TIP3   OH255914   1.432   5.048  16.262  0.4458 -0.1862  0.0764
11500TIP3    H155915   1.496   5.021  16.329  0.8962  1.0231  0.1645
11500TIP3    H255916   1.353   5.067  16.312  0.7214  0.5218  0.2585
11501TIP3   OH255917   1.780   1.338  16.415  0.1818  0.8182 -0.1129
11501TIP3    H155918   1.693   1.360  16.381 -0.7289  0.9886  2.1336
11501TIP3    H255919   1.816   1.423  16.442  0.0124  0.5139  1.1518
11502TIP3   OH255920   1.534   6.460   6.304 -0.0827  0.3721 -0.2863
11502TIP3    H155921   1.560   6.448   6.213 -0.9507  0.6055 -0.5709
11502TIP3    H255922   1.498   6.548   6.308  1.5716  1.0574  0.6908
11503TIP3   OH255923   5.678   3.543  17.163  0.8727  0.2095  0.2980
11503TIP3    H155924   5.591   3.562  17.199  0.8998 -0.6179  0.8233
11503TIP3    H255925   5.674   3.450  17.140  1.8080  0.0047  0.9003
11504TIP3   OH255926   2.297   4.173   4.813  0.2426  1.0314  0.3493
11504TIP3    H155927   2.365   4.146   4.750 -0.1384 -1.4184  0.8876
11504TIP3    H255928   2.216   4.172   4.762  0.2492  1.3526  0.3315
11505TIP3   OH255929   6.437   6.772  14.082 -0.3635 -0.5958  0.4989
11505TIP3    H155930   6.461   6.755  14.173 -0.6265  0.6356  0.8205
11505TIP3    H255931   6.437   6.867  14.075 -1.0745 -0.6588 -0.5941
11506TIP3   OH255932   5.564   2.354  15.929 -0.0043 -0.3560 -0.9486
11506TIP3    H155933   5.570   2.304  16.010  0.8207  0.2183 -0.6421
11506TIP3    H255934   5.624   2.310  15.869 -0.1587 -0.4257 -1.0504
11507TIP3   OH255935   1.715   1.090   2.265  0.2429 -0.1374 -0.3683
11507TIP3    H155936   1.724   1.020   2.330  0.2576  0.0411 -0.1791
11507TIP3    H255937   1.732   1.046   2.181 -0.6424 -0.5507 -0.3417
11508TIP3   OH255938   4.003   0.017   1.579  0.2397 -0.1012 -0.4498
11508TIP3    H155939   3.967   0.104   1.599  0.5342  0.0763 -0.6817
11508TIP3    H255940   3.938  -0.023   1.522 -1.0135 -0.9256  1.4288
11509TIP3   OH255941   3.571   2.843   1.263  0.5878 -0.2444 -0.3053
11509TIP3    H155942   3.568   2.878   1.174  3.0736 -1.2414 -0.8600
11509TIP3    H255943   3.532   2.912   1.317  0.8628  1.2628 -1.9227
11510TIP3   OH255944   3.340   1.355   5.294  0.0571  0.0775 -0.4141
11510TIP3    H155945   3.332   1.261   5.313 -0.6654  0.3965  0.9521
11510TIP3    H255946   3.434   1.372   5.297  0.2413 -0.6969 -1.2390
11511TIP3   OH255947   6.154   5.518  13.125 -0.4669 -0.4931 -0.4483
11511TIP3    H155948   6.221   5.546  13.062 -0.6596  0.1861 -0.3598
11511TIP3    H255949   6.203   5.473  13.194 -0.0119  0.5836 -0.0464
11512TIP3   OH255950   4.777   0.446   4.031 -0.1953  0.3376 -0.1833
11512TIP3    H155951   4.716   0.393   4.084  0.7554 -1.1236 -0.5046
11512TIP3    H255952   4.738   0.447   3.944  0.1613 -0.4936 -0.3596
11513TIP3   OH255953   3.713   1.981  15.442  0.2784  0.4877  0.3927
11513TIP3    H155954   3.769   2.030  15.382  0.9166 -0.2945  0.3376
11513TIP3    H255955   3.774   1.934  15.499 -0.3123 -0.3350  0.3629
11514TIP3   OH255956   6.516   3.304  11.281  0.2271 -0.3205  0.4549
11514TIP3    H155957   6.603   3.307  11.240  0.6535 -1.5389  1.2368
11514TIP3    H255958   6.504   3.392  11.316  0.4839  0.3180 -0.9585
11515TIP3   OH255959   2.396   2.736   4.189  0.4817 -0.2224 -0.3710
11515TIP3    H155960   2.321   2.696   4.234  0.9163  0.0651  0.6448
11515TIP3    H255961   2.368   2.826   4.171  0.3301 -0.3175 -0.6057
11516TIP3   OH255962   4.192   4.123   4.778  0.1561 -0.1647 -0.0798
11516TIP3    H155963   4.277   4.166   4.774 -1.2148  2.8206 -0.3011
11516TIP3    H255964   4.173   4.099   4.687  0.9238 -1.2880  0.0395
11517TIP3   OH255965   4.889   5.233  13.801 -1.0132  0.0690  0.2158
11517TIP3    H155966   4.925   5.298  13.741  0.0746  0.2999  1.0934
11517TIP3    H255967   4.890   5.151  13.750 -0.0255  0.2433 -0.0832
11518TIP3   OH255968   5.032   3.721   2.656 -0.3643  0.4115 -0.3131
11518TIP3    H155969   5.032   3.728   2.560 -0.1596  0.2676 -0.3228
11518TIP3    H255970   5.125   3.721   2.680 -0.3964 -0.6456 -0.1854
11519TIP3   OH255971   5.917   0.645  17.208  0.6449 -0.3917  0.1765
11519TIP3    H155972   5.914   0.707  17.135  1.3451 -1.0250 -0.4201
11519TIP3    H255973   5.850   0.580  17.187  0.8477 -0.5750  0.0873
11520TIP3   OH255974   1.061   5.866  16.241  0.0082 -0.5344 -0.0657
11520TIP3    H155975   1.122   5.830  16.307 -0.8604 -1.7270  0.1296
11520TIP3    H255976   1.100   5.949  16.216 -0.1888  0.5446  2.8002
11521TIP3   OH255977   3.581   1.334   3.324  0.2443 -0.0555 -0.4046
11521TIP3    H155978   3.570   1.336   3.419  0.5732 -1.4237 -0.3090
11521TIP3    H255979   3.553   1.420   3.294  2.1293  1.1963  1.1411
11522TIP3   OH255980   4.339   6.649  12.236  0.1950  0.2184 -0.4906
11522TIP3    H155981   4.317   6.563  12.200  0.8352 -0.0127 -0.3336
11522TIP3    H255982   4.271   6.665  12.302  0.0992 -0.1908 -0.4881
11523TIP3   OH255983   0.155   6.005  12.976  0.4132 -0.1634 -0.3069
11523TIP3    H155984   0.139   6.002  13.070  1.0420  0.3230 -0.1788
11523TIP3    H255985   0.072   6.032  12.938  0.3358  0.2761  0.1669
11524TIP3   OH255986   3.908   0.879   2.115  0.3005  0.0525 -0.0902
11524TIP3    H155987   3.949   0.933   2.048  0.2161 -0.9575 -0.9887
11524TIP3    H255988   3.901   0.792   2.075 -2.5545  0.1302  0.0641
11525TIP3   OH255989   2.200   0.375  16.458 -0.7475  0.0099 -0.0961
11525TIP3    H155990   2.126   0.422  16.420 -1.1555  0.6106  1.3799
11525TIP3    H255991   2.179   0.366  16.551  1.4579  1.0970  0.5975
11526TIP3   OH255992   2.460   2.756   5.859  0.2699  0.2948  0.4199
11526TIP3    H155993   2.509   2.726   5.935  0.2425  0.2426  0.4169
11526TIP3    H255994   2.381   2.796   5.895  0.1782  0.1198  0.4094
11527TIP3   OH255995   2.327   2.400  14.462 -0.0798 -0.3863 -0.1017
11527TIP3    H155996   2.296   2.377  14.375  1.4719 -1.1564 -0.4848
11527TIP3    H255997   2.369   2.485  14.451 -0.4084 -0.2079  0.0204
11528TIP3   OH255998   1.622   4.789   5.347  0.2924  0.0107 -0.2891
11528TIP3    H155999   1.545   4.845   5.339  0.6148  0.8365  1.6118
11528TIP3    H256000   1.667   4.796   5.263 -1.9711 -0.9710 -1.6593
11529TIP3   OH256001   2.165   3.290  14.668  0.1016  0.3159  0.6435
11529TIP3    H156002   2.244   3.333  14.634  0.0836  0.0746  0.2832
11529TIP3    H256003   2.116   3.360  14.711  0.1201  0.6343  0.1527
11530TIP3   OH256004   4.820   6.053   5.054 -0.7577 -0.4912  0.3851
11530TIP3    H156005   4.809   6.116   5.126 -0.1905 -1.8884  1.7321
11530TIP3    H256006   4.909   6.020   5.064 -0.1662  0.2490 -1.8092
11531TIP3   OH256007   3.131   6.144  16.720  0.5159  0.1179  0.2231
11531TIP3    H156008   3.104   6.175  16.806  0.3602 -0.3277  0.3386
11531TIP3    H256009   3.194   6.074  16.738  0.3500 -0.0968 -0.0192
11532TIP3   OH256010   4.764   6.637  13.648  0.1829 -0.0449 -0.1130
11532TIP3    H156011   4.690   6.593  13.605  0.1855 -0.6941  0.5133
11532TIP3    H256012   4.780   6.714  13.595 -0.7527 -0.0527 -0.4374
11533TIP3   OH256013   4.948   1.089  14.343 -0.5156  0.4679  0.2492
11533TIP3    H156014   5.014   1.158  14.349  1.0230 -1.0372  1.5660
11533TIP3    H256015   4.878   1.117  14.402  0.2828  0.7293  1.0946
11534TIP3   OH256016   3.622   2.090   0.610 -0.6569  0.1214 -0.3343
11534TIP3    H156017   3.684   2.159   0.588 -0.2218 -0.8404 -2.4543
11534TIP3    H256018   3.536   2.128   0.591 -0.3827 -0.0850 -2.2241
11535TIP3   OH256019   4.835   6.698  15.697  0.5668 -0.7161 -0.3037
11535TIP3    H156020   4.765   6.637  15.677  0.8452 -1.7125  1.5551
11535TIP3    H256021   4.877   6.662  15.775  1.0897  1.5381  0.5497
11536TIP3   OH256022   6.273   4.502   2.505  0.2763 -0.2079 -0.4951
11536TIP3    H156023   6.289   4.415   2.542  0.5448  0.2762  0.5583
11536TIP3    H256024   6.347   4.518   2.447  0.2330 -0.6660 -0.6822
11537TIP3   OH256025   0.940   2.808   1.208 -0.4394  0.4575 -0.1970
11537TIP3    H156026   0.959   2.721   1.171 -0.7961  1.2224 -2.3075
11537TIP3    H256027   0.858   2.796   1.256 -1.1296 -0.1440 -1.4715
11538TIP3   OH256028   4.299   2.814  12.821 -0.2349 -0.3604 -0.7168
11538TIP3    H156029   4.277   2.807  12.728  0.0996 -0.0950 -0.8192
11538TIP3    H256030   4.394   2.802  12.824 -0.0268  1.1453 -0.5832
11539TIP3   OH256031   5.969   2.611  12.186  0.5300 -0.0693  0.6267
11539TIP3    H156032   5.922   2.694  12.186 -0.0370 -0.3662 -0.4918
11539TIP3    H256033   5.949   2.573  12.101 -0.1785 -1.9043  1.5718
11540TIP3   OH256034   4.582   3.982   4.425 -0.0950 -0.1661 -0.1096
11540TIP3    H156035   4.544   3.979   4.512 -1.3552 -1.5617 -0.6564
11540TIP3    H256036   4.608   4.073   4.413 -0.8257  0.2605  1.3362
11541TIP3   OH256037   4.620   6.147  14.665 -0.1247  0.3787  0.0148
11541TIP3    H156038   4.683   6.218  14.679 -0.3500  0.3832  1.1074
11541TIP3    H256039   4.633   6.121  14.574  1.7504  0.0981  0.3236
11542TIP3   OH256040   1.920   3.028   0.918  0.2451  0.0287  0.0142
11542TIP3    H156041   1.979   3.051   0.990 -0.2157 -1.7690  1.0309
11542TIP3    H256042   1.972   2.972   0.861 -0.2431 -1.0040  0.5560
11543TIP3   OH256043   3.869   1.148  10.930  0.1370  0.0757 -0.2734
11543TIP3    H156044   3.940   1.194  10.883 -0.3776 -0.0657 -1.2160
11543TIP3    H256045   3.912   1.073  10.970  0.7773  0.7455  0.3212
11544TIP3   OH256046   2.300   3.386   5.262  0.4069  0.1502 -0.1374
11544TIP3    H156047   2.394   3.381   5.277  0.1153 -0.9241  1.7102
11544TIP3    H256048   2.263   3.405   5.348 -1.2128 -2.0411 -0.2554
11545TIP3   OH256049   1.872   6.003   5.110 -0.5176 -0.4628  0.6687
11545TIP3    H156050   1.956   6.040   5.085  0.0578 -1.4320  1.1284
11545TIP3    H256051   1.808   6.071   5.087  0.0124 -0.9318 -2.6825
11546TIP3   OH256052   3.641   4.546   1.927  0.0178  0.5687  0.2633
11546TIP3    H156053   3.697   4.606   1.975 -0.7098 -0.2320  2.2573
11546TIP3    H256054   3.589   4.602   1.869  0.3954  1.7008  0.9844
11547TIP3   OH256055   3.126   0.073   2.307 -0.1180 -0.3976  0.0541
11547TIP3    H156056   3.052   0.106   2.357  2.0157  2.4500  1.6361
11547TIP3    H256057   3.110  -0.021   2.299 -4.1933  0.1732 -0.4117
11548TIP3   OH256058   1.693   0.622  15.272  0.0347 -0.0573 -0.4882
11548TIP3    H156059   1.600   0.644  15.265  0.0061 -0.4687 -1.5873
11548TIP3    H256060   1.695   0.543  15.326 -0.3582 -0.6467 -1.3148
11549TIP3   OH256061   5.031   3.168  14.800  0.0800 -0.6265 -0.0463
11549TIP3    H156062   5.097   3.198  14.863 -0.4451 -0.2374  0.3273
11549TIP3    H256063   4.983   3.248  14.776  1.2952 -0.4676 -2.1706
11550TIP3   OH256064   1.406   3.716  13.519  1.0642  0.0613  0.4544
11550TIP3    H156065   1.466   3.766  13.574  1.0530  1.3116 -0.6162
11550TIP3    H256066   1.438   3.729  13.430 -0.0822 -0.2445 -0.0302
11551TIP3   OH256067   0.991   1.089  11.028  0.3607  0.5930  0.4487
11551TIP3    H156068   0.898   1.094  11.049  0.1038  0.8155 -0.6806
11551TIP3    H256069   1.004   1.156  10.960  0.9182 -0.7684 -0.8371
11552TIP3   OH256070   6.657   5.553   1.260 -0.3664 -0.1088  0.6970
11552TIP3    H156071   6.750   5.533   1.263 -0.5476 -1.3005 -0.3427
11552TIP3    H256072   6.631   5.563   1.351  1.1055  2.0731  0.9362
11553TIP3   OH256073   1.461   0.980   1.030  0.1929 -0.5725  0.0905
11553TIP3    H156074   1.412   0.973   0.948  1.8404  0.7299 -1.0714
11553TIP3    H256075   1.544   0.937   1.013  1.7002  2.1240  0.0284
11554TIP3   OH256076   1.124   4.669   1.024 -0.3834 -0.1277 -0.4688
11554TIP3    H156077   1.187   4.708   1.085  1.5997 -1.7041 -1.3760
11554TIP3    H256078   1.073   4.609   1.078 -0.5530  0.5708  0.1492
11555TIP3   OH256079   2.144   5.280  14.128  0.2634  0.1629  0.1024
11555TIP3    H156080   2.112   5.307  14.213 -0.4728  1.3748 -0.5359
11555TIP3    H256081   2.085   5.209  14.101  0.6896 -0.4349  0.7152
11556TIP3   OH256082   1.030   3.586   2.688  0.1745  0.5420  0.0304
11556TIP3    H156083   1.063   3.667   2.728  1.3325  0.0691  0.0798
11556TIP3    H256084   0.988   3.615   2.608 -1.4226  1.4210  1.1267
11557TIP3   OH256085   6.566   0.628   1.105  0.3502  0.0354 -0.1595
11557TIP3    H156086   6.496   0.566   1.084  1.8216 -2.1037  0.9437
11557TIP3    H256087   6.641   0.598   1.055  0.5343  2.3814 -1.4385
11558TIP3   OH256088   0.548   0.796   2.851  0.0307 -0.5388 -0.0002
11558TIP3    H156089   0.595   0.860   2.905  0.3546 -1.5488  0.9632
11558TIP3    H256090   0.592   0.713   2.869 -1.0154 -1.2041 -0.4415
11559TIP3   OH256091   0.846   4.580   1.947 -0.0253 -0.3041  0.6811
11559TIP3    H156092   0.926   4.618   1.911 -1.2793  0.2811 -1.6698
11559TIP3    H256093   0.782   4.651   1.947 -0.9478 -1.1028  1.1760
11560TIP3   OH256094   3.339   4.387   5.751  0.2338  0.5669 -0.0468
11560TIP3    H156095   3.261   4.410   5.700  0.5270 -0.6427 -1.0699
11560TIP3    H256096   3.308   4.389   5.842 -1.1139 -0.2938 -0.4503
11561TIP3   OH256097   3.841   3.123  17.154 -0.3922  0.5975 -0.4949
11561TIP3    H156098   3.819   3.066  17.228  1.7132  1.2168  0.7208
11561TIP3    H256099   3.768   3.184  17.147 -1.3983 -0.5216 -0.0200
11562TIP3   OH256100   4.844   2.481   5.795  0.0471 -0.1755 -0.0863
11562TIP3    H156101   4.768   2.495   5.852 -0.0876  1.4947 -0.6033
11562TIP3    H256102   4.823   2.530   5.716  1.7379  0.5009 -0.1628
11563TIP3   OH256103   3.702   4.218   4.700  0.4999 -0.3191  0.3738
11563TIP3    H156104   3.776   4.275   4.677 -2.2928  3.1676 -0.8394
11563TIP3    H256105   3.677   4.178   4.617 -1.5327  2.0039 -0.2484
11564TIP3   OH256106   0.122   4.631  13.311 -0.5649 -0.2411  0.0530
11564TIP3    H156107   0.047   4.577  13.285  0.5203 -0.7972 -2.1811
11564TIP3    H256108   0.189   4.612  13.245  0.9764  1.4702  1.0400
11565TIP3   OH256109   5.742   6.443  15.128 -0.0197 -0.0503  0.0946
11565TIP3    H156110   5.723   6.356  15.165  0.7042 -0.6439 -0.8998
11565TIP3    H256111   5.780   6.492  15.201 -1.4743 -0.1824  0.9840
11566TIP3   OH256112   0.966   0.868   0.754 -0.2114  0.7391  0.2032
11566TIP3    H156113   0.900   0.868   0.823 -0.9212  1.7003 -0.4448
11566TIP3    H256114   1.023   0.943   0.774  1.3965 -0.7305  1.3786
11567TIP3   OH256115   0.942   2.292   1.774 -0.1929  0.0498 -0.1621
11567TIP3    H156116   0.849   2.309   1.793 -0.0853  0.2199  0.2187
11567TIP3    H256117   0.947   2.295   1.679 -0.0230  3.1399 -0.1727
11568TIP3   OH256118   6.761   0.428  11.059  0.4760 -0.7132 -0.1371
11568TIP3    H156119   6.734   0.337  11.071  0.5027 -0.4847  2.0319
11568TIP3    H256120   6.786   0.433  10.967 -2.3524 -2.1378 -1.1232
11569TIP3   OH256121   2.751   6.667   4.936  0.2880 -0.3809 -0.7260
11569TIP3    H156122   2.779   6.743   4.987  0.2288  0.8946 -2.4712
11569TIP3    H256123   2.670   6.638   4.977  1.5939 -1.1076  1.4778
11570TIP3   OH256124   6.024   2.273  14.327  0.6183  0.0668  0.2003
11570TIP3    H156125   6.081   2.203  14.357  1.5134  0.8552  0.3985
11570TIP3    H256126   5.968   2.232  14.260  1.5585 -0.6733 -0.1524
11571TIP3   OH256127   1.269   1.459  12.559 -0.3671 -0.4440  0.5542
11571TIP3    H156128   1.226   1.476  12.643 -2.3426 -0.4907 -0.3768
11571TIP3    H256129   1.241   1.532  12.503  0.9510 -0.3926 -0.0788
11572TIP3   OH256130   3.797   1.855   4.669 -0.6328 -0.2730  0.3137
11572TIP3    H156131   3.759   1.772   4.639 -2.3600  1.3757 -2.4468
11572TIP3    H256132   3.721   1.907   4.695  0.0366  1.6401 -1.3426
11573TIP3   OH256133   0.410   0.180   3.373 -0.1421  0.1089 -0.4432
11573TIP3    H156134   0.397   0.269   3.339  0.1971  0.3035 -0.0682
11573TIP3    H256135   0.505   0.172   3.383 -0.1252 -0.4962 -1.0002
11574TIP3   OH256136   4.860   2.029  11.849  0.6186 -0.1783  0.4156
11574TIP3    H156137   4.784   2.030  11.791 -0.1252  1.6083  1.3434
11574TIP3    H256138   4.935   2.023  11.790 -0.1742 -3.5051 -0.4803
11575TIP3   OH256139   3.500   0.694  15.916 -0.5302 -0.1141  0.4858
11575TIP3    H156140   3.503   0.603  15.886  0.9877 -0.4494  1.5374
11575TIP3    H256141   3.535   0.691  16.005  0.1792  1.5857  0.3021
11576TIP3   OH256142   4.255   2.010  15.292  0.0900  0.3672 -0.4325
11576TIP3    H156143   4.219   2.074  15.353  0.7897  1.2501 -0.9121
11576TIP3    H256144   4.179   1.969  15.253 -0.3812 -0.8533  1.6482
11577TIP3   OH256145   6.504   0.507  13.578  0.1159  0.4103 -0.6309
11577TIP3    H156146   6.518   0.439  13.643 -0.4720 -0.2937 -1.2173
11577TIP3    H256147   6.453   0.464  13.509 -0.1671  1.4101 -1.0684
11578TIP3   OH256148   1.282   3.210   5.330 -0.2390  0.1681 -0.2247
11578TIP3    H156149   1.324   3.157   5.262 -0.1441  0.0677 -0.0868
11578TIP3    H256150   1.354   3.256   5.373 -0.1926 -0.4894  0.4346
11579TIP3   OH256151   4.439   2.753   4.331 -0.0264 -0.5895  0.2634
11579TIP3    H156152   4.436   2.832   4.278 -1.6759  1.5672  3.2892
11579TIP3    H256153   4.348   2.733   4.349  0.4161 -2.5179  0.5690
11580TIP3   OH256154   1.512   4.983   1.883  0.0834 -0.0820  0.2658
11580TIP3    H156155   1.418   4.997   1.891 -0.2764 -1.7565 -0.6532
11580TIP3    H256156   1.545   4.986   1.973 -0.7105  1.1663  0.5472
11581TIP3   OH256157   0.473   2.414   6.026 -0.5175 -0.1553  0.0938
11581TIP3    H156158   0.444   2.467   5.952 -1.8846 -0.7230  0.1976
11581TIP3    H256159   0.416   2.440   6.098  2.0895  1.8968  1.6290
11582TIP3   OH256160   2.349   1.140   1.080 -0.2086  0.1046 -0.6711
11582TIP3    H156161   2.290   1.215   1.071 -0.5994  0.0755  1.2661
11582TIP3    H256162   2.428   1.177   1.121  0.9845  0.0463 -2.7611
11583TIP3   OH256163   3.937   5.104   5.466  0.5375  0.0935  0.1725
11583TIP3    H156164   3.978   5.191   5.465 -0.8476  0.7763 -0.1683
11583TIP3    H256165   3.941   5.074   5.376 -0.7461  0.6933 -0.1028
11584TIP3   OH256166   5.057   5.464  13.729 -0.3689  0.7520  0.5498
11584TIP3    H156167   5.098   5.537  13.775  1.6116  0.4212 -0.5674
11584TIP3    H256168   5.020   5.504  13.650 -1.0798  0.8563  0.9360
11585TIP3   OH256169   5.984   4.147  15.839 -0.3417 -0.4732  0.3418
11585TIP3    H156170   6.026   4.151  15.753  0.5740  1.5003  0.8214
11585TIP3    H256171   5.929   4.225  15.842 -1.2951 -1.1505  1.1237
11586TIP3   OH256172   6.171   0.741   3.518  0.6290  0.2699  0.4893
11586TIP3    H156173   6.167   0.660   3.568  0.3653 -0.2294 -0.3263
11586TIP3    H256174   6.100   0.795   3.555  0.7944  0.1332  1.0167
11587TIP3   OH256175   4.682   5.909  16.932  0.7736  0.0754 -0.4660
11587TIP3    H156176   4.625   5.952  16.868  1.2683  0.6964 -0.4928
11587TIP3    H256177   4.715   5.980  16.987  0.4394 -0.4402  0.4263
11588TIP3   OH256178   3.293   3.394   4.938  0.2317  0.3350 -0.1859
11588TIP3    H156179   3.281   3.387   5.033 -0.7058  1.6573 -0.1875
11588TIP3    H256180   3.204   3.405   4.904  0.5893  0.1534 -1.2083
11589TIP3   OH256181   2.141   0.036  12.390 -0.2759  0.1114  0.3380
11589TIP3    H156182   2.201   0.069  12.323  0.5030  0.9468  1.4086
11589TIP3    H256183   2.197   0.002  12.459 -1.0595 -0.3656  0.7600
11590TIP3   OH256184   5.485   4.868  15.653 -0.2124 -0.0604  0.1367
11590TIP3    H156185   5.425   4.866  15.578  0.2531  0.4402 -0.2543
11590TIP3    H256186   5.552   4.804  15.631  0.5749  0.9257 -0.4433
11591TIP3   OH256187   6.623   0.506   2.864  0.1892 -0.6426 -0.2379
11591TIP3    H156188   6.653   0.463   2.944 -0.5253 -1.1339 -0.2242
11591TIP3    H256189   6.528   0.496   2.865 -0.0078  0.8679 -0.2836
11592TIP3   OH256190   2.167   2.576  13.584  0.0867  0.0705  0.2231
11592TIP3    H156191   2.098   2.509  13.587 -0.1643  0.2953 -0.4780
11592TIP3    H256192   2.175   2.599  13.492 -1.6158  2.8716  0.6581
11593TIP3   OH256193   5.738   6.206  11.803 -0.1419  0.0763  0.1886
11593TIP3    H156194   5.827   6.239  11.809 -0.1179  0.3812 -1.5190
11593TIP3    H256195   5.683   6.280  11.829  0.0746  0.0479  0.7384
11594TIP3   OH256196   0.131   1.808  14.571  0.0363  0.0700  0.6501
11594TIP3    H156197   0.162   1.843  14.655  1.0582  1.1946 -0.1749
11594TIP3    H256198   0.194   1.839  14.507 -1.8004  0.8997 -0.8344
11595TIP3   OH256199   3.764   0.675  12.507  0.7005  0.2767 -0.0539
11595TIP3    H156200   3.757   0.586  12.541  0.5043  0.1112 -0.5234
11595TIP3    H256201   3.738   0.730  12.580  1.5113 -0.0105  0.4696
11596TIP3   OH256202   1.859   5.792  16.028 -0.1766  0.3577 -0.1518
11596TIP3    H156203   1.826   5.732  16.095  0.9556 -2.2783 -1.7866
11596TIP3    H256204   1.785   5.806  15.970 -0.2329 -0.1129 -0.1955
11597TIP3   OH256205   0.227   1.920   0.605 -0.5113 -0.0653  0.1527
11597TIP3    H156206   0.257   1.902   0.515 -0.2319  0.7917  0.0561
11597TIP3    H256207   0.243   2.014   0.616 -0.7571 -0.1210  1.0260
11598TIP3   OH256208   4.014   1.037  11.610  0.0768  0.7508  0.0287
11598TIP3    H156209   4.045   0.957  11.652 -0.4730 -0.0170 -0.9838
11598TIP3    H256210   3.992   1.096  11.683  1.7398  0.4962  0.7634
11599TIP3   OH256211   2.385   4.413   1.183 -0.3599  0.5994 -0.1341
11599TIP3    H156212   2.343   4.479   1.128 -1.6898  0.9869  1.2777
11599TIP3    H256213   2.314   4.355   1.211  0.5353 -0.5334 -0.0815
11600TIP3   OH256214   3.651   1.560   3.716  0.2161  0.5495 -0.1526
11600TIP3    H156215   3.708   1.613   3.661 -0.6811 -0.0086 -1.6716
11600TIP3    H256216   3.694   1.560   3.802  1.3287  1.9405 -0.6758
11601TIP3   OH256217   4.140   3.893  16.278 -0.2166  0.2752 -0.1223
11601TIP3    H156218   4.227   3.854  16.285 -0.7160 -1.1859 -1.4996
11601TIP3    H256219   4.107   3.894  16.368  0.6330 -0.5643  0.2103
11602TIP3   OH256220   6.368   1.055  12.838  0.1015  0.3216  0.1238
11602TIP3    H156221   6.324   1.135  12.863  0.3484  0.6024 -0.3200
11602TIP3    H256222   6.379   1.006  12.920  1.0303  1.2828  0.5928
11603TIP3   OH256223   5.202   1.437   0.643  0.0553  0.5418 -0.1098
11603TIP3    H156224   5.241   1.470   0.561 -2.8759  0.5415 -1.6541
11603TIP3    H256225   5.190   1.516   0.697  2.0434  0.5401  0.4082
11604TIP3   OH256226   2.337   6.696   1.277 -0.1372 -0.3750  0.3302
11604TIP3    H156227   2.386   6.634   1.223 -0.1662  1.0186 -1.3856
11604TIP3    H256228   2.263   6.645   1.311  1.3188 -1.9614  1.2747
11605TIP3   OH256229   6.207   2.863  14.800  0.3615  0.2704  0.3426
11605TIP3    H156230   6.135   2.840  14.742  2.0202 -2.4650 -0.8561
11605TIP3    H256231   6.283   2.869  14.742  2.4446 -4.2954  2.0693
11606TIP3   OH256232   2.957   5.787  11.003  0.4861  0.0087 -0.1541
11606TIP3    H156233   2.959   5.877  11.036  1.2845  0.3783 -1.1569
11606TIP3    H256234   2.943   5.797  10.909  1.0756 -0.8953 -0.3478
11607TIP3   OH256235   3.319   5.606  16.176 -0.2432  0.4914 -0.1979
11607TIP3    H156236   3.332   5.612  16.271  0.4411 -1.6690 -0.0920
11607TIP3    H256237   3.317   5.697  16.146  1.6886  1.2138  1.6189
11608TIP3   OH256238   4.309   5.839   1.003 -0.2743 -0.2081 -0.9054
11608TIP3    H156239   4.379   5.778   0.979  0.1778 -0.3448  0.6700
11608TIP3    H256240   4.247   5.786   1.053 -0.3518  0.4146 -0.3333
11609TIP3   OH256241   1.029   4.343  14.475 -0.3669  0.4503 -0.5503
11609TIP3    H156242   1.041   4.297  14.392  2.7141  0.3631 -0.1963
11609TIP3    H256243   1.016   4.273  14.539 -2.7073  0.5160 -0.8841
11610TIP3   OH256244   1.011   2.678  10.648  0.2833  0.1149 -0.8488
11610TIP3    H156245   0.929   2.679  10.600  0.2771  1.0130 -0.8284
11610TIP3    H256246   0.991   2.720  10.732  0.5897 -0.3211 -0.5482
11611TIP3   OH256247   3.448   4.411  16.303  0.1726  0.2240 -0.0321
11611TIP3    H156248   3.528   4.463  16.310  0.2842  0.2280 -1.1294
11611TIP3    H256249   3.416   4.427  16.214 -0.5110 -0.5462  0.0568
11612TIP3   OH256250   2.655   3.966  13.270  0.4460 -0.0657  0.5663
11612TIP3    H156251   2.700   3.885  13.246 -0.0866 -0.2009  0.0002
11612TIP3    H256252   2.569   3.937  13.300 -0.7711  0.4277 -2.1514
11613TIP3   OH256253   3.298   2.845  10.961  0.7799  0.0335  0.1172
11613TIP3    H156254   3.272   2.757  10.989  1.2474  0.4622  2.0349
11613TIP3    H256255   3.292   2.843  10.865 -3.1850 -0.8405  0.2400
11614TIP3   OH256256   3.997   0.370   5.721  0.0099 -0.2688  0.4059
11614TIP3    H156257   4.006   0.380   5.627 -0.2063 -0.2889  0.3811
11614TIP3    H256258   4.009   0.276   5.737  0.6881 -0.1724  0.4766
11615TIP3   OH256259   0.240   0.684  15.367 -0.7936 -0.1055  0.3268
11615TIP3    H156260   0.170   0.742  15.395 -0.0093  0.6424  0.7913
11615TIP3    H256261   0.255   0.706  15.275 -0.7048  0.2214  0.4183
11616TIP3   OH256262   1.097   1.000  15.587 -0.4739 -0.0823  0.5744
11616TIP3    H156263   1.093   0.946  15.508 -1.0214  0.6348  0.0982
11616TIP3    H256264   1.190   1.002  15.610 -0.1998  0.3199 -0.4951
11617TIP3   OH256265   6.279   4.418  16.644  0.5942  0.4592  0.1179
11617TIP3    H156266   6.259   4.349  16.581  2.7134  0.9364 -1.1842
11617TIP3    H256267   6.210   4.411  16.710 -0.9622 -0.9237 -1.5460
11618TIP3   OH256268   2.872   5.117   4.334  0.2202 -0.0140  0.0389
11618TIP3    H156269   2.787   5.154   4.357 -0.3642 -1.1549 -0.2060
11618TIP3    H256270   2.895   5.063   4.410 -0.1557 -1.1605 -0.6417
11619TIP3   OH256271   4.651   4.759   3.603  0.1667  0.0432 -0.6443
11619TIP3    H156272   4.600   4.687   3.639  0.8050 -1.0361 -1.7980
11619TIP3    H256273   4.627   4.762   3.511 -0.2860  1.7192 -0.4994
11620TIP3   OH256274   5.042   3.884   0.046  0.3232  0.4921 -0.5241
11620TIP3    H156275   5.110   3.951   0.050  1.8426 -0.8072 -2.5166
11620TIP3    H256276   5.056   3.830   0.124  1.6076  0.2465 -0.9095
11621TIP3   OH256277   4.941   0.800   2.140  0.2861  0.0312  0.1365
11621TIP3    H156278   4.910   0.836   2.223 -1.8379  0.6907 -0.8601
11621TIP3    H256279   4.902   0.712   2.135 -0.9319  0.5826 -0.7970
11622TIP3   OH256280   4.144   6.282   1.763  0.4469  0.8385  0.1587
11622TIP3    H156281   4.167   6.265   1.854  0.9527  0.1615 -0.0879
11622TIP3    H256282   4.062   6.331   1.768  0.4775  0.8215  0.9773
11623TIP3   OH256283   2.995   5.866  14.894 -0.3059  0.0884 -1.0089
11623TIP3    H156284   2.942   5.798  14.936 -0.9648  1.0114 -0.2875
11623TIP3    H256285   3.085   5.838  14.907 -0.5820 -0.9737 -1.3079
11624TIP3   OH256286   2.100   1.265  14.694 -0.0935 -0.0679 -0.4733
11624TIP3    H156287   2.037   1.275  14.765  1.2899  0.8673  0.6846
11624TIP3    H256288   2.117   1.171  14.690 -2.0888 -0.4332 -1.3332
11625TIP3   OH256289   6.349   4.565  11.984  0.3533 -0.0992 -0.3458
11625TIP3    H156290   6.335   4.659  11.988 -1.2439 -0.3238  0.0969
11625TIP3    H256291   6.345   4.544  11.891 -0.2097  0.1478 -0.3785
11626TIP3   OH256292   5.637   5.039  16.150 -0.6498 -0.7757 -0.5282
11626TIP3    H156293   5.720   5.038  16.197 -0.1430 -1.0406 -1.4122
11626TIP3    H256294   5.571   5.044  16.219  0.1384  1.5236  0.1481
11627TIP3   OH256295   5.918   0.880   3.654  0.4035  0.4144 -0.0963
11627TIP3    H156296   5.910   0.814   3.722 -1.0297  1.8930  1.2435
11627TIP3    H256297   5.963   0.953   3.696 -0.9673  1.5614 -0.5434
11628TIP3   OH256298   3.893   1.089   3.933  0.5363  0.2255  0.2271
11628TIP3    H156299   3.974   1.039   3.949 -1.1037 -2.1815  1.6272
11628TIP3    H256300   3.880   1.083   3.839  2.4085  1.4782 -0.1848
11629TIP3   OH256301   3.568   5.249  13.008 -0.0349 -0.7049  0.1701
11629TIP3    H156302   3.507   5.185  13.044 -0.9377  0.5837  0.9988
11629TIP3    H256303   3.524   5.333  13.019  2.0496  0.3210  1.1733
11630TIP3   OH256304   3.351   2.047  14.459 -0.0045 -0.8114  0.3922
11630TIP3    H156305   3.379   2.135  14.484  0.1983 -1.0567  1.0417
11630TIP3    H256306   3.298   2.060  14.380  0.6864 -0.1908  0.0158
11631TIP3   OH256307   4.600   3.453  11.774  0.6299 -0.2840  0.0889
11631TIP3    H156308   4.535   3.512  11.735  0.5976 -0.4169 -0.0588
11631TIP3    H256309   4.684   3.491  11.750  0.6138 -0.5850 -0.4456
11632TIP3   OH256310   1.443   1.432  12.344 -0.1086  0.0660  0.0570
11632TIP3    H156311   1.396   1.421  12.426  0.4827 -0.7962  0.2909
11632TIP3    H256312   1.377   1.419  12.276 -0.2638 -0.8971  0.3821
11633TIP3   OH256313   2.455   1.033  12.574  0.2716  1.1060 -0.1122
11633TIP3    H156314   2.549   1.033  12.559  0.4972 -0.0623  1.1199
11633TIP3    H256315   2.419   1.086  12.502  1.8168  1.2638 -0.8061
11634TIP3   OH256316   0.056   5.203   0.087  0.3653  0.0570 -0.4948
11634TIP3    H156317   0.058   5.294   0.059 -0.4663 -0.2862 -1.7049
11634TIP3    H256318   0.129   5.162   0.042  1.0826  0.2189  0.4775
11635TIP3   OH256319   0.184   3.619   2.254 -0.6742  0.1878 -0.5235
11635TIP3    H156320   0.209   3.693   2.198  0.5542 -0.5407 -0.9891
11635TIP3    H256321   0.192   3.543   2.197 -0.0787 -0.5002  0.4421
11636TIP3   OH256322   0.319   2.922  13.941 -0.3190  0.5306  0.2591
11636TIP3    H156323   0.384   2.974  13.990 -0.0106  0.3314  0.0685
11636TIP3    H256324   0.252   2.985  13.917  1.3817  1.5193 -2.3876
11637TIP3   OH256325   4.038   2.455   5.351  0.4171 -0.0690  0.2530
11637TIP3    H156326   3.989   2.491   5.426 -2.7274 -0.7619 -1.3093
11637TIP3    H256327   4.093   2.387   5.389  1.1995  1.5710  2.2848
11638TIP3   OH256328   5.083   1.736   3.716  0.1285 -0.4644 -0.1363
11638TIP3    H156329   5.036   1.685   3.782 -0.3208  0.6048  0.4154
11638TIP3    H256330   5.171   1.747   3.753 -0.4749  1.1898  0.9448
11639TIP3   OH256331   4.544   1.959  12.509 -0.5027  0.0173 -0.3547
11639TIP3    H156332   4.526   1.983  12.600  2.2116  1.3562 -0.0711
11639TIP3    H256333   4.609   1.889  12.516 -0.9435 -0.5020 -1.2845
11640TIP3   OH256334   4.654   5.700   2.412 -0.6158  0.1685 -0.6313
11640TIP3    H156335   4.710   5.750   2.352 -0.0062 -0.1719 -0.3513
11640TIP3    H256336   4.715   5.665   2.477 -1.2753  0.5907  0.2319
11641TIP3   OH256337   1.268   2.704  11.988 -0.1757  0.3202  0.0398
11641TIP3    H156338   1.294   2.654  12.066 -1.3102 -0.5941 -0.1307
11641TIP3    H256339   1.315   2.662  11.916  1.1109  1.3574  0.2368
11642TIP3   OH256340   6.235   0.084   1.018  0.3850  0.2027  0.5605
11642TIP3    H156341   6.214   0.033   0.940 -0.2407 -0.3337  1.0680
11642TIP3    H256342   6.163   0.145   1.027  0.2709  0.0191  0.9192
11643TIP3   OH256343   2.074   0.875  12.555  0.2992  0.2820 -0.2925
11643TIP3    H156344   2.122   0.888  12.473 -0.5514 -1.0688 -1.0439
11643TIP3    H256345   2.014   0.949  12.560  0.6515  0.5951 -0.6875
11644TIP3   OH256346   2.128   5.929   6.226 -0.0822 -0.1810 -0.5619
11644TIP3    H156347   2.051   5.884   6.261  0.0440 -0.9956 -1.2783
11644TIP3    H256348   2.099   6.019   6.211 -0.8338 -0.4217 -0.6168
11645TIP3   OH256349   4.618   6.360  14.980 -0.1076 -0.3485  0.3790
11645TIP3    H156350   4.542   6.333  15.032 -0.6382  1.0779  0.3735
11645TIP3    H256351   4.677   6.401  15.043 -1.4591  2.8955 -0.2466
11646TIP3   OH256352   1.625   5.813  13.185 -0.2396  0.1240  0.4123
11646TIP3    H156353   1.587   5.899  13.170 -0.2256  0.1461  0.5046
11646TIP3    H256354   1.663   5.788  13.101 -1.2426 -0.2873  0.0711
11647TIP3   OH256355   4.469   0.756  16.702 -0.2361  0.1812 -0.1839
11647TIP3    H156356   4.453   0.846  16.729 -0.6967 -0.3119  1.2347
11647TIP3    H256357   4.391   0.732  16.652  0.7951  1.2268 -2.4352
11648TIP3   OH256358   0.336   2.581   1.108  0.3444 -0.5137 -0.0961
11648TIP3    H156359   0.278   2.611   1.178  1.1059  1.3579 -0.1947
11648TIP3    H256360   0.278   2.539   1.045 -0.5842 -0.6855  0.8473
11649TIP3   OH256361   0.254   3.530  12.870 -0.9076 -0.8424 -0.4807
11649TIP3    H156362   0.182   3.592  12.884  1.5386  2.1294  0.1417
11649TIP3    H256363   0.297   3.524  12.955  0.7078 -0.9368 -1.2695
11650TIP3   OH256364   4.182   4.324  16.181 -0.1665 -0.3248  0.0214
11650TIP3    H156365   4.173   4.231  16.159 -0.2526  0.1922 -2.3719
11650TIP3    H256366   4.275   4.334  16.200 -0.2724 -1.0115  0.9951
11651TIP3   OH256367   6.536   3.106   5.882 -0.1991  0.5611  0.0604
11651TIP3    H156368   6.584   3.072   5.958  0.9026 -0.0278 -0.8806
11651TIP3    H256369   6.445   3.110   5.912  0.0057 -0.9509  0.9827
11652TIP3   OH256370   0.772   0.635  11.027 -0.5849 -0.1637  0.2934
11652TIP3    H156371   0.827   0.668  11.097  0.4529  0.9187 -0.9715
11652TIP3    H256372   0.819   0.657  10.946 -1.2806 -2.1781 -0.7409
11653TIP3   OH256373   1.996   4.633   6.438 -0.1621  0.4958  0.4172
11653TIP3    H156374   1.937   4.691   6.389  1.3114  0.8606 -0.9779
11653TIP3    H256375   2.047   4.693   6.493 -0.7840  0.2037  1.3583
11654TIP3   OH256376   5.952   6.516  13.051  0.3370  0.2798 -0.1214
11654TIP3    H156377   6.025   6.567  13.015 -0.0461 -0.6553 -2.4247
11654TIP3    H256378   5.984   6.426  13.051 -0.8663 -0.1867 -1.4716
11655TIP3   OH256379   6.229   3.683   4.776 -0.4644  0.0488  0.7631
11655TIP3    H156380   6.224   3.717   4.865 -1.0895  2.5231 -0.1419
11655TIP3    H256381   6.143   3.642   4.762 -0.9045  0.9291  0.8292
11656TIP3   OH256382   3.277   1.683  13.622 -0.3484 -0.2648  0.9064
11656TIP3    H156383   3.345   1.661  13.558  0.0840 -1.7796  1.8471
11656TIP3    H256384   3.196   1.684  13.572 -0.3196 -3.5272  0.6385
11657TIP3   OH256385   4.043   2.990  10.484  0.4603 -0.3820  0.7895
11657TIP3    H156386   3.953   3.005  10.458  0.6104 -0.0951  0.4200
11657TIP3    H256387   4.045   3.005  10.578  0.6276  2.1434  0.4424
11658TIP3   OH256388   0.140   3.918   4.979  0.0044 -0.3192  0.1346
11658TIP3    H156389   0.129   3.988   5.044 -0.1650 -1.7421  1.6883
11658TIP3    H256390   0.191   3.959   4.909  0.6063  1.1542  1.3668
11659TIP3   OH256391   4.564   3.081   5.160  0.1051 -0.1743 -0.0895
11659TIP3    H156392   4.558   3.122   5.247 -0.9944 -2.3707  0.9265
11659TIP3    H256393   4.489   3.116   5.112  0.0925  0.2094  0.2018
11660TIP3   OH256394   1.014   6.434  15.511  0.7398 -0.3956  0.1193
11660TIP3    H156395   0.944   6.369  15.507 -0.7134  1.0330  0.9572
11660TIP3    H256396   1.086   6.389  15.554  0.0629 -1.6908 -0.0545
11661TIP3   OH256397   0.288   2.774   3.037 -0.5930  0.1450 -0.3134
11661TIP3    H156398   0.348   2.700   3.028 -2.4751 -1.4299 -0.6540
11661TIP3    H256399   0.257   2.768   3.128 -0.8299  0.4399 -0.3748
11662TIP3   OH256400   6.774   5.743  17.249  0.4408  0.0683  0.2152
11662TIP3    H156401   6.705   5.683  17.222  0.3836 -0.0095  0.5289
11662TIP3    H256402   6.762   5.820  17.193  0.8854 -0.4402 -0.5976
11663TIP3   OH256403   0.152   5.792   1.163 -0.0286  0.6689  0.0323
11663TIP3    H156404   0.068   5.827   1.136  0.0851  0.5984 -0.4223
11663TIP3    H256405   0.213   5.865   1.156 -0.4763  1.3901  2.6413
11664TIP3   OH256406   4.689   3.173  16.933 -1.5628  0.2295 -0.4992
11664TIP3    H156407   4.708   3.234  16.862  1.7844  0.1673  0.1873
11664TIP3    H256408   4.700   3.226  17.013 -2.5670 -0.3748  0.0689
11665TIP3   OH256409   0.368   5.222  12.285  0.0590  0.3273  0.2791
11665TIP3    H156410   0.345   5.150  12.226  0.0493  0.3129  0.3007
11665TIP3    H256411   0.388   5.296  12.227  1.7240 -0.1502  0.1923
11666TIP3   OH256412   4.923   5.425   0.554  0.3095 -0.1982  0.6448
11666TIP3    H156413   4.859   5.496   0.545 -1.6422 -2.0106 -0.9023
11666TIP3    H256414   4.924   5.406   0.648 -0.4759  0.7019  0.8592
11667TIP3   OH256415   4.748   0.335  16.637  0.0068 -0.1273  0.1646
11667TIP3    H156416   4.723   0.427  16.632  1.9307  0.6462  2.6822
11667TIP3    H256417   4.689   0.297  16.702  0.9787  0.0450  1.1673
11668TIP3   OH256418   0.800   4.501  12.042  0.1126 -0.0166  0.2198
11668TIP3    H156419   0.765   4.414  12.024 -0.3416 -0.0409  1.2004
11668TIP3    H256420   0.852   4.522  11.964  1.6830 -1.8837  0.6746
11669TIP3   OH256421   2.676   5.812   5.113  0.1802  0.2444 -0.5716
11669TIP3    H156422   2.762   5.770   5.115  0.2375  0.3361 -0.9916
11669TIP3    H256423   2.628   5.764   5.045 -0.4686 -0.5089  0.4013
11670TIP3   OH256424   1.387   5.098   6.559  0.1257  0.4533 -0.2432
11670TIP3    H156425   1.471   5.140   6.540 -0.3223  0.7245 -1.8432
11670TIP3    H256426   1.328   5.132   6.491 -1.3790  0.5669  1.0718
11671TIP3   OH256427   6.200   1.900  15.071  0.5256 -0.1695 -0.1070
11671TIP3    H156428   6.143   1.872  15.143  1.6287 -1.3348  0.3439
11671TIP3    H256429   6.140   1.937  15.006 -0.6122 -0.2260  0.8767
11672TIP3   OH256430   3.655   0.953   4.634 -0.5835 -0.0840  0.4140
11672TIP3    H156431   3.569   0.991   4.652 -1.7140 -1.1303 -2.2749
11672TIP3    H256432   3.650   0.864   4.669 -0.8138 -0.3262 -0.2236
11673TIP3   OH256433   6.312   5.279   2.924 -0.7730 -0.1191 -0.3237
11673TIP3    H156434   6.369   5.352   2.900 -1.1676  0.2764 -0.0656
11673TIP3    H256435   6.372   5.210   2.951 -0.4178  0.4107  0.2827
11674TIP3   OH256436   2.888   5.399  12.340 -0.2542  0.0125  0.3359
11674TIP3    H156437   2.900   5.492  12.358  2.2905 -0.0811 -0.5007
11674TIP3    H256438   2.930   5.355  12.413 -1.4420 -0.5158  0.7254
11675TIP3   OH256439   1.743   2.157  12.616  0.0886  1.0171 -0.2137
11675TIP3    H156440   1.776   2.076  12.654 -0.8341  1.4063  1.5280
11675TIP3    H256441   1.819   2.196  12.574  0.3218 -1.2276 -2.0349
11676TIP3   OH256442   2.966   4.083   3.154  0.2223 -0.0194  0.4663
11676TIP3    H156443   2.900   4.046   3.213 -0.7069 -2.3727 -1.8246
11676TIP3    H256444   3.010   4.006   3.117  0.3885  1.2836 -2.2605
11677TIP3   OH256445   4.049   6.477   4.836 -0.0716 -0.7243 -0.0334
11677TIP3    H156446   4.081   6.475   4.746  0.5711  0.8091  0.1344
11677TIP3    H256447   3.957   6.451   4.829 -0.0041 -0.7243 -1.1148
11678TIP3   OH256448   4.539   3.337   1.233 -0.2863  0.7758  0.2660
11678TIP3    H156449   4.618   3.368   1.277  0.2722 -0.1528 -0.0637
11678TIP3    H256450   4.476   3.323   1.303  0.2289  0.3901  0.6560
11679TIP3   OH256451   0.291   4.311  13.814 -0.3154  0.1274 -0.2996
11679TIP3    H156452   0.272   4.382  13.752  1.0800 -0.1231 -1.0404
11679TIP3    H256453   0.376   4.334  13.852  0.2812 -1.2788 -0.7464
11680TIP3   OH256454   2.020   1.248  12.036  0.2267  0.0193  0.3509
11680TIP3    H156455   1.988   1.200  11.959  1.3552 -0.7498  0.3398
11680TIP3    H256456   1.965   1.216  12.108  0.6118 -0.9040  0.2458
11681TIP3   OH256457   5.789   4.443   5.113 -0.0798  0.4947  0.0899
11681TIP3    H156458   5.824   4.529   5.138 -1.3050  1.8351 -2.3588
11681TIP3    H256459   5.863   4.398   5.072  0.1313  1.1841 -0.3077
11682TIP3   OH256460   0.798   2.963   2.274 -0.1669  0.1873 -0.0625
11682TIP3    H156461   0.708   2.978   2.303 -0.8297  0.3996 -2.0616
11682TIP3    H256462   0.826   3.048   2.239  0.6685  0.0121  0.1542
11683TIP3   OH256463   4.485   6.756   0.005 -0.0761  0.2121  0.5389
11683TIP3    H156464   4.470   6.802   0.087 -1.0666 -0.3726  0.6948
11683TIP3    H256465   4.578   6.772  -0.014  0.6461 -1.0226  2.6323
11684TIP3   OH256466   5.482   3.525  13.478 -0.5589  0.0875 -0.1939
11684TIP3    H156467   5.391   3.496  13.487 -0.5421  0.2078  0.4189
11684TIP3    H256468   5.530   3.445  13.459 -0.3451 -0.5714  2.6322
11685TIP3   OH256469   4.384   1.569  12.492 -0.1444  0.4556 -0.6881
11685TIP3    H156470   4.439   1.624  12.548  1.5145 -1.1754 -0.6126
11685TIP3    H256471   4.310   1.625  12.468  0.7085  2.2055  0.5642
11686TIP3   OH256472   4.575   6.761  13.385 -0.2301  0.3845 -0.7453
11686TIP3    H156473   4.483   6.741  13.403 -0.6777  1.3874 -1.7773
11686TIP3    H256474   4.591   6.842  13.434  0.2828 -0.0921 -0.1115
11687TIP3   OH256475   0.958   3.964   0.057 -0.1388  0.4730 -0.8644
11687TIP3    H156476   0.912   4.015   0.124  0.4724  0.9233 -0.7759
11687TIP3    H256477   0.893   3.952  -0.013 -0.0693  2.0448 -1.2282
11688TIP3   OH256478   0.000   2.176   1.265 -0.2735 -0.4959  0.4624
11688TIP3    H156479  -0.022   2.095   1.311 -1.2221 -1.0158 -0.8801
11688TIP3    H256480  -0.008   2.155   1.172 -0.2443  1.0583  0.0776
11689TIP3   OH256481   5.683   1.551   2.731 -0.1155 -0.3434  0.3357
11689TIP3    H156482   5.592   1.581   2.738  0.4631  1.7845 -0.5837
11689TIP3    H256483   5.708   1.568   2.640  1.5560  0.1588  0.8513
11690TIP3   OH256484   4.513   0.039  13.052 -0.5940  0.4071  0.7687
11690TIP3    H156485   4.549   0.067  13.136  0.5200  1.5633 -0.0577
11690TIP3    H256486   4.572  -0.030  13.022 -0.6820  0.3614  0.6994
11691TIP3   OH256487   0.605   1.792   1.884  0.3063 -0.3467  0.2269
11691TIP3    H156488   0.625   1.725   1.818  0.4470  1.5543 -1.7651
11691TIP3    H256489   0.513   1.813   1.870  0.0595 -0.6419  1.3555
11692TIP3   OH256490   3.174   3.795  15.403 -0.0720  0.3214  0.6114
11692TIP3    H156491   3.229   3.760  15.333  0.9957  2.7292  0.1499
11692TIP3    H256492   3.224   3.869  15.438 -1.6976  0.7132  2.2555
11693TIP3   OH256493   0.128   3.063   5.407  0.7031 -0.1897  0.1578
11693TIP3    H156494   0.183   3.086   5.481 -0.2028 -0.8218  1.0554
11693TIP3    H256495   0.185   3.009   5.351  0.4397 -2.7972  2.1829
11694TIP3   OH256496   5.888   5.194   3.285 -0.0612 -0.0302  0.7054
11694TIP3    H156497   5.838   5.221   3.207 -1.4644 -2.1851  0.7736
11694TIP3    H256498   5.978   5.186   3.253 -0.2074  1.2880 -0.1212
11695TIP3   OH256499   5.314   1.654   0.485  0.3458 -0.0489 -0.7396
11695TIP3    H156500   5.385   1.640   0.548 -0.3619 -1.1824 -0.1693
11695TIP3    H256501   5.321   1.747   0.462  1.2772  0.1364  0.1968
11696TIP3   OH256502   4.435   2.568   5.081 -0.1799  0.6135  0.1807
11696TIP3    H156503   4.391   2.546   5.162 -1.1881 -0.5592 -0.6552
11696TIP3    H256504   4.486   2.647   5.102  0.4046 -0.2461  2.1966
11697TIP3   OH256505   6.511   0.384   0.320  0.4550  0.2316  0.3221
11697TIP3    H156506   6.582   0.439   0.288  0.7537 -0.1770  0.2715
11697TIP3    H256507   6.434   0.414   0.273  0.1627  2.0394  1.8337
11698TIP3   OH256508   3.921   3.525  11.884  0.8086 -0.1617 -0.0233
11698TIP3    H156509   3.918   3.458  11.816 -0.5376  0.1443 -0.2985
11698TIP3    H256510   3.992   3.498  11.942 -0.3717 -2.4158  0.4725
11699TIP3   OH256511   3.831   5.006  15.652 -0.2152 -0.4093  0.6603
11699TIP3    H156512   3.770   5.006  15.579  0.9866 -1.2265 -0.3867
11699TIP3    H256513   3.776   4.993  15.729 -1.3837 -0.8370 -0.2109
11700TIP3   OH256514   0.722   5.650   1.414 -0.5921 -0.1403  0.0844
11700TIP3    H156515   0.667   5.576   1.388  1.6846 -2.3524  1.1121
11700TIP3    H256516   0.752   5.628   1.502  2.9495  0.1334 -0.8645
11701TIP3   OH256517   2.405   4.460   0.707  0.0180  0.2470  0.2707
11701TIP3    H156518   2.427   4.439   0.798 -0.6105 -0.2303  0.3201
11701TIP3    H256519   2.426   4.553   0.698  0.0271  0.3115  0.9187
11702TIP3   OH256520   4.907   2.333   4.208  0.0250  0.0431 -0.0424
11702TIP3    H156521   4.915   2.273   4.282 -1.2142  1.5672  1.4073
11702TIP3    H256522   4.855   2.285   4.143  1.3265 -1.4020 -0.0627
11703TIP3   OH256523   6.552   4.195   6.577 -0.4071  0.8994  0.0081
11703TIP3    H156524   6.514   4.229   6.658 -1.3278  1.7214 -0.7539
11703TIP3    H256525   6.594   4.113   6.603 -0.7437  1.1193  1.2997
11704TIP3   OH256526   2.498   0.988   4.145  0.3153  0.3775 -0.2640
11704TIP3    H156527   2.566   0.921   4.141 -0.2122 -0.1299 -1.2944
11704TIP3    H256528   2.536   1.059   4.196  0.2163 -1.4293  2.4907
11705TIP3   OH256529   3.095   3.352  15.523  0.5974 -0.2340  0.3444
11705TIP3    H156530   3.074   3.341  15.430  1.0168 -1.2255  0.3483
11705TIP3    H256531   3.188   3.376  15.524  0.6772 -0.5411  0.5153
11706TIP3   OH256532   4.399   3.293  12.124  0.2042 -0.4903 -0.2835
11706TIP3    H156533   4.425   3.226  12.187  2.1076  0.7129  0.3010
11706TIP3    H256534   4.335   3.347  12.172 -0.6243 -1.3088 -0.4416
11707TIP3   OH256535   2.249   0.721  15.082 -0.0081 -0.2146 -0.2582
11707TIP3    H156536   2.315   0.710  15.151  0.6490  1.9868 -0.4737
11707TIP3    H256537   2.218   0.811  15.093 -0.5652 -0.1284 -2.2554
11708TIP3   OH256538   2.519   4.428   1.634  0.5347  0.1342  0.1517
11708TIP3    H156539   2.532   4.342   1.673 -0.3101 -1.5009 -2.8416
11708TIP3    H256540   2.608   4.463   1.623  1.0136 -1.1030 -0.0439
11709TIP3   OH256541   4.677   5.557  12.603  0.4424 -0.0035  0.3544
11709TIP3    H156542   4.763   5.514  12.597 -0.2025 -1.9966  3.4552
11709TIP3    H256543   4.691   5.628  12.665 -0.0726 -0.0678  0.5422
11710TIP3   OH256544   2.681   1.004   3.720 -0.1092  0.3144 -0.5280
11710TIP3    H156545   2.592   1.015   3.686  0.5447  0.9199 -2.1341
11710TIP3    H256546   2.700   0.911   3.708 -0.7194  0.0777  0.3252
11711TIP3   OH256547   1.064   4.502  14.080  0.1695 -0.1891  0.3586
11711TIP3    H156548   1.092   4.487  13.989 -0.2405 -1.0944  0.3697
11711TIP3    H256549   1.067   4.597  14.091  0.1887 -0.0695 -0.6163
11712TIP3   OH256550   1.070   4.922  15.830 -0.0530  0.5092  0.4625
11712TIP3    H156551   1.017   4.969  15.765 -0.5676 -2.1250 -1.1585
11712TIP3    H256552   1.158   4.959  15.818 -0.6099  1.7539 -0.0253
11713TIP3   OH256553   4.405   5.317  16.945 -0.5953  0.2878  0.0505
11713TIP3    H156554   4.423   5.384  16.879  1.0912  1.0431  1.2156
11713TIP3    H256555   4.491   5.292  16.979 -1.2511 -1.8222  0.3059
11714TIP3   OH256556   4.236   0.673   4.770 -0.1371  0.3427  0.1759
11714TIP3    H156557   4.262   0.764   4.756 -1.6407  0.8296  0.2922
11714TIP3    H256558   4.264   0.653   4.859  0.7502  0.4817 -0.0673
11715TIP3   OH256559   4.448   2.799  16.688  0.3214  0.2730  0.0665
11715TIP3    H156560   4.472   2.814  16.597  1.1903 -0.2630  0.1882
11715TIP3    H256561   4.423   2.885  16.721 -1.2738  0.2595 -1.0105
11716TIP3   OH256562   1.416   4.438  14.580 -0.0118  0.5521 -0.1504
11716TIP3    H156563   1.368   4.441  14.663  0.4415  0.3460  0.1200
11716TIP3    H256564   1.488   4.499  14.592  0.1994  0.3328 -0.3063
11717TIP3   OH256565   0.433   0.677   6.343 -0.0590 -0.0451  0.1243
11717TIP3    H156566   0.515   0.638   6.312 -0.4793 -1.8664  1.1830
11717TIP3    H256567   0.456   0.767   6.365  0.8678  0.5529 -2.7974
11718TIP3   OH256568   4.668   5.592  13.543 -0.2128  0.4898  0.7174
11718TIP3    H156569   4.573   5.599  13.540 -0.1509  1.7899  1.3500
11718TIP3    H256570   4.698   5.673  13.586  1.1625  0.0245  0.7053
11719TIP3   OH256571   5.782   2.348   1.969 -0.1630  0.0071 -0.0588
11719TIP3    H156572   5.862   2.401   1.972  1.0293 -1.7765  0.8757
11719TIP3    H256573   5.798   2.277   2.031 -3.5573  1.0381  2.2534
11720TIP3   OH256574   6.564   4.756   1.524  0.5440 -0.2671 -0.5012
11720TIP3    H156575   6.653   4.733   1.552 -0.3835 -0.8217  2.3398
11720TIP3    H256576   6.557   4.849   1.543 -0.0044 -0.5935  1.0928
11721TIP3   OH256577   3.179   1.803   4.493 -0.4125  0.6927  0.6676
11721TIP3    H156578   3.242   1.870   4.519 -0.9697  2.2394 -1.5792
11721TIP3    H256579   3.099   1.852   4.474 -0.7420 -0.5249 -1.3938
11722TIP3   OH256580   3.812   1.602  14.429  0.2140 -0.1083  0.2782
11722TIP3    H156581   3.827   1.697  14.436  3.2946 -0.5022  0.7522
11722TIP3    H256582   3.724   1.589  14.463 -1.9655  2.9403 -3.3969
11723TIP3   OH256583   2.917   4.450   4.978  0.3412 -0.3773  0.4355
11723TIP3    H156584   2.969   4.372   4.961 -1.3800 -1.7287  1.1122
11723TIP3    H256585   2.869   4.430   5.059  0.4167  1.6894  1.0499
11724TIP3   OH256586   3.445   4.567   3.486 -0.0787 -0.3422 -0.0758
11724TIP3    H156587   3.453   4.645   3.431  0.8831 -0.5724 -0.2825
11724TIP3    H256588   3.513   4.577   3.552 -0.1131 -0.8824  0.0440
11725TIP3   OH256589   2.993   4.506  15.871 -0.0336  0.1007 -0.0380
11725TIP3    H156590   3.002   4.437  15.938  1.5557  0.6549  0.3685
11725TIP3    H256591   2.929   4.471  15.809  1.0963 -1.9800 -0.1244
11726TIP3   OH256592   5.563   1.789  11.513 -0.1509  0.2958 -0.3817
11726TIP3    H156593   5.636   1.748  11.559 -0.1700 -1.5376 -1.8854
11726TIP3    H256594   5.497   1.803  11.581  0.7467 -0.0537  0.5971
11727TIP3   OH256595   0.398   2.433  14.329 -0.7294 -0.3469 -0.4284
11727TIP3    H156596   0.340   2.363  14.360 -2.4967  0.6264 -1.3822
11727TIP3    H256597   0.396   2.426  14.234  0.3925 -0.0012 -0.4955
11728TIP3   OH256598   4.433   1.173   4.460 -0.2159  0.2750  0.0184
11728TIP3    H156599   4.458   1.251   4.510 -1.7708  1.1923 -0.5596
11728TIP3    H256600   4.394   1.115   4.525  1.9197 -0.5515  0.6563
11729TIP3   OH256601   0.239   1.916  12.701 -0.3088 -0.1618  0.5499
11729TIP3    H156602   0.275   1.889  12.617 -1.2899 -0.6609  0.2766
11729TIP3    H256603   0.146   1.892  12.697 -0.8541  1.7008  0.9569
11730TIP3   OH256604   2.806   3.156   3.938  0.3743  0.4311  0.0150
11730TIP3    H156605   2.747   3.231   3.931 -0.3564 -0.0849  0.4901
11730TIP3    H256606   2.813   3.140   4.032  1.1645  0.3959 -0.0501
11731TIP3   OH256607   0.949   6.290  16.745  0.2502 -0.3763  0.2155
11731TIP3    H156608   0.993   6.298  16.829  2.7017 -1.7683 -0.8231
11731TIP3    H256609   0.938   6.196  16.733 -1.4439 -0.1259 -0.3785
11732TIP3   OH256610   1.028   2.257   4.014  0.3707 -0.0116  0.0890
11732TIP3    H156611   1.004   2.182   3.960  2.5109 -0.9230  0.3112
11732TIP3    H256612   1.019   2.333   3.956 -1.0246 -0.5040 -0.3759
11733TIP3   OH256613   3.246   0.473   2.199  0.3924 -0.1330 -0.0177
11733TIP3    H156614   3.232   0.434   2.112  2.5341  1.2540 -1.0866
11733TIP3    H256615   3.218   0.564   2.189  2.4128  0.5625  0.0782
11734TIP3   OH256616   6.145   5.242  12.822  0.1656 -0.6633 -0.1752
11734TIP3    H156617   6.085   5.305  12.862  1.1655 -0.0367  0.3662
11734TIP3    H256618   6.231   5.264  12.858  1.2758  0.4519 -3.2066
11735TIP3   OH256619   0.667   1.247   0.127 -0.0733 -0.1230 -0.0125
11735TIP3    H156620   0.654   1.197   0.047 -1.5671  0.7252 -0.3611
11735TIP3    H256621   0.714   1.326   0.099  1.1166 -0.7060  0.3030
11736TIP3   OH256622   4.510   1.977  13.296 -0.7808  0.0123  0.0192
11736TIP3    H156623   4.424   2.012  13.270 -0.9970  0.0176  0.7196
11736TIP3    H256624   4.553   2.049  13.341 -0.7162 -0.2256  0.3435
11737TIP3   OH256625   5.170   3.146   3.912  0.1324 -0.3073 -0.4210
11737TIP3    H156626   5.105   3.191   3.858 -0.7959  0.7610  1.4768
11737TIP3    H256627   5.177   3.200   3.991  1.6414 -1.6344  0.4072
11738TIP3   OH256628   4.486   3.518   3.097  0.5076 -0.6385 -0.1351
11738TIP3    H156629   4.442   3.455   3.154  3.0762 -1.1336  1.4581
11738TIP3    H256630   4.545   3.464   3.044  0.8995  0.2063 -0.5654
11739TIP3   OH256631   3.117   5.503   5.722 -0.3225  0.9155  0.1067
11739TIP3    H156632   3.034   5.469   5.687  0.0719  0.3155 -0.2626
11739TIP3    H256633   3.127   5.457   5.806  1.5307 -2.0498 -1.5623
11740TIP3   OH256634   4.236   0.145  12.587  0.3747 -0.5437  0.0805
11740TIP3    H156635   4.188   0.219  12.623 -1.2414 -0.5930 -1.8391
11740TIP3    H256636   4.314   0.139  12.642 -0.5360  1.1600  1.6805
11741TIP3   OH256637   5.360   4.334  17.019 -0.2901 -0.1804 -0.3480
11741TIP3    H156638   5.284   4.341  16.961 -0.3995 -1.3008 -0.3709
11741TIP3    H256639   5.435   4.329  16.959 -0.4570 -2.0415 -0.4698
11742TIP3   OH256640   6.685   3.225  13.539 -0.6048  0.1179 -0.2823
11742TIP3    H156641   6.719   3.247  13.452  1.0662  1.8894  0.7362
11742TIP3    H256642   6.762   3.197  13.589 -1.1995  0.9270  1.1458
11743TIP3   OH256643   4.497   5.603  15.497  0.1224  0.3629  0.3029
11743TIP3    H156644   4.486   5.634  15.407 -0.8930  1.2887  0.7146
11743TIP3    H256645   4.517   5.682  15.547  1.0679 -0.2021  0.8426
11744TIP3   OH256646   5.506   1.880   6.555 -0.2653 -0.0470 -0.4208
11744TIP3    H156647   5.462   1.935   6.621  0.4475 -1.7275  1.5423
11744TIP3    H256648   5.590   1.924   6.540  0.7519 -1.0629  1.9274
11745TIP3   OH256649   0.314   3.544   1.671  0.2597 -0.2581 -0.0768
11745TIP3    H156650   0.298   3.638   1.667 -0.7575 -0.4335 -0.2640
11745TIP3    H256651   0.404   3.537   1.703 -0.1925  0.7431  1.5282
11746TIP3   OH256652   4.180   5.813  13.199  0.1805 -0.2057 -0.1577
11746TIP3    H156653   4.119   5.808  13.126 -0.9055  1.1873  0.6178
11746TIP3    H256654   4.145   5.752  13.264 -0.0015  0.0648  0.0008
11747TIP3   OH256655   1.486   1.818   1.583  0.2785  0.3982 -0.3214
11747TIP3    H156656   1.500   1.757   1.656  0.0693 -0.2369 -0.7989
11747TIP3    H256657   1.441   1.893   1.622  0.4198  0.1877  0.2531
11748TIP3   OH256658   3.972   6.021  11.866  0.1856  0.0904 -0.2614
11748TIP3    H156659   3.942   5.943  11.818 -1.4005  0.3547  0.2302
11748TIP3    H256660   4.066   6.009  11.874  0.8003  0.5225 -4.3186
11749TIP3   OH256661   0.029   5.898  12.085 -0.9420  0.0773  0.0745
11749TIP3    H156662   0.003   5.836  12.153  0.4947 -1.7265 -0.9462
11749TIP3    H256663   0.087   5.959  12.130 -0.3347 -0.8505  0.5945
11750TIP3   OH256664   2.383   5.654   3.463  0.2570 -0.4999 -0.4993
11750TIP3    H156665   2.442   5.724   3.491 -0.1284  0.2959 -1.5955
11750TIP3    H256666   2.314   5.699   3.414 -0.8435 -1.4953  0.0721
11751TIP3   OH256667   4.958   0.167  10.886  0.4208 -0.2969  0.3002
11751TIP3    H156668   5.037   0.217  10.864  0.7594 -0.2817  1.4486
11751TIP3    H256669   4.921   0.214  10.960 -1.0229  0.0409 -0.6097
11752TIP3   OH256670   0.558   4.720   6.068 -0.3515  0.3580 -0.1346
11752TIP3    H156671   0.551   4.766   6.152  0.7026  0.3184 -0.0002
11752TIP3    H256672   0.646   4.682   6.070 -0.5781 -0.2291 -0.9676
11753TIP3   OH256673   4.772   2.706  15.374 -0.0242  0.0618 -0.3526
11753TIP3    H156674   4.746   2.783  15.323  1.7817  0.3425 -0.8999
11753TIP3    H256675   4.848   2.735  15.424 -0.7205 -0.7211  1.2502
11754TIP3   OH256676   2.080   3.766  16.550 -0.1510  0.8199  0.8806
11754TIP3    H156677   2.160   3.763  16.498 -0.7821  1.1226 -0.1498
11754TIP3    H256678   2.104   3.729  16.635  0.8395  0.0284  0.2745
11755TIP3   OH256679   1.737   5.761   1.562  0.5670 -0.4773 -0.3354
11755TIP3    H156680   1.788   5.824   1.614 -1.7839  1.5765 -0.3257
11755TIP3    H256681   1.742   5.679   1.611 -0.6067  1.0791  2.6002
11756TIP3   OH256682   2.390   3.705  13.694  0.0458  0.2041  0.5028
11756TIP3    H156683   2.372   3.702  13.600  0.4945  0.9221  0.3883
11756TIP3    H256684   2.357   3.621  13.727 -2.1254  0.8043  0.0716
11757TIP3   OH256685   0.497   2.073   3.253  0.2498  0.4651 -0.2086
11757TIP3    H156686   0.451   2.147   3.293 -0.4141 -0.4693  0.8241
11757TIP3    H256687   0.586   2.106   3.238 -0.0665  1.5102  0.1116
11758TIP3   OH256688   3.574   6.498  11.372 -0.3666 -0.6589  0.9191
11758TIP3    H156689   3.552   6.432  11.306  0.2868  0.1737 -0.1797
11758TIP3    H256690   3.494   6.508  11.424 -1.8591  0.5095 -1.3922
11759TIP3   OH256691   6.457   2.431  13.340 -0.5305 -0.0098 -0.8017
11759TIP3    H156692   6.490   2.343  13.325  3.4286  1.1343  0.1042
11759TIP3    H256693   6.464   2.474  13.254  1.9262  0.5855 -0.3852
11760TIP3   OH256694   0.129   0.754  16.337  0.2875 -0.3093  0.4620
11760TIP3    H156695   0.146   0.833  16.284  1.3475 -0.5120  0.4805
11760TIP3    H256696   0.114   0.685  16.272  0.5419 -0.3361  0.4293
11761TIP3   OH256697   6.766   3.409  16.430 -0.2772  0.2204  0.0672
11761TIP3    H156698   6.769   3.488  16.484  0.1726 -0.1826  0.6386
11761TIP3    H256699   6.713   3.435  16.354 -0.4806  0.9479  0.4397
11762TIP3   OH256700   0.103   0.802   5.933  0.3989 -1.3087 -0.1252
11762TIP3    H156701   0.037   0.780   5.999 -0.2700 -2.3426 -1.1096
11762TIP3    H256702   0.053   0.842   5.862  1.4163  2.4512  1.0410
11763TIP3   OH256703   1.627   1.321   3.234 -0.4889  0.0699  0.2326
11763TIP3    H156704   1.714   1.287   3.256 -0.5657  0.5306  1.2642
11763TIP3    H256705   1.639   1.416   3.228 -0.8517  0.1048  0.0178
11764TIP3   OH256706   4.168   0.171   6.447 -0.3375  0.1036  0.5821
11764TIP3    H156707   4.088   0.160   6.395 -0.2113  1.1955  0.1295
11764TIP3    H256708   4.164   0.261   6.477  1.1277  0.4372 -0.1580
11765TIP3   OH256709   1.403   5.179  15.007 -0.4576  0.3330 -0.2346
11765TIP3    H156710   1.427   5.254  15.063 -0.7594 -0.0877  0.4684
11765TIP3    H256711   1.345   5.217  14.941  1.7727  1.3036 -1.7496
11766TIP3   OH256712   1.474   0.679   4.449  0.3316  0.1993  0.5080
11766TIP3    H156713   1.511   0.767   4.453  0.9704 -0.0595  0.4583
11766TIP3    H256714   1.537   0.629   4.396 -1.4463  0.4147 -2.0086
11767TIP3   OH256715   5.565   0.175   5.306  0.1179  0.4703 -0.4885
11767TIP3    H156716   5.473   0.165   5.332  0.0137 -0.8769 -1.2902
11767TIP3    H256717   5.563   0.227   5.226  0.0032 -0.0102 -0.8007
11768TIP3   OH256718   1.475   1.509  14.128 -0.0001  0.0284  0.0957
11768TIP3    H156719   1.452   1.599  14.153 -0.7648 -0.5811  1.7167
11768TIP3    H256720   1.390   1.466  14.117  0.3220 -1.0374  1.4987
11769TIP3   OH256721   5.197   3.105  16.355  0.1064  0.0763  0.3110
11769TIP3    H156722   5.230   3.060  16.433  0.0662  0.8460  0.7819
11769TIP3    H256723   5.260   3.082  16.286  0.6153  0.0510  0.7722
11770TIP3   OH256724   1.280   0.008   3.910 -0.0268  0.3405  0.4221
11770TIP3    H156725   1.323  -0.051   3.847 -2.2610 -0.1654 -0.7157
11770TIP3    H256726   1.316  -0.018   3.995  1.2431 -0.6402 -0.3766
11771TIP3   OH256727   1.742   0.815   4.968 -0.4376  0.5730 -0.2090
11771TIP3    H156728   1.710   0.883   4.909 -2.5075  0.0660  0.2457
11771TIP3    H256729   1.666   0.759   4.984  0.7435 -0.8141  0.8633
11772TIP3   OH256730   4.537   3.900   3.635  0.0140  0.2970  0.0458
11772TIP3    H156731   4.527   3.950   3.716  1.4984  0.9808 -0.1607
11772TIP3    H256732   4.541   3.967   3.566  0.9791 -0.1481 -0.3457
11773TIP3   OH256733   4.680   5.667   5.579 -0.4269  0.9103 -0.3817
11773TIP3    H156734   4.613   5.727   5.610 -1.6183 -0.8834  0.6669
11773TIP3    H256735   4.675   5.592   5.638 -0.4325 -1.1631 -2.8524
11774TIP3   OH256736   0.540   5.561  11.835  0.1746  0.7620  0.1744
11774TIP3    H156737   0.599   5.515  11.775  0.0375  0.9546 -0.1120
11774TIP3    H256738   0.590   5.638  11.863 -0.6708  2.0656 -1.6976
11775TIP3   OH256739   2.966   5.613  11.693 -0.1966 -0.0858 -0.5054
11775TIP3    H156740   3.037   5.553  11.712 -0.8972 -0.4769  1.0407
11775TIP3    H256741   2.893   5.557  11.667 -1.0652 -0.0132  1.6147
11776TIP3   OH256742   2.379   1.480  17.250  0.1113  0.2490 -0.0435
11776TIP3    H156743   2.343   1.423  17.319  1.2422 -0.4445 -0.0051
11776TIP3    H256744   2.433   1.421  17.196 -0.1459  0.9339 -1.0849
11777TIP3   OH256745   4.218   3.737   5.186  0.0090  0.4879 -0.1778
11777TIP3    H156746   4.199   3.643   5.186 -2.0302  0.8262 -1.6841
11777TIP3    H256747   4.308   3.744   5.157  0.1644 -0.9936 -0.1298
11778TIP3   OH256748   5.643   4.248   1.083 -0.2932  0.3640  0.9877
11778TIP3    H156749   5.580   4.308   1.123 -2.4392  0.1642 -1.7403
11778TIP3    H256750   5.687   4.301   1.017 -0.1759 -0.3422  0.4843
11779TIP3   OH256751   5.524   1.674  14.010  0.1014  0.3668 -0.4225
11779TIP3    H156752   5.527   1.770  14.015 -3.6429  0.5646  1.4640
11779TIP3    H256753   5.562   1.645  14.092  0.7652  0.2269 -0.7731
11780TIP3   OH256754   4.643   1.786  16.198 -0.3760 -0.3073  0.3495
11780TIP3    H156755   4.663   1.748  16.112  1.8179 -0.5866  0.9373
11780TIP3    H256756   4.564   1.739  16.226 -1.1580 -0.1887 -1.4849
11781TIP3   OH256757   1.107   4.073   4.248 -0.1606  0.3059 -0.1687
11781TIP3    H156758   1.104   4.048   4.340  1.5478  0.4648 -0.0216
11781TIP3    H256759   1.021   4.110   4.230 -0.5169  0.3142  1.3771
11782TIP3   OH256760   1.318   2.239  12.878 -0.0009  0.1565  0.2170
11782TIP3    H156761   1.294   2.332  12.881  0.2123  0.2319 -0.2717
11782TIP3    H256762   1.397   2.237  12.824 -1.2648 -0.5649 -1.7088
11783TIP3   OH256763   3.384   2.171   4.440 -0.6785 -0.0242 -0.4977
11783TIP3    H156764   3.424   2.088   4.464  1.5756  0.8934 -0.8233
11783TIP3    H256765   3.332   2.151   4.362 -0.0365 -1.1019 -0.6729
11784TIP3   OH256766   4.972   2.762  15.016 -0.0646 -0.1321  0.4244
11784TIP3    H156767   4.947   2.853  15.000 -0.8619 -0.3228  0.5447
11784TIP3    H256768   5.023   2.765  15.097  1.8273  0.4930 -0.7183
11785TIP3   OH256769   6.155   0.107   5.817 -0.4945 -0.3363 -0.5230
11785TIP3    H156770   6.231   0.051   5.801  0.9030  0.7830  1.6798
11785TIP3    H256771   6.099   0.055   5.875  1.1055  0.6183  2.0509
11786TIP3   OH256772   0.055   4.025  11.304 -0.2996  0.4858 -0.7892
11786TIP3    H156773  -0.031   3.983  11.297 -0.8709  1.5516 -0.3207
11786TIP3    H256774   0.118   3.954  11.288 -1.2638 -0.2809 -1.2386
11787TIP3   OH256775   3.792   5.335   3.318  0.2731  0.1837  0.4102
11787TIP3    H156776   3.702   5.364   3.327 -0.0618 -0.8843  0.6206
11787TIP3    H256777   3.841   5.387   3.382  0.0873  1.8524 -0.7588
11788TIP3   OH256778   1.072   0.075  14.002  0.4392 -0.0249  0.4200
11788TIP3    H156779   0.978   0.058  14.003  0.7185 -1.7573  0.8841
11788TIP3    H256780   1.112  -0.008  14.028  2.1360  0.4715 -0.4277
11789TIP3   OH256781   3.662   3.888  14.633  0.5917 -0.0307  0.3323
11789TIP3    H156782   3.703   3.927  14.711 -0.8443  1.7927  0.2436
11789TIP3    H256783   3.730   3.894  14.565  1.5430 -0.8153  1.1670
11790TIP3   OH256784   5.709   2.732   3.042  0.5050  0.3621  0.2386
11790TIP3    H156785   5.702   2.689   3.127  2.4086  0.7926  0.6619
11790TIP3    H256786   5.634   2.700   2.993  0.3083 -1.2505  1.4884
11791TIP3   OH256787   4.102   5.613   1.472  0.0058  0.6210  0.2032
11791TIP3    H156788   4.145   5.593   1.555  1.4766  2.1975 -0.1109
11791TIP3    H256789   4.169   5.598   1.406 -0.7714  0.5306 -0.5880
11792TIP3   OH256790   1.375   1.989   1.861  0.1538 -0.9335  0.1954
11792TIP3    H156791   1.298   1.939   1.835  0.5470 -1.0070 -0.8782
11792TIP3    H256792   1.340   2.067   1.904 -0.6080 -0.0798 -1.8697
11793TIP3   OH256793   2.966   5.952   5.471  0.1870 -0.3931 -0.4852
11793TIP3    H156794   2.995   5.877   5.523  1.1845  0.2205 -0.1224
11793TIP3    H256795   2.890   5.985   5.518  1.6459  0.7378  1.2026
11794TIP3   OH256796   0.786   5.172   6.338  0.1620  0.3537 -0.5876
11794TIP3    H156797   0.809   5.124   6.259 -1.8327  0.8121 -1.4881
11794TIP3    H256798   0.725   5.115   6.385 -0.0598  0.8354 -0.2783
11795TIP3   OH256799   1.570   1.693  12.302  0.2904 -0.2955 -0.3207
11795TIP3    H156800   1.524   1.609  12.302 -1.5362  0.6639 -0.7441
11795TIP3    H256801   1.542   1.736  12.382  0.7425  0.1835 -0.4129
11796TIP3   OH256802   4.445   0.193   5.117  0.3461 -0.3813 -0.2663
11796TIP3    H156803   4.374   0.154   5.169 -1.5604  1.4805 -1.3039
11796TIP3    H256804   4.432   0.287   5.127  1.5046  0.0013 -2.0486
11797TIP3   OH256805   4.499   1.315   2.068  0.1006 -0.1387 -0.6269
11797TIP3    H156806   4.459   1.350   1.989 -1.0904 -1.7208 -0.7716
11797TIP3    H256807   4.577   1.268   2.037  0.0888 -0.0693 -0.7629
11798TIP3   OH256808   4.969   4.464  15.154 -0.1882  0.9654 -0.3447
11798TIP3    H156809   5.042   4.526  15.149 -1.7775  2.9072 -0.8669
11798TIP3    H256810   4.899   4.512  15.199 -1.4657 -0.4799 -0.6983
11799TIP3   OH256811   6.766   3.748  16.954 -0.5675 -0.5469  0.7831
11799TIP3    H156812   6.827   3.764  17.026 -0.7289 -1.5414  1.1613
11799TIP3    H256813   6.816   3.696  16.892 -0.4840  0.1652  0.2462
11800TIP3   OH256814   0.570   0.210   0.059  0.3738  0.1650  0.0494
11800TIP3    H156815   0.658   0.180   0.079  0.4104  0.8412  0.9868
11800TIP3    H256816   0.571   0.229  -0.035  1.0058 -0.5242 -0.0917
11801TIP3   OH256817   1.317   2.140  16.499  0.4715  0.1520 -0.0997
11801TIP3    H156818   1.278   2.194  16.567  1.0314  1.1485 -0.5526
11801TIP3    H256819   1.410   2.136  16.520  0.3049 -1.4765  0.4760
11802TIP3   OH256820   1.468   5.190   5.029  0.3503  0.5492 -0.1365
11802TIP3    H156821   1.394   5.249   5.012 -0.4829 -0.5972 -0.6575
11802TIP3    H256822   1.512   5.227   5.105 -0.7456  1.2807  0.1600
11803TIP3   OH256823   2.432   2.492  15.098  0.3892  0.0858  0.2673
11803TIP3    H156824   2.348   2.519  15.063 -1.2397 -2.0875  2.2168
11803TIP3    H256825   2.476   2.449  15.024 -0.5479  0.5090 -0.5568
11804TIP3   OH256826   3.312   1.289   6.274  0.3282  0.6011  0.3636
11804TIP3    H156827   3.311   1.313   6.367 -0.3452  1.0610  0.2446
11804TIP3    H256828   3.225   1.313   6.242 -1.1792 -3.6960  0.6233
11805TIP3   OH256829   3.982   0.108  16.686  0.3652 -0.1804  0.1158
11805TIP3    H156830   3.945   0.070  16.766 -0.8869 -1.9029 -1.2114
11805TIP3    H256831   4.077   0.103  16.699  0.2076  0.9957  2.0936
11806TIP3   OH256832   0.028   1.838  11.829 -0.0059  0.1842 -0.1323
11806TIP3    H156833   0.066   1.780  11.895  0.6784  1.0460  0.2492
11806TIP3    H256834   0.014   1.920  11.875 -2.9343 -0.2372 -0.0793
11807TIP3   OH256835   2.961   2.744   0.221 -0.2477 -0.8836 -1.0168
11807TIP3    H156836   2.964   2.821   0.164 -0.7926 -0.1165 -0.0654
11807TIP3    H256837   3.017   2.679   0.179  1.6999  0.6681 -0.9554
11808TIP3   OH256838   3.106   4.999   2.068 -0.4813  0.1456 -0.2946
11808TIP3    H156839   3.154   4.928   2.027 -1.5786 -0.7874 -0.0197
11808TIP3    H256840   3.047   4.956   2.131 -0.7083  1.3393  0.3464
11809TIP3   OH256841   1.997   5.411   6.221  0.4450  0.3183 -0.1034
11809TIP3    H156842   2.014   5.359   6.299 -0.8205  0.3578  0.2272
11809TIP3    H256843   1.923   5.366   6.179 -2.1502  2.9282  1.3123
11810TIP3   OH256844   6.266   0.828  11.838 -0.8258 -0.0172 -0.7408
11810TIP3    H156845   6.271   0.769  11.913 -0.2255 -0.1617 -0.8910
11810TIP3    H256846   6.252   0.770  11.763 -2.6590  0.2135 -0.6070
11811TIP3   OH256847   4.998   5.494   4.115 -0.2626 -0.6583 -0.3877
11811TIP3    H156848   4.952   5.420   4.156  0.2445 -1.1146 -0.6400
11811TIP3    H256849   4.930   5.540   4.066 -0.9625  0.0769  1.1877
11812TIP3   OH256850   2.863   3.504   3.052  0.2650 -0.0458  0.5149
11812TIP3    H156851   2.824   3.538   2.971  3.2760  2.4119 -0.1151
11812TIP3    H256852   2.930   3.442   3.022  0.9698  0.3939  1.1533
11813TIP3   OH256853   0.410   0.385   0.444  0.4895  0.2513  0.1772
11813TIP3    H156854   0.356   0.351   0.515  0.1895 -1.0384 -0.6317
11813TIP3    H256855   0.348   0.424   0.383  0.6231  0.2555  0.0421
11814TIP3   OH256856   4.317   1.737  15.213  0.1580  0.6319  0.5210
11814TIP3    H156857   4.298   1.696  15.297 -0.4099  1.1702  0.6538
11814TIP3    H256858   4.287   1.827  15.222 -1.6426  0.2200 -0.8800
11815TIP3   OH256859   0.594   5.719  12.546  0.0789  0.1019  0.3209
11815TIP3    H156860   0.673   5.754  12.507 -0.9308  2.1201 -0.0744
11815TIP3    H256861   0.597   5.749  12.637 -0.1329  0.0383  0.3505
11816TIP3   OH256862   1.822   3.157   1.472 -0.4481  0.0502  0.0706
11816TIP3    H156863   1.800   3.247   1.498 -0.3017 -0.0106  0.4081
11816TIP3    H256864   1.741   3.108   1.488 -0.7362  0.2472 -0.7408
11817TIP3   OH256865   4.459   0.989  13.010 -0.0349  0.1396  0.1211
11817TIP3    H156866   4.456   0.917  13.072  0.5917 -1.2194 -1.3372
11817TIP3    H256867   4.482   0.947  12.926  0.2788  2.0250 -0.7903
11818TIP3   OH256868   5.037   0.211  15.198  0.1331 -0.0536  0.3747
11818TIP3    H156869   5.059   0.303  15.211  2.5315 -0.2642 -1.4873
11818TIP3    H256870   4.968   0.212  15.132  2.3137  0.4434 -2.0731
11819TIP3   OH256871   0.643   2.034   2.239  0.2405  0.1010  0.1933
11819TIP3    H156872   0.654   2.121   2.201  0.7046 -0.5829 -1.3230
11819TIP3    H256873   0.560   2.038   2.285  0.5393  1.5142  0.6683
11820TIP3   OH256874   3.600   0.678  16.161 -0.0003  0.9474  0.9378
11820TIP3    H156875   3.651   0.745  16.205  2.1155 -1.0252  1.7078
11820TIP3    H256876   3.515   0.679  16.205 -0.1420  3.2622  0.7047
11821TIP3   OH256877   2.496   2.686  15.608  0.7072 -0.3672 -0.1377
11821TIP3    H156878   2.466   2.745  15.677  0.5153 -0.3999 -0.1929
11821TIP3    H256879   2.438   2.610  15.614  0.0515  0.0577 -0.9735
11822TIP3   OH256880   2.057   6.053  16.032  0.2180 -0.2922 -0.2232
11822TIP3    H156881   2.107   5.972  16.042  0.9744  0.2118  0.1266
11822TIP3    H256882   2.014   6.044  15.947  0.7401 -0.8255 -0.4404
11823TIP3   OH256883   1.593   2.789   4.643  0.6134  0.8004 -0.3203
11823TIP3    H156884   1.503   2.778   4.613  1.3022 -0.1691 -2.2169
11823TIP3    H256885   1.585   2.822   4.732 -1.6056  0.3472 -0.3002
11824TIP3   OH256886   0.928   3.106  13.746  0.6141  0.2745  0.5926
11824TIP3    H156887   0.838   3.074  13.749  0.9302 -0.7348 -0.0423
11824TIP3    H256888   0.921   3.196  13.714 -0.1628  0.1796  0.4761
11825TIP3   OH256889   6.170   0.158   3.916  0.4619 -0.8266  0.3855
11825TIP3    H156890   6.160   0.198   4.002  0.7184 -1.2145  0.5974
11825TIP3    H256891   6.263   0.135   3.911  0.8112  0.6923 -0.6567
11826TIP3   OH256892   4.967   0.595   4.854  0.1862 -0.2827  0.3239
11826TIP3    H156893   4.935   0.631   4.772  0.7546 -2.1585 -0.7811
11826TIP3    H256894   4.913   0.637   4.921 -0.5394  1.0230 -1.0060
11827TIP3   OH256895   4.481   1.391   4.608  0.1304  0.1090  0.3543
11827TIP3    H156896   4.526   1.459   4.558 -0.4654 -1.0098 -1.8027
11827TIP3    H256897   4.402   1.433   4.641 -0.0833  0.5601 -0.7120
11828TIP3   OH256898   5.062   3.029  12.399  0.1107  0.4489  0.1187
11828TIP3    H156899   5.056   3.042  12.494  0.1790  1.1756  0.0249
11828TIP3    H256900   5.029   3.110  12.361 -0.1077  0.0844 -0.4861
11829TIP3   OH256901   2.943   0.964   4.433 -0.4093 -0.1011  0.4184
11829TIP3    H156902   2.984   0.981   4.348  1.9911 -0.6673  1.3959
11829TIP3    H256903   2.891   0.885   4.419 -2.2697  1.3175 -1.1678
11830TIP3   OH256904   6.761   6.315   5.041  0.6271 -0.1996 -0.2020
11830TIP3    H156905   6.776   6.256   5.115  0.8837  0.6880  0.4667
11830TIP3    H256906   6.758   6.403   5.080  2.6296  0.4858 -1.4379
11831TIP3   OH256907   0.213   1.580  12.796 -0.2226 -0.1283 -0.1230
11831TIP3    H156908   0.134   1.609  12.842 -0.3769  2.4971 -1.8488
11831TIP3    H256909   0.201   1.486  12.783 -1.2346 -0.5314  2.9990
11832TIP3   OH256910   2.752   1.050  14.739  0.1073 -0.2093  0.0670
11832TIP3    H156911   2.759   0.985  14.809 -0.3170 -0.4400 -0.1017
11832TIP3    H256912   2.755   1.000  14.658 -0.4924 -0.0546 -0.0609
11833TIP3   OH256913   6.463   6.321  12.580 -0.1245 -0.1968  0.5476
11833TIP3    H156914   6.426   6.368  12.655  1.5772  0.1954  1.1897
11833TIP3    H256915   6.487   6.389  12.518  1.2524 -0.2625  0.9707
11834TIP3   OH256916   1.141   2.850   2.482 -0.3550 -0.3650 -0.1100
11834TIP3    H156917   1.080   2.779   2.502  0.0900 -0.4850  0.8576
11834TIP3    H256918   1.108   2.926   2.530 -1.4789  0.4373 -2.0394
11835TIP3   OH256919   1.136   2.268  15.974 -0.8514 -0.0026 -0.0327
11835TIP3    H156920   1.102   2.303  15.891 -1.4921 -0.9400 -0.1843
11835TIP3    H256921   1.093   2.183  15.983  2.7133 -2.1085 -1.0598
11836TIP3   OH256922   3.982   4.729   0.013 -0.5160  0.6243 -0.5378
11836TIP3    H156923   4.033   4.657  -0.024 -0.4711  0.3557  0.0292
11836TIP3    H256924   3.985   4.714   0.108 -1.1790  0.9196 -0.4618
11837TIP3   OH256925   0.642   0.178   3.140  0.3705 -0.0169 -0.4182
11837TIP3    H156926   0.662   0.203   3.230 -0.6619 -0.7827  0.0422
11837TIP3    H256927   0.590   0.251   3.106 -1.3116 -0.7740  0.4187
11838TIP3   OH256928   2.427   5.768   3.123 -0.1322 -0.4706 -0.3320
11838TIP3    H156929   2.395   5.747   3.035 -1.0923  1.1312 -0.4120
11838TIP3    H256930   2.358   5.736   3.182 -0.0011 -0.5626 -0.2266
11839TIP3   OH256931   2.732   0.903   5.310  0.5660  0.7818 -0.6947
11839TIP3    H156932   2.642   0.922   5.337  0.3001 -0.1814 -0.8755
11839TIP3    H256933   2.772   0.862   5.387 -0.1667 -1.8853 -1.6305
11840TIP3   OH256934   2.225   5.086  15.026 -0.0922 -0.7949  0.4235
11840TIP3    H156935   2.235   5.041  15.110 -0.0082 -0.7517  0.4360
11840TIP3    H256936   2.303   5.140  15.018  0.1725 -1.2150  0.0632
11841TIP3   OH256937   5.861   6.653  15.339 -0.2409  0.8254  0.3257
11841TIP3    H156938   5.862   6.638  15.434 -1.2239 -1.4603  0.0233
11841TIP3    H256939   5.785   6.708  15.324 -1.4554 -0.7039  0.6624
11842TIP3   OH256940   3.081   6.256  12.930 -0.2621 -0.1195  0.0453
11842TIP3    H156941   3.019   6.193  12.894  0.3366 -0.8815  0.3266
11842TIP3    H256942   3.041   6.342  12.913 -2.4286 -0.6170  2.0080
11843TIP3   OH256943   2.563   1.881  17.019 -0.3005  0.0731  0.2598
11843TIP3    H156944   2.503   1.835  17.078 -0.8491 -1.2791 -1.2960
11843TIP3    H256945   2.509   1.909  16.945  0.7679 -0.2307 -0.6738
11844TIP3   OH256946   5.988   1.475   1.191  0.3960 -0.4336  0.4670
11844TIP3    H156947   5.900   1.512   1.197  0.6365  0.1510  0.4512
11844TIP3    H256948   5.988   1.403   1.254 -0.2453 -0.7618  0.1126
11845TIP3   OH256949   6.125   5.039  14.616 -0.3668 -0.3861  0.2908
11845TIP3    H156950   6.210   5.071  14.646 -0.6234  1.5154 -0.8412
11845TIP3    H256951   6.074   5.118  14.598 -0.9206 -1.3394 -3.0240
11846TIP3   OH256952   6.627   4.834  12.460  0.4585 -0.0154 -0.2267
11846TIP3    H156953   6.663   4.747  12.443  1.3454  0.3783 -0.4157
11846TIP3    H256954   6.695   4.894  12.432  0.0663  0.7351  0.3828
11847TIP3   OH256955   5.707   3.569   5.641  0.0850  0.5317 -0.1380
11847TIP3    H156956   5.769   3.528   5.701 -0.7914 -1.5256 -0.5582
11847TIP3    H256957   5.755   3.643   5.604  2.4099 -1.0927 -0.6110
11848TIP3   OH256958   2.914   2.959   3.551  0.9312  0.3144  0.3578
11848TIP3    H156959   2.904   2.919   3.465  1.1607  2.4153 -0.7046
11848TIP3    H256960   3.006   2.943   3.575  0.3605 -2.0677  1.2257
11849TIP3   OH256961   2.876   1.916   2.930 -0.0101  0.6470  0.1673
11849TIP3    H156962   2.867   1.862   2.851  1.8878  1.5537 -0.7335
11849TIP3    H256963   2.824   1.994   2.912 -1.3330 -0.0753  0.7443
11850TIP3   OH256964   3.725   4.009  16.308 -0.0728 -0.4077 -0.4614
11850TIP3    H156965   3.806   3.962  16.327 -0.2257 -0.2756  0.5671
11850TIP3    H256966   3.746   4.063  16.231  0.6948 -0.6671 -0.4428
11851TIP3   OH256967   2.319   6.101  11.692  0.2797  0.0338 -0.1875
11851TIP3    H156968   2.240   6.141  11.729  0.6696  1.0925 -0.4422
11851TIP3    H256969   2.358   6.171  11.639  0.1208 -1.2078 -2.0473
11852TIP3   OH256970   4.654   5.083  14.795 -0.3327 -0.6920  0.3385
11852TIP3    H156971   4.608   5.166  14.803  1.9697  0.7469 -0.3861
11852TIP3    H256972   4.705   5.076  14.876  0.2494 -0.8628 -0.0339
11853TIP3   OH256973   2.983   6.405   2.382 -0.5737 -0.7273  0.4243
11853TIP3    H156974   2.975   6.459   2.460  0.9972  0.1588  0.0036
11853TIP3    H256975   3.049   6.340   2.405 -0.8697 -1.1248  0.1724
11854TIP3   OH256976   2.291   2.486  16.557  0.1561  0.8027 -0.2070
11854TIP3    H156977   2.290   2.478  16.652  0.5009  0.2853 -0.2445
11854TIP3    H256978   2.290   2.580  16.541  2.3430  0.9883  0.3559
11855TIP3   OH256979   4.203   2.842  15.934  0.0067  0.4112 -0.0894
11855TIP3    H156980   4.235   2.800  16.014  0.2970 -0.4331 -0.6313
11855TIP3    H256981   4.278   2.838  15.873 -0.0860  1.3709 -0.2960
11856TIP3   OH256982   0.465   1.631   4.888  0.6884 -0.2989  0.2810
11856TIP3    H156983   0.491   1.581   4.965 -0.7730  1.2138  1.8304
11856TIP3    H256984   0.400   1.693   4.920  0.7894  1.0933 -1.9811
11857TIP3   OH256985   2.084   4.536   5.992 -0.2191 -0.7128  0.2247
11857TIP3    H156986   2.068   4.611   6.050  1.4835 -2.6481  3.5163
11857TIP3    H256987   2.001   4.489   5.989 -0.9129  0.5322 -0.7243
11858TIP3   OH256988   2.746   6.502   4.337 -0.2503  0.4572  0.3495
11858TIP3    H156989   2.664   6.467   4.303 -0.9164  2.1232  0.1724
11858TIP3    H256990   2.725   6.590   4.367  1.4282  0.8525  0.4995
11859TIP3   OH256991   1.141   0.247  12.674 -0.7526 -0.2612  0.9086
11859TIP3    H156992   1.172   0.258  12.764  0.3910  0.3194  0.4612
11859TIP3    H256993   1.101   0.161  12.673 -2.1000  0.3021  2.3384
11860TIP3   OH256994   4.129   1.217  13.234  0.1293 -0.3185 -0.4586
11860TIP3    H156995   4.222   1.237  13.242  0.2022 -0.2678 -1.4072
11860TIP3    H256996   4.091   1.252  13.315  0.8162  0.3182 -0.3984
11861TIP3   OH256997   5.428   5.453   1.159  0.3644 -0.0119  0.2098
11861TIP3    H156998   5.383   5.421   1.237 -1.9458  3.6908  0.6751
11861TIP3    H256999   5.517   5.475   1.190 -0.0511  0.0186  1.4287
11862TIP3   OH257000   6.069   6.280  11.935 -0.1115  0.1809 -0.1628
11862TIP3    H157001   6.029   6.358  11.897  0.9090  0.6465 -0.3280
11862TIP3    H257002   6.131   6.314  11.999  0.3734 -0.4912 -0.2723
11863TIP3   OH257003   4.563   4.114   2.140 -0.1116 -0.5311  0.1803
11863TIP3    H157004   4.493   4.166   2.099 -0.2131 -1.3583 -0.7231
11863TIP3    H257005   4.518   4.061   2.205 -0.2741 -0.7440 -0.1002
11864TIP3   OH257006   3.726   2.593   2.654 -0.6590 -0.2469  0.0608
11864TIP3    H157007   3.638   2.561   2.675 -0.8392 -0.4146 -0.9182
11864TIP3    H257008   3.779   2.570   2.731 -0.9747 -2.1271 -0.2464
11865TIP3   OH257009   1.984   3.049   5.582 -0.4234 -0.5286  0.6640
11865TIP3    H157010   2.056   3.088   5.631 -0.1188  0.2327 -0.3547
11865TIP3    H257011   1.956   2.975   5.636  0.2735 -0.0741  1.6937
11866TIP3   OH257012   5.840   2.571   6.003  0.0720 -0.5242  0.1548
11866TIP3    H157013   5.922   2.584   5.954 -0.7234  0.2532 -1.0150
11866TIP3    H257014   5.863   2.594   6.093  1.0054  0.2659 -0.2564
11867TIP3   OH257015   6.202   4.364   6.629 -0.3414  0.5958  0.0819
11867TIP3    H157016   6.185   4.450   6.591 -0.2490  0.7620  0.4075
11867TIP3    H257017   6.125   4.346   6.683  0.2232  1.0742  1.0699
11868TIP3   OH257018   1.838   3.310   5.541 -0.8610  0.0597  0.6087
11868TIP3    H157019   1.901   3.360   5.594 -2.5650  1.5943  1.2898
11868TIP3    H257020   1.833   3.225   5.586  2.1322 -0.8972 -0.6098
11869TIP3   OH257021   5.261   1.662  15.650  0.3357 -0.5387 -0.4962
11869TIP3    H157022   5.167   1.660  15.628  0.0782  0.2833  0.4462
11869TIP3    H257023   5.272   1.744  15.698  1.2193 -1.4114  0.8477
11870TIP3   OH257024   1.777   2.269   2.723 -0.3752  0.3855 -0.5106
11870TIP3    H157025   1.781   2.334   2.793  0.2026  1.1236 -1.2178
11870TIP3    H257026   1.696   2.290   2.675  1.4128  2.7427 -2.7494
11871TIP3   OH257027   2.207   2.304  15.220  0.8338  0.4265 -0.0855
11871TIP3    H157028   2.251   2.389  15.214 -2.0691  2.0395 -0.6908
11871TIP3    H257029   2.187   2.281  15.130  0.4647 -0.2375  0.1578
11872TIP3   OH257030   5.201   2.474   3.388  0.4243 -0.1582 -0.1171
11872TIP3    H157031   5.262   2.401   3.375 -1.2143 -1.4726 -0.6828
11872TIP3    H257032   5.115   2.438   3.369 -0.4514  1.9465 -0.4621
11873TIP3   OH257033   5.218   4.420  12.324  0.5771 -0.3180  0.3158
11873TIP3    H157034   5.213   4.405  12.418 -0.0721 -1.3603  0.1335
11873TIP3    H257035   5.216   4.515  12.314  5.0814  0.1469  1.5780
11874TIP3   OH257036   4.698   6.648  12.985  0.4299 -0.1613  0.2772
11874TIP3    H157037   4.702   6.553  12.975  1.2002 -0.3165  1.7857
11874TIP3    H257038   4.783   6.672  13.021 -0.4999  0.8064  1.9723
11875TIP3   OH257039   3.817   6.579   5.955  0.2111 -0.0959  0.6013
11875TIP3    H157040   3.840   6.667   5.987  2.5408 -0.2173 -0.5058
11875TIP3    H257041   3.901   6.535   5.946 -0.7840 -1.8811 -0.4937
11876TIP3   OH257042   2.691   0.552   4.941 -0.0885  0.4852  0.3471
11876TIP3    H157043   2.613   0.536   4.888 -0.4103 -0.0552  0.9765
11876TIP3    H257044   2.763   0.517   4.888 -0.0273  2.3967 -0.9587
11877TIP3   OH257045   3.664   5.692  13.025 -0.0251 -0.0424 -0.4044
11877TIP3    H157046   3.745   5.652  13.054  0.9036  1.3647 -0.9231
11877TIP3    H257047   3.692   5.763  12.966 -1.7118 -0.9563 -2.4349
11878TIP3   OH257048   5.677   1.986  14.825  0.3999 -0.6751  0.1234
11878TIP3    H157049   5.618   1.934  14.879 -1.4462  0.9221 -0.2254
11878TIP3    H257050   5.731   2.035  14.887 -0.6598  0.0098  0.5318
11879TIP3   OH257051   2.013   6.449   5.808  0.4752 -0.2264  0.0910
11879TIP3    H157052   2.088   6.479   5.858  0.2721 -0.5321  0.5847
11879TIP3    H257053   1.946   6.431   5.873  0.3730 -1.1117 -0.2502
11880TIP3   OH257054   5.642   1.496   4.712  0.3940 -0.0730 -0.3700
11880TIP3    H157055   5.548   1.490   4.726  0.7049 -1.7493  1.3713
11880TIP3    H257056   5.675   1.538   4.792  1.2363 -0.5576 -0.4557
11881TIP3   OH257057   0.678   2.628   2.987 -0.2709  0.4919  0.0550
11881TIP3    H157058   0.726   2.668   3.058 -0.2596  1.7030 -0.6148
11881TIP3    H257059   0.599   2.592   3.028  0.7161 -0.6637  0.9932
11882TIP3   OH257060   3.511   1.628   5.910  0.0015 -0.0348  0.0113
11882TIP3    H157061   3.521   1.569   5.835  0.2982 -0.7321  0.5813
11882TIP3    H257062   3.548   1.578   5.983  0.1781  0.8357  0.5194
11883TIP3   OH257063   0.789   4.909   2.213 -0.4144 -0.0787  0.3939
11883TIP3    H157064   0.729   4.885   2.142 -0.2900 -1.9196  0.8437
11883TIP3    H257065   0.805   5.002   2.201 -1.8627  0.0471 -0.8774
11884TIP3   OH257066   5.266   6.089  14.015 -0.4107  0.0236 -0.3119
11884TIP3    H157067   5.290   6.091  13.922  2.3777 -4.6817 -0.0039
11884TIP3    H257068   5.179   6.050  14.017  0.2135 -1.4878 -0.9978
11885TIP3   OH257069   0.679   5.493   0.502 -0.4231  0.4648 -0.0834
11885TIP3    H157070   0.605   5.478   0.443 -0.8456  0.5409  0.4138
11885TIP3    H257071   0.718   5.406   0.513  0.9734  0.7750 -2.1368
11886TIP3   OH257072   0.383   4.239  13.322  0.1854  0.1832  0.0160
11886TIP3    H157073   0.344   4.254  13.408  1.7562  1.7190  0.5186
11886TIP3    H257074   0.309   4.222  13.264 -0.9599 -0.0405  1.4911
11887TIP3   OH257075   0.866   1.264  13.284  0.6693  0.1470 -0.1414
11887TIP3    H157076   0.851   1.199  13.216 -0.1514 -2.6867  2.4927
11887TIP3    H257077   0.881   1.346  13.237 -2.0445 -1.1162 -3.6351
11888TIP3   OH257078   1.309   5.636   3.051  0.1447  0.2284  0.0067
11888TIP3    H157079   1.257   5.704   3.093  0.8986  1.1288 -0.4795
11888TIP3    H257080   1.389   5.680   3.023 -0.0882 -0.4560 -1.8836
11889TIP3   OH257081   4.390   5.022  14.155 -0.5345 -0.8251 -0.4203
11889TIP3    H157082   4.437   5.080  14.096 -0.0951 -2.2102 -1.5014
11889TIP3    H257083   4.451   4.950  14.171 -0.9993 -0.9156  1.0076
11890TIP3   OH257084   0.472   1.420   2.021  0.0312 -0.0872 -0.4688
11890TIP3    H157085   0.421   1.340   2.035 -0.6427  0.0416 -1.9320
11890TIP3    H257086   0.415   1.475   1.967  0.0280  1.8595  1.3652
11891TIP3   OH257087   6.231   6.162  15.416 -0.2039  0.0244  0.2987
11891TIP3    H157088   6.195   6.087  15.463 -1.1292  0.3080  0.0619
11891TIP3    H257089   6.303   6.193  15.471  0.3463 -1.1809  0.2736
11892TIP3   OH257090   1.394   4.266  12.849  0.3568  0.6889  0.0188
11892TIP3    H157091   1.404   4.329  12.920  1.0045  0.0864  0.4859
11892TIP3    H257092   1.479   4.223  12.843 -0.4995 -1.2718  0.8358
11893TIP3   OH257093   0.897   1.883  17.120 -0.0355 -0.0848 -0.1756
11893TIP3    H157094   0.816   1.928  17.147  0.2912 -1.3367  3.3948
11893TIP3    H257095   0.961   1.909  17.186  1.3469 -2.3022 -0.5658
11894TIP3   OH257096   5.082   6.376  13.458  0.2194 -0.5588  0.0947
11894TIP3    H157097   5.024   6.322  13.512  0.9268 -0.9062  0.5235
11894TIP3    H257098   5.165   6.377  13.506  0.6729 -0.3609 -0.6831
11895TIP3   OH257099   6.590   1.377  16.474 -0.4696  0.1936 -0.0867
11895TIP3    H157100   6.627   1.348  16.390  0.6098  0.8333  0.1464
11895TIP3    H257101   6.597   1.301  16.531 -0.6578 -0.0655 -0.4040
11896TIP3   OH257102   3.246   5.636   0.650  0.5204 -0.4058  0.3236
11896TIP3    H157103   3.338   5.659   0.642  0.6735 -0.7515  0.9703
11896TIP3    H257104   3.242   5.542   0.629  0.4215 -0.5375  0.9045
11897TIP3   OH257105   5.903   1.371  16.875 -0.8565 -0.6875 -0.5164
11897TIP3    H157106   5.953   1.427  16.816 -0.5723  0.3414  0.6702
11897TIP3    H257107   5.915   1.283  16.839  2.7271 -0.6759  0.2530
11898TIP3   OH257108   2.295   2.304  15.826  0.1783 -0.0874 -0.0756
11898TIP3    H157109   2.222   2.250  15.795 -3.4564  3.6967  1.0245
11898TIP3    H257110   2.284   2.388  15.783  1.4619  1.9069  3.0940
11899TIP3   OH257111   6.184   4.934   3.435 -0.3341  0.3482  0.3448
11899TIP3    H157112   6.233   4.911   3.514 -1.5351 -2.1968  0.4640
11899TIP3    H257113   6.114   4.992   3.466 -0.9945 -0.8912  1.2442
11900TIP3   OH257114   0.131   4.654   0.981  0.4090 -0.3702 -0.0737
11900TIP3    H157115   0.140   4.621   0.892 -0.8861 -0.4827 -0.1807
11900TIP3    H257116   0.221   4.659   1.014  0.9423  0.1252 -1.5395
11901TIP3   OH257117   3.351   0.295  13.593  0.0904 -0.8809  0.0037
11901TIP3    H157118   3.421   0.354  13.620 -1.6055  1.0398  0.4994
11901TIP3    H257119   3.388   0.244  13.521  2.4897 -1.1807  1.3712
11902TIP3   OH257120   4.606   2.696   2.028  0.0203 -0.9944 -0.3645
11902TIP3    H157121   4.563   2.629   2.081 -0.9936  0.3057  0.5053
11902TIP3    H257122   4.696   2.697   2.061 -0.3854 -0.7800  0.7846
11903TIP3   OH257123   4.249   2.070  13.252 -0.3790 -0.2882  0.2968
11903TIP3    H157124   4.216   2.083  13.163 -1.3157 -3.7640 -0.0159
11903TIP3    H257125   4.175   2.033  13.300  0.8820 -1.0760  1.7455
11904TIP3   OH257126   2.105   2.962   4.921 -0.9313  0.2567 -0.1975
11904TIP3    H157127   2.149   2.891   4.874  0.6874  1.5549 -0.7202
11904TIP3    H257128   2.128   3.041   4.873  0.3411  1.5983  2.4129
11905TIP3   OH257129   5.877   3.136   3.053  0.2321 -0.3243 -0.0255
11905TIP3    H157130   5.896   3.190   2.976 -1.6492 -0.3267 -0.5448
11905TIP3    H257131   5.900   3.191   3.128  0.0792  0.5110 -0.5779
11906TIP3   OH257132   1.929   4.356   2.647  0.2774  0.6552 -0.3683
11906TIP3    H157133   1.991   4.290   2.614 -0.8317  0.5044 -2.2685
11906TIP3    H257134   1.865   4.306   2.697  1.9235  0.8764  2.1479
11907TIP3   OH257135   2.328   3.065  14.067  0.0811 -0.3989 -0.2096
11907TIP3    H157136   2.252   3.113  14.100  0.5126 -0.4614  0.9308
11907TIP3    H257137   2.345   2.998  14.133  1.7793  0.3181  0.1655
11908TIP3   OH257138   2.759   3.119  15.379  0.3582  0.5504 -0.5183
11908TIP3    H157139   2.715   3.068  15.311  0.1944 -0.2189  0.1543
11908TIP3    H257140   2.758   3.063  15.456  1.1624  1.1383 -0.0653
11909TIP3   OH257141   1.717   4.026  16.792  0.2167  0.6154  0.4628
11909TIP3    H157142   1.769   3.974  16.853 -1.7768  0.2603  1.9618
11909TIP3    H257143   1.735   3.986  16.706  1.4079 -0.2819  1.0974
11910TIP3   OH257144   4.679   6.109   5.852  0.4341 -0.2764 -0.2061
11910TIP3    H157145   4.591   6.083   5.879  0.7008 -0.6715  0.3086
11910TIP3    H257146   4.728   6.027   5.849  2.0156  0.2270  4.1010
11911TIP3   OH257147   1.141   6.269   0.217  0.0606 -0.5721 -0.3777
11911TIP3    H157148   1.054   6.301   0.191  0.4884 -0.3311 -1.5742
11911TIP3    H257149   1.138   6.175   0.197  0.3525 -0.4066 -1.2392
11912TIP3   OH257150   4.796   1.551   3.497 -0.3189 -0.0496  0.0434
11912TIP3    H157151   4.835   1.486   3.556 -0.2077  1.0151  1.1992
11912TIP3    H257152   4.702   1.541   3.507 -0.2994  0.1737  0.4712
11913TIP3   OH257153   2.415   4.276   2.331  0.0253  0.0057 -0.0271
11913TIP3    H157154   2.481   4.288   2.262 -0.0892 -0.3828 -0.2098
11913TIP3    H257155   2.344   4.336   2.307  0.3478  0.4922  0.2198
11914TIP3   OH257156   5.301   1.588  15.052 -0.0556 -0.3126  0.1206
11914TIP3    H157157   5.250   1.655  15.098  3.6495  2.7850  0.1797
11914TIP3    H257158   5.251   1.571  14.972 -1.6258  1.8104  0.5466
11915TIP3   OH257159   3.326   6.541   2.639 -0.2680 -0.6256  0.6571
11915TIP3    H157160   3.334   6.555   2.733  1.2983 -1.3479  0.6716
11915TIP3    H257161   3.283   6.456   2.631 -0.2750 -0.6288  0.7347
11916TIP3   OH257162   2.477   1.793  10.906 -0.4444 -0.6754  0.2040
11916TIP3    H157163   2.515   1.715  10.865 -2.6429 -0.3992 -2.6605
11916TIP3    H257164   2.549   1.857  10.907  0.4439 -1.6342 -0.6556
11917TIP3   OH257165   2.621   5.704  13.646  0.6618  0.4596 -1.3881
11917TIP3    H157166   2.709   5.741  13.646  0.6557  0.4794 -1.6730
11917TIP3    H257167   2.634   5.613  13.619  0.3714  1.0514 -3.7538
11918TIP3   OH257168   6.557   6.017   1.048 -0.1360  0.1401  0.1699
11918TIP3    H157169   6.603   5.967   1.116 -1.5865 -0.9093  0.4137
11918TIP3    H257170   6.607   6.000   0.968 -0.0244 -0.8993  0.4454
11919TIP3   OH257171   0.042   0.178  12.468 -0.0865 -0.1845 -0.7404
11919TIP3    H157172   0.056   0.245  12.401  0.9849  1.2379  0.8512
11919TIP3    H257173   0.040   0.225  12.551  2.4413 -2.2366  0.6404
11920TIP3   OH257174   1.976   3.380   5.277  0.0075 -0.2834 -0.3949
11920TIP3    H157175   1.935   3.297   5.301  1.7482 -0.8010  0.9930
11920TIP3    H257176   2.034   3.401   5.351  0.2279  1.7671 -1.0690
11921TIP3   OH257177   0.262   3.670  13.925 -0.0958 -0.2198 -0.2541
11921TIP3    H157178   0.284   3.696  13.835 -1.8072  0.9872 -0.3762
11921TIP3    H257179   0.309   3.588  13.938  2.3709  0.9258 -1.2857
11922TIP3   OH257180   6.252   4.031  15.239  0.3637  0.1695  0.4023
11922TIP3    H157181   6.192   4.064  15.172 -1.4979 -1.5262  1.1352
11922TIP3    H257182   6.317   3.980  15.190 -0.4821 -0.3450 -0.2105
11923TIP3   OH257183   2.977   0.756  14.812 -0.2332 -0.4208  0.1457
11923TIP3    H157184   3.000   0.822  14.878  0.4970  1.5284 -1.9207
11923TIP3    H257185   2.882   0.759  14.807 -0.1521  2.5724 -1.7816
11924TIP3   OH257186   2.224   1.535   4.726 -0.4177 -0.2436  0.3185
11924TIP3    H157187   2.140   1.507   4.690 -0.2139 -1.1947  0.5646
11924TIP3    H257188   2.223   1.505   4.817  1.0073 -2.0865 -0.2214
11925TIP3   OH257189   5.993   5.948   0.141  0.6498 -0.3993  0.3408
11925TIP3    H157190   5.974   6.019   0.203  2.3231  1.9560 -1.6142
11925TIP3    H257191   6.083   5.923   0.161  0.7861 -0.4633 -0.3489
11926TIP3   OH257192   0.886   0.708  16.820  0.2580  0.5200 -0.3526
11926TIP3    H157193   0.869   0.744  16.732  0.4822  2.4813  0.3642
11926TIP3    H257194   0.859   0.778  16.880  3.4020  0.6851  1.0654
11927TIP3   OH257195   0.599   2.739   0.159  0.6125  0.1590  0.1442
11927TIP3    H157196   0.649   2.796   0.101 -2.3998  1.5693 -1.2905
11927TIP3    H257197   0.591   2.789   0.240  0.5658  0.4305 -0.0250
11928TIP3   OH257198   2.471   0.276  11.934 -0.2609 -0.3802  0.0324
11928TIP3    H157199   2.381   0.298  11.959 -0.0806 -0.6637  0.9816
11928TIP3    H257200   2.520   0.357  11.948 -0.3668 -0.2152 -0.5199
11929TIP3   OH257201   1.444   1.715   5.030  0.4182 -0.1936  0.5227
11929TIP3    H157202   1.535   1.743   5.019  0.7153 -0.7883  1.3090
11929TIP3    H257203   1.393   1.795   5.023  1.0582  0.2378  0.6756
11930TIP3   OH257204   5.129   3.797   0.504 -0.3127 -0.3911  0.4146
11930TIP3    H157205   5.176   3.843   0.574 -0.1472 -0.5172  0.3888
11930TIP3    H257206   5.041   3.834   0.504  0.3228  1.2432 -0.8104
11931TIP3   OH257207   1.369   4.281   3.520  0.2024 -0.3021 -0.0880
11931TIP3    H157208   1.331   4.252   3.437 -0.3007 -0.1244  0.0774
11931TIP3    H257209   1.456   4.312   3.497  0.3569 -0.9660 -0.4335
11932TIP3   OH257210   3.997   2.477   0.131  0.0170  0.0915 -0.3414
11932TIP3    H157211   4.052   2.433   0.067  0.0109 -0.5100  0.0516
11932TIP3    H257212   3.956   2.405   0.180 -0.7372  0.5271 -0.3081
11933TIP3   OH257213   0.475   3.311  11.942  0.4388  0.2528 -0.3022
11933TIP3    H157214   0.503   3.335  12.030  0.7818 -0.4248 -0.2171
11933TIP3    H257215   0.545   3.254  11.909 -1.4072 -2.6176  0.4284
11934TIP3   OH257216   1.816   2.064   5.274 -0.0456 -0.0289  0.0431
11934TIP3    H157217   1.887   2.071   5.210 -0.1403 -1.8435 -0.3159
11934TIP3    H257218   1.736   2.066   5.222 -0.1462 -0.7645  0.1584
11935TIP3   OH257219   5.325   2.717   1.160 -0.5387 -0.0923  0.3320
11935TIP3    H157220   5.342   2.795   1.107 -1.5455 -0.7442 -1.0224
11935TIP3    H257221   5.386   2.652   1.125 -0.0271 -0.0611  1.1438
11936TIP3   OH257222   6.069   2.930   0.641  0.2431 -0.5730  0.9371
11936TIP3    H157223   6.010   3.001   0.662  0.4064 -0.6415  1.6448
11936TIP3    H257224   6.016   2.867   0.592  0.6884  1.1790 -2.0432
11937TIP3   OH257225   4.007   3.767  12.057  0.2913 -0.5070 -0.3642
11937TIP3    H157226   3.970   3.687  12.021  1.1313 -0.7285 -0.7558
11937TIP3    H257227   3.989   3.762  12.151 -0.9624 -0.4324 -0.5845
11938TIP3   OH257228   5.482   1.600   6.585  0.5403  0.4600  0.1373
11938TIP3    H157229   5.505   1.691   6.564  1.3663  0.3785  0.6364
11938TIP3    H257230   5.390   1.604   6.612  0.6985  1.2359  0.6088
11939TIP3   OH257231   2.599   2.209   0.275 -0.3248 -0.0604  0.1557
11939TIP3    H157232   2.675   2.264   0.294  0.0740 -1.2286  2.3377
11939TIP3    H257233   2.574   2.231   0.185  2.4608  0.4984 -0.5585
11940TIP3   OH257234   3.503   4.253  13.741 -0.1013  0.1868  0.0307
11940TIP3    H157235   3.418   4.288  13.717  0.4307  1.2874 -0.3005
11940TIP3    H257236   3.486   4.196  13.816 -1.1049  0.4531  0.0104
11941TIP3   OH257237   2.114   1.191   1.403  0.1005  0.0766  0.0860
11941TIP3    H157238   2.024   1.185   1.437 -0.4619 -2.3268 -1.5217
11941TIP3    H257239   2.104   1.237   1.319  0.8549  2.2728  1.1317
11942TIP3   OH257240   4.329   4.605  11.190  0.0226  0.3748 -0.2669
11942TIP3    H157241   4.399   4.639  11.135 -0.5798  1.3944 -0.4194
11942TIP3    H257242   4.339   4.650  11.273  1.7694 -2.1467  0.9982
11943TIP3   OH257243   4.124   1.241   4.596  0.5084  0.1987  0.9624
11943TIP3    H157244   4.201   1.217   4.648 -0.6053  0.3631  2.7764
11943TIP3    H257245   4.050   1.202   4.642 -0.6294  1.1282  0.0008
11944TIP3   OH257246   1.826   1.075   1.327  0.3052  0.0324 -0.0501
11944TIP3    H157247   1.844   1.169   1.329  0.2783  0.0237  0.5527
11944TIP3    H257248   1.736   1.067   1.358  0.4963 -0.2401  0.4361
11945TIP3   OH257249   3.583   2.953  10.606 -0.3522  0.1428 -0.1438
11945TIP3    H157250   3.492   2.923  10.607  0.3162 -2.2044 -1.3416
11945TIP3    H257251   3.635   2.873  10.607  1.9134  1.3376  4.2084
11946TIP3   OH257252   1.260   4.204   3.285 -0.0631 -0.2373 -0.5493
11946TIP3    H157253   1.243   4.280   3.228 -2.3424  0.8228  1.3500
11946TIP3    H257254   1.180   4.152   3.280  0.6147 -1.3647 -0.0854
11947TIP3   OH257255   5.242   3.122  12.698  0.0548 -0.0978  0.2440
11947TIP3    H157256   5.152   3.142  12.674  0.4288  0.5176 -0.6786
11947TIP3    H257257   5.296   3.170  12.635  1.0208 -1.7260 -0.2314
11948TIP3   OH257258   0.324   6.001   0.490 -0.2726 -0.7804  0.1485
11948TIP3    H157259   0.411   6.040   0.499  0.4544 -2.6064  1.3140
11948TIP3    H257260   0.340   5.908   0.475 -2.0199 -1.0468 -0.2882
11949TIP3   OH257261   0.603   1.007   0.839  0.0471  0.6248 -0.5168
11949TIP3    H157262   0.592   1.089   0.790  0.1643  1.8935  1.4479
11949TIP3    H257263   0.514   0.979   0.861 -0.0139 -0.0512 -1.5902
11950TIP3   OH257264   1.190   3.322   6.034  0.5816 -0.3131  0.3892
11950TIP3    H157265   1.221   3.235   6.062 -1.6173 -0.5898  2.2538
11950TIP3    H257266   1.203   3.378   6.111  0.7876  0.7215 -0.3782
11951TIP3   OH257267   2.217   6.072   1.658  0.3882 -0.2665 -0.8698
11951TIP3    H157268   2.300   6.113   1.633  0.2535  0.0016 -0.8853
11951TIP3    H257269   2.228   6.050   1.750 -0.0751  1.1838 -0.4346
11952TIP3   OH257270   1.048   5.944   3.044 -0.0352 -0.0505  0.0200
11952TIP3    H157271   1.008   5.887   3.110  0.2327 -2.2432 -1.5805
11952TIP3    H257272   0.979   5.957   2.978  0.8217 -1.1208 -1.1346
11953TIP3   OH257273   1.969   4.564   2.466 -0.1073 -0.5461 -0.4387
11953TIP3    H157274   1.981   4.480   2.511  1.0489 -1.1131 -1.7368
11953TIP3    H257275   1.927   4.541   2.383 -1.4711  0.3990 -0.0513
11954TIP3   OH257276   5.814   3.893   3.748 -0.5846  0.4016  0.2254
11954TIP3    H157277   5.831   3.967   3.690 -0.6084  0.3796  0.1900
11954TIP3    H257278   5.888   3.834   3.734  0.0109  0.9298  1.0802
11955TIP3   OH257279   1.615   6.510   1.593  0.2132 -0.5441 -0.3558
11955TIP3    H157280   1.564   6.574   1.644 -0.9115 -1.4045 -0.3617
11955TIP3    H257281   1.561   6.492   1.516 -0.1630 -2.5143  0.3167
11956TIP3   OH257282   3.727   3.735  15.278  0.6778  0.2814  0.5063
11956TIP3    H157283   3.716   3.670  15.208 -1.4933  1.7750 -0.6696
11956TIP3    H257284   3.763   3.686  15.351 -0.1792 -2.0957 -0.5619
11957TIP3   OH257285   0.180   2.854  16.074 -0.0772  0.3210 -0.0126
11957TIP3    H157286   0.087   2.873  16.060 -0.1391  0.1068  0.0946
11957TIP3    H257287   0.225   2.934  16.050 -0.3735  0.8040  0.9771
11958TIP3   OH257288   0.771   2.724   2.148  0.3529  0.2361  0.3390
11958TIP3    H157289   0.707   2.767   2.092  1.1427  0.1222 -0.6766
11958TIP3    H257290   0.797   2.792   2.210  0.6767  0.8747 -0.4725
11959TIP3   OH257291   3.060   5.516   1.236  0.3012 -0.2239 -0.4747
11959TIP3    H157292   2.988   5.478   1.286 -1.9291  1.7437 -1.9948
11959TIP3    H257293   3.116   5.556   1.303 -1.8049  1.0753  0.6278
11960TIP3   OH257294   0.806   3.942   2.825  0.2945 -0.4236 -0.6104
11960TIP3    H157295   0.790   3.929   2.918  0.1843 -1.3754 -0.7567
11960TIP3    H257296   0.877   4.007   2.822  0.7136 -0.8335  0.1446
11961TIP3   OH257297   6.428   3.311   2.298  0.0385  0.5820  0.2517
11961TIP3    H157298   6.368   3.352   2.236 -2.6953 -1.5172  1.2810
11961TIP3    H257299   6.437   3.375   2.369  0.7876  1.7730 -0.8758
11962TIP3   OH257300   2.450   0.740  15.297 -0.0556  0.1062  0.1220
11962TIP3    H157301   2.529   0.773  15.339  0.1537 -1.2097  0.8065
11962TIP3    H257302   2.461   0.645  15.294 -0.8281  0.0183 -1.3889
11963TIP3   OH257303   0.118   0.365   5.497 -0.3846 -0.6157  0.0938
11963TIP3    H157304   0.118   0.425   5.572  0.9086  1.2643 -1.3199
11963TIP3    H257305   0.178   0.294   5.524  1.3610  0.8543  0.3010
11964TIP3   OH257306   3.826   1.225  14.653  0.0038 -0.0241  0.2425
11964TIP3    H157307   3.784   1.144  14.682  0.8343 -0.2629  0.8249
11964TIP3    H257308   3.866   1.202  14.569 -0.5685  0.0558 -0.0561
11965TIP3   OH257309   1.899   6.778   4.146  0.0852  0.0698  0.1705
11965TIP3    H157310   1.922   6.836   4.219  1.2853 -0.9755  0.6530
11965TIP3    H257311   1.980   6.768   4.097 -0.2878 -0.6446 -0.3079
11966TIP3   OH257312   6.257   1.161  16.362 -0.1098  0.2234  0.0230
11966TIP3    H157313   6.215   1.195  16.283  1.1336  2.2602  0.1722
11966TIP3    H257314   6.238   1.067  16.361 -0.5163  0.2723 -2.4359
11967TIP3   OH257315   5.066   3.134   5.155  0.2351  0.0778 -0.9593
11967TIP3    H157316   5.121   3.140   5.233 -0.6407  0.0108 -0.3192
11967TIP3    H257317   5.046   3.225   5.132 -1.7139  0.1004  0.5331
11968TIP3   OH257318   0.166   2.196   2.423 -0.0265 -0.0352  0.2052
11968TIP3    H157319   0.089   2.232   2.379 -0.6244  1.4802  2.3578
11968TIP3    H257320   0.140   2.189   2.515  1.5721 -1.9458  0.5825
11969TIP3   OH257321   4.231   6.253  15.786  0.0106  0.0743 -0.3974
11969TIP3    H157322   4.172   6.213  15.722  0.1043  0.0899 -0.4940
11969TIP3    H257323   4.213   6.206  15.868  1.4047 -1.4245 -0.8982
11970TIP3   OH257324   3.785   4.752   5.336  0.1884 -0.1098  0.0397
11970TIP3    H157325   3.741   4.715   5.260  0.5187  0.4692 -0.4423
11970TIP3    H257326   3.876   4.723   5.328  0.5079  0.9724 -0.4738
11971TIP3   OH257327   1.717   2.200   3.710 -0.3910 -0.1870  0.1402
11971TIP3    H157328   1.721   2.289   3.745  0.9979 -0.4709  0.7705
11971TIP3    H257329   1.741   2.209   3.618  2.9725 -0.2069  0.8769
11972TIP3   OH257330   6.478   1.430  12.061 -0.7146  0.2365 -0.0751
11972TIP3    H157331   6.398   1.395  12.022 -1.2295  1.0750  0.1959
11972TIP3    H257332   6.458   1.522  12.077  0.5854  0.6602 -0.7388
11973TIP3   OH257333   1.956   1.942   1.503  0.0794  0.1268 -0.2044
11973TIP3    H157334   1.935   2.019   1.555 -0.3776 -0.0297 -0.1462
11973TIP3    H257335   1.887   1.879   1.524 -2.3589  1.2990 -3.6626
11974TIP3   OH257336   5.773   1.576   1.821 -0.2775  0.6091  0.4393
11974TIP3    H157337   5.808   1.656   1.860 -0.1379  1.2316 -0.9083
11974TIP3    H257338   5.683   1.598   1.796 -0.2341  0.3521  0.0454
11975TIP3   OH257339   4.731   4.589  14.654 -0.3302  0.0302  1.2066
11975TIP3    H157340   4.775   4.595  14.738 -0.9032  1.9294  1.4361
11975TIP3    H257341   4.688   4.675  14.643  2.1893  1.1030 -2.3378
11976TIP3   OH257342   6.666   5.838  12.475 -0.5083  0.9233 -0.1507
11976TIP3    H157343   6.603   5.910  12.466 -0.5059  0.7769 -1.3830
11976TIP3    H257344   6.711   5.857  12.558 -0.9417  1.9955 -0.1395
11977TIP3   OH257345   6.220   4.683   4.229 -0.3343  0.0971  0.2182
11977TIP3    H157346   6.161   4.608   4.219 -1.9154  1.1532  1.0549
11977TIP3    H257347   6.215   4.705   4.322  1.9732 -0.1807  0.4644
11978TIP3   OH257348   2.610   3.506  14.877 -0.1762 -0.2200 -0.5006
11978TIP3    H157349   2.663   3.553  14.941 -0.2966 -0.1329 -0.4628
11978TIP3    H257350   2.667   3.497  14.800  0.0641 -0.5684 -0.2817
11979TIP3   OH257351   6.666   1.122  15.109  0.6106 -0.0175  0.0278
11979TIP3    H157352   6.696   1.161  15.191 -0.2245 -1.0259  0.8538
11979TIP3    H257353   6.679   1.028  15.121 -1.7547 -0.4158  0.0112
11980TIP3   OH257354   4.463   1.111   0.762  0.5181 -0.1261  0.0155
11980TIP3    H157355   4.374   1.075   0.761  0.2406  0.4143  1.5529
11980TIP3    H257356   4.451   1.205   0.750  0.6095  0.2838  2.5224
11981TIP3   OH257357   5.951   0.356   2.059  0.2546 -0.5411 -0.4687
11981TIP3    H157358   5.905   0.403   1.989  0.9039 -0.7516 -1.0465
11981TIP3    H257359   6.044   0.371   2.040  0.4326 -0.1438  0.6646
11982TIP3   OH257360   3.333   5.541   5.355  0.1147 -0.6801  0.0033
11982TIP3    H157361   3.262   5.477   5.348  0.2110 -0.8613  0.5949
11982TIP3    H257362   3.349   5.549   5.449 -1.5008  2.0101  0.1542
11983TIP3   OH257363   0.026   3.136  12.462 -0.2580  0.1680 -0.0371
11983TIP3    H157364   0.089   3.103  12.526 -0.5398 -0.5395 -0.1089
11983TIP3    H257365  -0.029   3.060  12.442 -0.7973  0.6408 -0.3707
11984TIP3   OH257366   1.415   5.801  15.951 -0.3538 -0.1553  0.3368
11984TIP3    H157367   1.487   5.752  15.911  0.1763 -0.3248  1.4454
11984TIP3    H257368   1.429   5.892  15.924  0.6410 -0.0874  1.0104
11985TIP3   OH257369   2.310   4.191  13.756 -0.0001  0.3771  0.2715
11985TIP3    H157370   2.399   4.194  13.792  0.1703 -1.5766  0.1394
11985TIP3    H257371   2.321   4.210  13.663  0.3646 -0.4091  0.1495
11986TIP3   OH257372   5.234   5.020  15.154 -0.6834  0.0841  0.2315
11986TIP3    H157373   5.225   5.013  15.249 -1.7287 -0.7131  0.0960
11986TIP3    H257374   5.280   5.103  15.140 -2.0577  1.0930  1.3674
11987TIP3   OH257375   4.636   2.885   4.741 -0.8486  0.6106 -0.0958
11987TIP3    H157376   4.668   2.959   4.793 -1.0250  1.2385 -0.8626
11987TIP3    H257377   4.671   2.900   4.653 -2.2735  0.6883 -0.6742
11988TIP3   OH257378   2.342   2.756   5.001 -0.3545  0.9275 -0.5211
11988TIP3    H157379   2.398   2.820   4.957 -0.1142  0.9095 -0.2455
11988TIP3    H257380   2.352   2.676   4.950 -1.3190  1.3310 -1.3739
11989TIP3   OH257381   4.675   0.191   0.437  0.3126  0.2748 -0.2821
11989TIP3    H157382   4.696   0.103   0.470  0.3388  0.1098 -0.7336
11989TIP3    H257383   4.756   0.240   0.448 -0.4799  1.1407  2.7767
11990TIP3   OH257384   2.667   5.547   0.479  0.4379 -0.8789  0.0710
11990TIP3    H157385   2.749   5.589   0.507 -0.0859 -1.4260  2.6029
11990TIP3    H257386   2.610   5.621   0.457  0.2940 -0.2436  2.2829
11991TIP3   OH257387   3.491   6.664   2.483 -0.1228  1.1621  0.8573
11991TIP3    H157388   3.428   6.610   2.532 -0.0427 -2.2619 -2.4010
11991TIP3    H257389   3.437   6.729   2.439 -1.7032 -1.6832 -1.8521
11992TIP3   OH257390   1.920   0.625  12.415  0.6439 -0.5283 -0.8741
11992TIP3    H157391   1.961   0.544  12.446 -0.3170 -0.4101  0.8510
11992TIP3    H257392   1.977   0.695  12.447 -0.0114 -0.4309  0.1211
11993TIP3   OH257393   6.575   3.417   0.354 -0.5960 -0.7731  0.2379
11993TIP3    H157394   6.554   3.367   0.433 -1.3002 -0.0560  0.5331
11993TIP3    H257395   6.601   3.352   0.290 -0.4211 -1.4092  0.9428
11994TIP3   OH257396   3.909   3.961  16.640 -0.3010 -0.2631  0.2398
11994TIP3    H157397   3.908   4.044  16.592 -0.4744  0.3556  1.2667
11994TIP3    H257398   3.871   3.983  16.725  2.9309 -0.5167  1.9120
11995TIP3   OH257399   1.744   4.240  13.713  0.2225 -0.3339 -0.0241
11995TIP3    H157400   1.660   4.205  13.685 -0.9222  2.2406 -0.0982
11995TIP3    H257401   1.806   4.212  13.646 -1.0623 -0.2357 -1.2860
11996TIP3   OH257402   6.478   0.970   5.030 -0.8534 -0.8474 -0.3970
11996TIP3    H157403   6.523   1.000   4.951 -0.9017 -0.8597 -0.4295
11996TIP3    H257404   6.532   0.898   5.062 -1.3507 -1.4876 -0.9655
11997TIP3   OH257405   5.662   5.504  16.928  0.5282 -0.4742 -0.1914
11997TIP3    H157406   5.671   5.411  16.909  0.7423 -0.5690  0.3786
11997TIP3    H257407   5.570   5.523  16.907  0.4636 -0.8281 -0.2438
11998TIP3   OH257408   2.461   0.565  16.494 -0.2303  0.2116 -0.0885
11998TIP3    H157409   2.373   0.528  16.507  0.6412 -1.3967  1.6997
11998TIP3    H257410   2.493   0.581  16.583  1.5013  0.2023 -0.6831
11999TIP3   OH257411   3.649   0.359  16.786  0.1006  0.5256  0.0303
11999TIP3    H157412   3.696   0.376  16.867 -2.5418 -0.6515  1.9538
11999TIP3    H257413   3.563   0.397  16.800 -0.8083 -0.7417 -1.7533
12000TIP3   OH257414   5.853   6.040  10.884 -0.3852 -0.4414 -0.3680
12000TIP3    H157415   5.802   6.020  10.805 -0.0128  0.0261 -0.7363
12000TIP3    H257416   5.842   5.963  10.940  2.6496 -2.7483 -2.5633
12001TIP3   OH257417   1.483   0.375   1.408 -0.2252 -0.4001  0.4326
12001TIP3    H157418   1.406   0.351   1.357 -0.3055  2.4989 -1.0181
12001TIP3    H257419   1.448   0.421   1.484  0.0242 -0.2277  0.4440
12002TIP3   OH257420   6.608   3.603   5.822 -0.0546  0.1058 -0.0605
12002TIP3    H157421   6.524   3.577   5.784 -0.0421 -0.3293  0.2095
12002TIP3    H257422   6.637   3.527   5.872  0.7686  0.0377 -0.6105
12003TIP3   OH257423   2.136   2.608   3.909 -0.3293 -0.2091 -0.2171
12003TIP3    H157424   2.055   2.594   3.860 -1.3716  3.4707  0.1908
12003TIP3    H257425   2.164   2.696   3.885 -0.0660  1.2626  4.4740
12004TIP3   OH257426   5.487   2.681   2.556  0.3060 -0.4719  0.1300
12004TIP3    H157427   5.500   2.739   2.630 -2.6565 -1.0284  1.2402
12004TIP3    H257428   5.392   2.671   2.549  0.5113 -1.7174 -2.7658
12005TIP3   OH257429   2.921   4.078  16.440 -0.3965 -0.0822 -0.1400
12005TIP3    H157430   2.878   4.092  16.355 -0.5258  0.1542 -0.0359
12005TIP3    H257431   3.004   4.035  16.418  0.2515  1.3185 -0.5030
12006TIP3   OH257432   4.519   4.255  12.852 -0.7962  0.4172 -0.4212
12006TIP3    H157433   4.485   4.267  12.941  0.4063  0.9864 -0.0057
12006TIP3    H257434   4.474   4.321  12.800 -0.5288  1.0062  0.0678
12007TIP3   OH257435   6.127   6.490  17.212  0.5436  0.5343 -0.0291
12007TIP3    H157436   6.073   6.550  17.160 -0.0469  0.6630  0.7220
12007TIP3    H257437   6.217   6.518  17.194  0.3184  0.9967 -0.4773
12008TIP3   OH257438   6.702   6.023   1.923 -0.2026  0.0688 -0.0471
12008TIP3    H157439   6.671   5.978   1.844 -2.9206  0.1497  0.8971
12008TIP3    H257440   6.781   5.975   1.948 -0.4839 -1.2954 -1.6011
12009TIP3   OH257441   6.492   5.499   3.783 -0.0582  0.4176 -0.0117
12009TIP3    H157442   6.584   5.523   3.784 -0.2140  1.0328 -0.2652
12009TIP3    H257443   6.492   5.404   3.779  0.5690  0.4616 -1.9338
12010TIP3   OH257444   6.065   3.642   1.864  0.0247 -0.0317  0.1374
12010TIP3    H157445   6.157   3.616   1.857  0.0483  0.0731  0.0659
12010TIP3    H257446   6.062   3.706   1.935  0.1762  0.7586 -0.5531
12011TIP3   OH257447   3.963   4.940   5.225 -0.1978  0.3553 -0.2155
12011TIP3    H157448   3.996   4.850   5.231  0.2898  0.5508  0.0884
12011TIP3    H257449   3.881   4.932   5.177 -0.3762 -0.3040  0.1876
12012TIP3   OH257450   3.256   5.758  14.978  0.8732 -0.1221  0.0065
12012TIP3    H157451   3.253   5.706  14.897  0.3684  0.1410 -0.1442
12012TIP3    H257452   3.206   5.706  15.041  3.1021 -1.4439  0.8197
12013TIP3   OH257453   5.190   2.760  14.871 -0.3689  0.5435 -0.3958
12013TIP3    H157454   5.100   2.754  14.905 -0.1025 -0.8765  0.1433
12013TIP3    H257455   5.195   2.690  14.806  1.3398 -1.9325  2.1445
12014TIP3   OH257456   6.245   0.230  11.162 -0.2230  0.0894 -0.2607
12014TIP3    H157457   6.225   0.287  11.236 -1.4078  0.0369 -0.5273
12014TIP3    H257458   6.332   0.194  11.183 -0.2536  0.5758  0.7801
12015TIP3   OH257459   1.335   1.144   1.591  0.4916  0.1205  0.1968
12015TIP3    H157460   1.351   1.192   1.672  0.4963  1.6987 -0.7142
12015TIP3    H257461   1.343   1.209   1.522 -3.7093 -0.1924 -0.8418
12016TIP3   OH257462   3.620   4.071   1.703 -0.6477 -0.1108 -0.4472
12016TIP3    H157463   3.672   4.104   1.630  0.7183 -1.1573  0.0167
12016TIP3    H257464   3.617   3.977   1.691  0.5743 -0.4344  1.4239
12017TIP3   OH257465   2.397   6.074  14.028 -0.2433 -0.5068  0.3112
12017TIP3    H157466   2.437   5.988  14.034  1.7236  0.1920 -1.4777
12017TIP3    H257467   2.436   6.114  13.950 -1.2842  1.8934  0.9039
12018TIP3   OH257468   5.224   0.809  13.557  0.1082  0.4913 -0.4273
12018TIP3    H157469   5.216   0.905  13.558  0.5015  0.5278  0.4854
12018TIP3    H257470   5.316   0.793  13.540  0.4678  0.3417  1.3990
12019TIP3   OH257471   4.685   3.324  17.206 -0.0310 -0.0548  0.1240
12019TIP3    H157472   4.778   3.301  17.202  0.6364  2.3612  0.4407
12019TIP3    H257473   4.665   3.324  17.300  0.2824  1.6076  0.2156
12020TIP3   OH257474   4.448   6.012   3.945  0.0310  0.0047 -0.6540
12020TIP3    H157475   4.477   6.044   4.030 -0.7591 -0.0556 -0.3471
12020TIP3    H257476   4.389   6.080   3.912  0.0312 -0.1496 -0.9795
12021TIP3   OH257477   3.001   5.160   5.240 -0.1978  0.6382 -0.4497
12021TIP3    H157478   2.962   5.095   5.298 -0.2924  0.0114 -1.2029
12021TIP3    H257479   2.928   5.193   5.188  0.0586  0.4038 -0.9649
12022TIP3   OH257480   5.161   3.768  15.629  0.2460  0.3556 -0.3823
12022TIP3    H157481   5.069   3.775  15.655  0.9813 -0.5406  2.8957
12022TIP3    H257482   5.175   3.675  15.614  1.1256  0.1282  1.5815
12023TIP3   OH257483   0.125   6.503  14.069  0.5040  1.1628 -0.3759
12023TIP3    H157484   0.034   6.516  14.095  1.0519  1.9985  1.2684
12023TIP3    H257485   0.153   6.589  14.037  0.8437  1.0227 -0.4621
12024TIP3   OH257486   0.570   1.164  11.370  0.0848 -0.0162  0.3540
12024TIP3    H157487   0.512   1.088  11.374  1.6392 -1.2400  0.4982
12024TIP3    H257488   0.551   1.213  11.450  0.0510 -1.0157  0.9799
12025TIP3   OH257489   0.414   0.270  15.310 -0.0442  0.0384  0.0098
12025TIP3    H157490   0.484   0.219  15.350  0.8383  1.1520 -0.0936
12025TIP3    H257491   0.395   0.224  15.228 -0.7927 -1.3612  0.9171
12026TIP3   OH257492   4.334   5.430   2.018  0.0191 -0.3651  0.1683
12026TIP3    H157493   4.271   5.359   2.012  0.4029 -0.7786  0.9793
12026TIP3    H257494   4.294   5.493   2.078  1.0572 -1.3774  1.9998
12027TIP3   OH257495   6.502   2.205  14.305  1.1484 -0.2681 -0.7274
12027TIP3    H157496   6.567   2.147  14.344  1.8206  0.2990 -0.9762
12027TIP3    H257497   6.524   2.292  14.339 -0.5205 -0.2887  0.5219
12028TIP3   OH257498   3.327   4.315   4.165  0.6906  0.1493 -0.0156
12028TIP3    H157499   3.254   4.291   4.107  2.0197 -0.9401 -1.2914
12028TIP3    H257500   3.330   4.245   4.230  0.0434  0.6791  0.6041
12029TIP3   OH257501   3.246   3.612   5.952  0.3914 -0.2505  0.5988
12029TIP3    H157502   3.182   3.684   5.947  0.6985  0.3704  3.4221
12029TIP3    H257503   3.326   3.654   5.984  2.0248 -1.1650 -2.0553
12030TIP3   OH257504   1.592   0.861   0.830 -0.1057 -0.8053 -0.3885
12030TIP3    H157505   1.515   0.808   0.810  0.2160 -1.0327 -1.0410
12030TIP3    H257506   1.663   0.821   0.780 -0.0796  0.8921 -1.7751
12031TIP3   OH257507   6.343   1.515   4.847  0.3628  0.2709  0.0739
12031TIP3    H157508   6.280   1.586   4.856  0.0298  0.2105 -1.5086
12031TIP3    H257509   6.425   1.550   4.881  0.0256  1.1636 -0.0234
12032TIP3   OH257510   1.558   3.199   4.030  0.1469  0.3260 -0.2550
12032TIP3    H157511   1.489   3.239   3.977  0.6911  1.4008 -0.1733
12032TIP3    H257512   1.529   3.108   4.042 -2.4209  1.2683  1.6564
12033TIP3   OH257513   4.667   0.571  14.054  0.7541  0.1236  0.2465
12033TIP3    H157514   4.730   0.598  14.120  2.8527 -1.1983 -1.0960
12033TIP3    H257515   4.602   0.642  14.051  1.3446  0.8471  2.6842
12034TIP3   OH257516   6.396   4.212  15.914  0.8974  0.4376 -0.3606
12034TIP3    H157517   6.430   4.289  15.868  1.2768  0.2942 -0.3218
12034TIP3    H257518   6.413   4.229  16.006  0.5284  0.5299 -0.3082
12035TIP3   OH257519   6.153   4.790  13.243 -0.3187 -0.0605 -0.5055
12035TIP3    H157520   6.071   4.763  13.284 -1.5747 -2.3183 -4.0362
12035TIP3    H257521   6.221   4.750  13.297 -1.7791 -1.7781  0.1785
12036TIP3   OH257522   4.039   6.298   0.310  0.7015  0.7924 -0.0193
12036TIP3    H157523   4.004   6.310   0.398  1.6704  2.2507  0.2149
12036TIP3    H257524   3.976   6.241   0.266  1.0723 -1.3828  2.1100
12037TIP3   OH257525   5.676   6.154   4.232  0.2282 -0.5480  0.0891
12037TIP3    H157526   5.713   6.080   4.281 -0.7717 -0.4293  1.0918
12037TIP3    H257527   5.727   6.229   4.260 -1.2699 -0.2218  2.2025
12038TIP3   OH257528   2.376   1.538  15.653  0.3513 -0.2830 -0.1548
12038TIP3    H157529   2.318   1.493  15.715 -0.7321  1.9625  0.5836
12038TIP3    H257530   2.442   1.580  15.709  0.0330  0.8286 -0.5805
12039TIP3   OH257531   2.515   1.624   0.219 -0.5978 -0.4401 -0.5480
12039TIP3    H157532   2.507   1.612   0.314 -0.1718  0.8214 -0.3339
12039TIP3    H257533   2.480   1.543   0.182 -0.7123 -0.9840  0.6826
12040TIP3   OH257534   2.475   5.552   6.044 -0.6624  0.7970  0.1891
12040TIP3    H157535   2.466   5.630   5.989  0.0255  0.6225 -0.1798
12040TIP3    H257536   2.396   5.552   6.098 -0.0996  2.4514  1.0773
12041TIP3   OH257537   1.716   0.501   1.448 -0.1049  0.0228 -0.4458
12041TIP3    H157538   1.706   0.583   1.495  0.4175  0.2698 -0.7550
12041TIP3    H257539   1.627   0.477   1.421 -0.2020  0.7275 -0.7585
12042TIP3   OH257540   0.780   6.055  13.370 -0.2465 -0.1745  0.1734
12042TIP3    H157541   0.703   6.031  13.318 -0.6204  0.6464  0.3425
12042TIP3    H257542   0.834   5.976  13.369 -0.0500 -0.0683 -1.8207
12043TIP3   OH257543   3.065   2.361  13.718  0.1800 -0.1418 -0.0942
12043TIP3    H157544   3.029   2.333  13.802  1.7389 -0.8096  0.3823
12043TIP3    H257545   3.118   2.438  13.738 -0.4792  0.4870 -0.6914
12044TIP3   OH257546   0.473   2.298   2.878  0.0894  0.0482 -0.3702
12044TIP3    H157547   0.449   2.388   2.899 -0.8078 -0.3087  0.2057
12044TIP3    H257548   0.390   2.257   2.851  0.3284 -0.8145  0.1629
12045TIP3   OH257549   0.226   0.676   2.934  0.7174  0.0426 -0.6252
12045TIP3    H157550   0.144   0.707   2.973  1.6003  0.6888  0.8198
12045TIP3    H257551   0.262   0.615   2.998  0.8769 -1.0451 -1.7196
12046TIP3   OH257552   4.228   2.295  15.956  0.0508  0.3114  0.5362
12046TIP3    H157553   4.303   2.236  15.953 -0.1323  0.1188 -1.3050
12046TIP3    H257554   4.263   2.379  15.925 -0.0390  0.7995  1.6913
12047TIP3   OH257555   4.807   2.249  13.017  0.4082 -0.2071 -0.1997
12047TIP3    H157556   4.831   2.335  13.049  1.0838  0.2171 -1.7934
12047TIP3    H257557   4.885   2.195  13.030  0.4983 -0.1759 -0.5880
12048TIP3   OH257558   5.110   5.419  14.734 -0.2177 -0.2382  0.5624
12048TIP3    H157559   5.132   5.509  14.758 -1.1772 -0.1857  1.3400
12048TIP3    H257560   5.082   5.379  14.817  1.7909 -1.7756  0.5850
12049TIP3   OH257561   4.830   6.244  15.570  0.3490 -0.4636 -0.6040
12049TIP3    H157562   4.808   6.217  15.481  0.1658  1.7366 -1.3004
12049TIP3    H257563   4.924   6.228  15.578  0.5819  0.3069 -1.6076
12050TIP3   OH257564   0.584   2.868   0.408 -0.5252 -0.2343  0.3748
12050TIP3    H157565   0.590   2.906   0.496  0.8300  0.8216 -0.1262
12050TIP3    H257566   0.660   2.809   0.402 -0.8923 -0.6765  0.0852
12051TIP3   OH257567   5.577   0.846   0.881  0.3920 -0.0033  0.5858
12051TIP3    H157568   5.518   0.771   0.897  0.1983  0.5872  2.9716
12051TIP3    H257569   5.663   0.806   0.870 -0.0411 -0.7093 -0.4685
12052TIP3   OH257570   3.034   6.459   0.877  0.0758 -0.0664 -0.3005
12052TIP3    H157571   2.939   6.453   0.862  0.4644 -0.4835 -3.0039
12052TIP3    H257572   3.054   6.381   0.929 -0.6690 -1.7204 -2.3537
12053TIP3   OH257573   4.296   5.379  11.361 -0.4931 -0.0036 -0.6447
12053TIP3    H157574   4.236   5.332  11.418  2.0666 -0.9469  1.4866
12053TIP3    H257575   4.262   5.469  11.359 -2.1970 -0.6003  0.0394
12054TIP3   OH257576   4.800   1.070   1.431 -0.0915 -0.0753 -0.1912
12054TIP3    H157577   4.790   1.120   1.512  1.2333  0.2050 -0.1882
12054TIP3    H257578   4.740   0.996   1.441 -2.1634  1.4880 -0.2163
12055TIP3   OH257579   4.524   2.789   0.751 -0.0077  0.1753  0.7123
12055TIP3    H157580   4.620   2.784   0.751  0.0236  0.1880 -0.7963
12055TIP3    H257581   4.505   2.877   0.717 -0.4986 -0.9731 -2.3184
12056TIP3   OH257582   5.413   6.586   5.586  0.7213 -0.2164  0.1845
12056TIP3    H157583   5.343   6.640   5.622 -0.6304 -1.6082 -0.2072
12056TIP3    H257584   5.473   6.572   5.659  0.4823  0.8257  0.5993
12057TIP3   OH257585   0.116   5.071   1.600  0.1872 -0.0095 -0.3799
12057TIP3    H157586   0.130   5.155   1.645 -1.0559  0.2663 -0.4772
12057TIP3    H257587   0.190   5.017   1.628  1.4788  1.3743 -0.9602
12058TIP3   OH257588   4.448   4.331  12.566  0.4179  0.3862  0.0390
12058TIP3    H157589   4.476   4.245  12.535 -1.4441 -0.6932  1.1378
12058TIP3    H257590   4.526   4.385  12.562  1.6338 -1.3534 -0.7251
12059TIP3   OH257591   1.049   3.045   1.584 -0.2177  0.4510  0.3669
12059TIP3    H157592   1.100   3.126   1.583  0.2379  0.1816  1.1168
12059TIP3    H257593   1.025   3.033   1.676  0.2737 -0.6070  0.3661
12060TIP3   OH257594   6.742   1.961  15.329  0.3517 -0.1950 -0.3692
12060TIP3    H157595   6.705   1.914  15.403  0.6761  0.0938 -0.0154
12060TIP3    H257596   6.667   1.983  15.274  0.3122 -2.3579 -1.2949
12061TIP3   OH257597   1.176   4.926  13.154  0.1828 -0.4804  0.3856
12061TIP3    H157598   1.226   4.879  13.087 -1.2956 -1.8091  0.1471
12061TIP3    H257599   1.085   4.917  13.127 -0.2484  1.6848  0.9133
12062TIP3   OH257600   0.936   4.787   3.016 -0.1190 -0.0749  0.7427
12062TIP3    H157601   1.024   4.824   3.001  0.7589 -1.6879  1.6578
12062TIP3    H257602   0.910   4.820   3.102 -0.1804 -0.0421  0.7117
12063TIP3   OH257603   2.188   2.916  11.451  0.4498 -0.8314  0.3838
12063TIP3    H157604   2.220   2.904  11.541  2.5615 -0.0870 -0.2107
12063TIP3    H257605   2.267   2.922  11.398 -0.6635  1.6678 -1.1671
12064TIP3   OH257606   6.686   4.926  17.240  1.0575  0.7063  0.1552
12064TIP3    H157607   6.686   4.976  17.322 -0.3128 -0.7556  1.1057
12064TIP3    H257608   6.608   4.955  17.193  0.2250 -0.4920  0.7348
12065TIP3   OH257609   0.320   2.150  17.122 -0.0461 -0.1890 -0.3986
12065TIP3    H157610   0.322   2.056  17.143  1.9118  0.0200  0.5957
12065TIP3    H257611   0.411   2.178  17.129 -0.6237  1.8470 -0.4517
12066TIP3   OH257612   2.928   1.542   5.239  0.0787  0.3500  0.8137
12066TIP3    H157613   2.845   1.575   5.274 -0.3624  1.0961 -0.8082
12066TIP3    H257614   2.926   1.566   5.146  1.8232 -0.2119  0.5859
12067TIP3   OH257615   3.531   0.097   0.523  0.3388 -0.1485 -0.2553
12067TIP3    H157616   3.588   0.131   0.454 -1.8058  0.1769 -2.0035
12067TIP3    H257617   3.530   0.002   0.508 -0.1561 -0.0736 -0.7252
12068TIP3   OH257618   2.210   4.897   5.365  0.4951  0.0525 -0.2154
12068TIP3    H157619   2.200   4.815   5.317  2.2770 -1.3045  1.5943
12068TIP3    H257620   2.120   4.931   5.374 -0.2418 -1.5378 -1.2383
12069TIP3   OH257621   0.054   3.246  15.000  0.3307  0.6132  0.0331
12069TIP3    H157622   0.140   3.278  14.975  0.2546  1.8946  1.3298
12069TIP3    H257623   0.011   3.320  15.041 -1.7018  0.2371 -1.2458
12070TIP3   OH257624   2.441   0.505   4.011  0.0043 -0.5932  0.5998
12070TIP3    H157625   2.513   0.444   4.025  2.9529  2.0259 -1.6137
12070TIP3    H257626   2.433   0.511   3.916  1.3655  3.7840  0.5212
12071TIP3   OH257627   4.166   5.024  14.018  0.0946 -0.0745  0.1550
12071TIP3    H157628   4.237   5.007  14.080  1.2506  1.3856 -0.7206
12071TIP3    H257629   4.093   5.051  14.073  0.6691 -0.1572  0.9815
12072TIP3   OH257630   1.002   1.612   5.814  0.4005  0.3969  0.7191
12072TIP3    H157631   1.046   1.542   5.767  1.1790  0.9542  0.5959
12072TIP3    H257632   0.985   1.679   5.747 -0.3449  0.3350  0.8313
12073TIP3   OH257633   2.199   2.666   1.115 -0.3125 -0.3951  0.0384
12073TIP3    H157634   2.223   2.580   1.079 -0.1083  0.5447 -2.2712
12073TIP3    H257635   2.276   2.693   1.165  1.7596  0.4786 -3.2866
12074TIP3   OH257636   3.634   6.568   2.768 -0.1719 -1.0224 -0.1257
12074TIP3    H157637   3.549   6.587   2.808  0.1300 -1.0461  0.5376
12074TIP3    H257638   3.688   6.644   2.787  0.1496 -1.2795  0.0102
12075TIP3   OH257639   2.613   6.127  10.205  0.0899 -0.1868 -0.3970
12075TIP3    H157640   2.627   6.112  10.298 -0.8369 -0.8774 -0.3503
12075TIP3    H257641   2.620   6.222  10.194  1.7070 -0.2279  0.0955
12076TIP3   OH257642   2.572   0.367   0.814  0.3569  0.3207  0.8216
12076TIP3    H157643   2.537   0.288   0.857  0.4036 -0.6550 -0.8416
12076TIP3    H257644   2.576   0.344   0.721  0.5820  2.2288  0.3127
12077TIP3   OH257645   6.467   3.660   3.941  0.2526 -0.0313  0.8524
12077TIP3    H157646   6.432   3.673   3.853  1.4305  1.1303  0.5352
12077TIP3    H257647   6.547   3.609   3.928 -1.2283 -2.7892  1.5846
12078TIP3   OH257648   3.387   5.787   2.925 -0.0123  0.1208 -0.2723
12078TIP3    H157649   3.330   5.812   2.997  2.1985 -1.0867  2.0624
12078TIP3    H257650   3.364   5.696   2.906  1.9369 -0.8579  1.6683
12079TIP3   OH257651   3.722   3.521   1.349 -0.0847  0.2950 -0.2207
12079TIP3    H157652   3.633   3.489   1.355  0.6173 -1.6338  0.6261
12079TIP3    H257653   3.776   3.442   1.343  1.6869  1.3498  0.9460
12080TIP3   OH257654   1.933   0.419  11.435 -0.2561  0.1140  0.4655
12080TIP3    H157655   1.987   0.446  11.509  0.5918 -0.8232  0.2057
12080TIP3    H257656   1.887   0.341  11.466  1.5108 -1.4075 -0.5476
12081TIP3   OH257657   4.266   1.185  11.799  0.8127  0.1649  0.7761
12081TIP3    H157658   4.255   1.095  11.829  1.9964  0.0844  1.0201
12081TIP3    H257659   4.260   1.238  11.878 -1.6032  0.4912  0.4271
12082TIP3   OH257660   1.714   0.982   6.750  0.4535  0.5854  0.0725
12082TIP3    H157661   1.758   1.010   6.670 -0.3664 -0.6982 -0.8512
12082TIP3    H257662   1.774   0.918   6.789  1.4568  2.1455  1.2082
12083TIP3   OH257663   0.553   0.713   3.952 -0.1774 -0.1139  0.1984
12083TIP3    H157664   0.585   0.624   3.967  0.7909  0.1497 -0.2442
12083TIP3    H257665   0.632   0.765   3.940 -0.7800  0.4413 -1.6279
12084TIP3   OH257666   5.936   2.465   4.815 -0.2437  0.2083  0.1554
12084TIP3    H157667   5.946   2.529   4.886  0.3605  2.7613 -2.0342
12084TIP3    H257668   5.886   2.511   4.748 -1.8163 -2.5053 -0.6982
12085TIP3   OH257669   3.717   3.328   0.435 -0.2103  0.0180  0.2475
12085TIP3    H157670   3.625   3.301   0.432 -0.0207 -0.7271  0.8354
12085TIP3    H257671   3.763   3.252   0.469  0.7630  0.0684 -0.8876
12086TIP3   OH257672   1.145   2.833  15.363 -0.3253  0.8463 -0.0671
12086TIP3    H157673   1.221   2.778  15.347 -1.2878 -0.5085 -0.1909
12086TIP3    H257674   1.077   2.798  15.304 -1.6873  0.5862  1.5655
12087TIP3   OH257675   5.352   2.935   0.758  0.0848 -0.3440  0.1396
12087TIP3    H157676   5.342   2.890   0.674  0.7191 -0.8313  0.3078
12087TIP3    H257677   5.277   2.993   0.764 -0.7162 -1.3169 -0.1398
12088TIP3   OH257678   5.009   2.142  13.548 -0.1094  0.0341  0.0662
12088TIP3    H157679   4.986   2.056  13.514 -0.9458  0.3546 -0.1878
12088TIP3    H257680   4.975   2.143  13.637 -0.5826  0.2988 -0.1158
12089TIP3   OH257681   6.742   1.633   1.431  0.3607  0.3176 -0.3918
12089TIP3    H157682   6.650   1.643   1.455  0.5167 -0.3219  0.5305
12089TIP3    H257683   6.743   1.556   1.374  0.1187  1.2832 -1.7398
12090TIP3   OH257684   1.914   0.352  14.577 -0.0483 -0.2075 -0.0162
12090TIP3    H157685   1.907   0.429  14.633  0.0259 -0.0528 -0.2173
12090TIP3    H257686   1.974   0.294  14.624  2.6696  1.2644 -1.4069
12091TIP3   OH257687   4.514   0.759   5.590 -0.2796  0.2483 -0.1788
12091TIP3    H157688   4.580   0.741   5.657 -1.5206  0.3420  1.1243
12091TIP3    H257689   4.560   0.749   5.507  2.1988  3.2115  0.6405
12092TIP3   OH257690   4.570   2.630  12.401 -0.5607  0.1627 -0.1653
12092TIP3    H157691   4.603   2.602  12.315  0.6926 -0.8904  0.6268
12092TIP3    H257692   4.608   2.717  12.413 -2.2900  1.1642 -1.4676
12093TIP3   OH257693   5.804   5.982   2.003  0.4553 -0.3733 -0.2017
12093TIP3    H157694   5.787   6.065   2.047 -1.6050 -1.0050  0.2827
12093TIP3    H257695   5.730   5.971   1.944  1.1805 -1.4425 -0.9387
12094TIP3   OH257696   0.476   4.000   5.035 -0.0115  0.7782  0.2069
12094TIP3    H157697   0.421   3.932   4.997 -0.1972  0.7828  0.4611
12094TIP3    H257698   0.519   3.957   5.109 -0.2717  0.9793  0.4826
12095TIP3   OH257699   4.266   1.439  11.072  0.1980  0.2769 -0.4201
12095TIP3    H157700   4.227   1.470  11.153 -0.9641  1.0374 -1.2518
12095TIP3    H257701   4.257   1.512  11.011  2.1102  0.1497 -0.9184
12096TIP3   OH257702   1.696   4.061   0.084  0.0084  0.2515 -0.6925
12096TIP3    H157703   1.708   4.151   0.111  0.0104  0.0818 -0.1176
12096TIP3    H257704   1.601   4.053   0.070 -0.1857 -0.0257  0.6300
12097TIP3   OH257705   6.584   2.367  12.879 -0.3526 -0.0728 -0.1764
12097TIP3    H157706   6.660   2.418  12.908  0.8316 -1.7323 -0.1623
12097TIP3    H257707   6.511   2.399  12.932  0.5772  0.7878  0.6260
12098TIP3   OH257708   4.284   6.453   2.665  0.3056 -0.0451 -0.4162
12098TIP3    H157709   4.205   6.404   2.686 -0.7488  0.9198 -1.9242
12098TIP3    H257710   4.262   6.543   2.690  1.4912 -0.0011  0.5215
12099TIP3   OH257711   6.120   4.109  16.284  0.1212  0.1013  0.3753
12099TIP3    H157712   6.142   4.130  16.375  0.4136 -1.2093  0.6408
12099TIP3    H257713   6.049   4.169  16.262 -0.1489  0.2528  1.5679
12100TIP3   OH257714   1.590   2.123   4.504 -0.1082  0.0762 -0.3280
12100TIP3    H157715   1.560   2.093   4.418  0.9518 -1.5508 -0.1741
12100TIP3    H257716   1.529   2.083   4.566 -1.3112  1.8227 -0.2942
12101TIP3   OH257717   3.191   0.702   4.874  0.7303 -0.3413  0.3694
12101TIP3    H157718   3.143   0.699   4.956  0.6605 -0.7567  0.3177
12101TIP3    H257719   3.256   0.771   4.886  1.3825 -1.0718  1.1404
12102TIP3   OH257720   2.198   5.924  15.526  0.4630 -0.6566 -0.1673
12102TIP3    H157721   2.258   5.917  15.451  0.0344 -1.7735 -0.4215
12102TIP3    H257722   2.121   5.874  15.500 -1.1121  1.6586 -0.3224
12103TIP3   OH257723   3.158   2.104   0.991 -0.7869  0.1698 -0.2291
12103TIP3    H157724   3.104   2.053   0.930 -0.9566 -1.2916  1.0876
12103TIP3    H257725   3.245   2.104   0.951 -0.5842 -1.9192  0.1214
12104TIP3   OH257726   6.711   1.946   2.842 -0.1154 -0.6555 -0.2119
12104TIP3    H157727   6.690   1.860   2.877 -1.2951 -0.4452 -0.3650
12104TIP3    H257728   6.640   1.965   2.781  0.2159  0.3558 -0.2984
12105TIP3   OH257729   2.887   4.419   1.031  0.0574  0.1871 -0.0761
12105TIP3    H157730   2.904   4.381   0.945 -0.4701  1.8459 -0.9664
12105TIP3    H257731   2.796   4.395   1.050  0.5456 -1.2076  0.6086
12106TIP3   OH257732   2.451   2.218   1.572 -0.0482  0.1420  0.4665
12106TIP3    H157733   2.467   2.224   1.666 -0.1740 -0.3504  0.5204
12106TIP3    H257734   2.418   2.305   1.548  0.0897  0.3018  0.8557
12107TIP3   OH257735   4.775   3.302   5.704  0.0688 -0.5967 -0.3450
12107TIP3    H157736   4.766   3.218   5.658 -0.8571 -0.3900 -0.5568
12107TIP3    H257737   4.844   3.348   5.656  0.9378 -1.4223  0.0727
12108TIP3   OH257738   0.431   4.101   1.192 -0.5620 -0.1530 -0.5582
12108TIP3    H157739   0.450   4.181   1.145 -1.4994  0.0362 -0.6416
12108TIP3    H257740   0.500   4.094   1.258 -0.0215  0.2934 -1.0701
12109TIP3   OH257741   0.162   5.275   1.782  0.3252  0.2198  0.8179
12109TIP3    H157742   0.067   5.288   1.785  0.1845 -0.7480  0.8218
12109TIP3    H257743   0.193   5.309   1.866  0.3523  3.1440 -0.2912
12110TIP3   OH257744   0.088   5.574  11.313 -0.4097 -0.0930  0.6184
12110TIP3    H157745   0.061   5.497  11.262  3.1700 -2.0180  1.2843
12110TIP3    H257746   0.055   5.649  11.262 -2.6865 -1.9686 -0.9170
12111TIP3   OH257747   6.752   2.506  12.046  0.2246  0.1841  0.5288
12111TIP3    H157748   6.823   2.445  12.068  0.3140  0.0903 -0.0117
12111TIP3    H257749   6.676   2.450  12.032  0.1627  0.2453  0.6215
12112TIP3   OH257750   6.584   4.715   2.846 -0.2026  0.1421 -0.3306
12112TIP3    H157751   6.497   4.688   2.878 -0.7874  1.6781 -0.5046
12112TIP3    H257752   6.611   4.784   2.907 -0.3572  1.5986 -1.8445
12113TIP3   OH257753   2.560   5.944  10.973 -0.0841  0.1902  0.2095
12113TIP3    H157754   2.522   5.960  10.887  0.7581 -0.5017 -0.3032
12113TIP3    H257755   2.489   5.906  11.024 -0.2623 -0.5477 -0.5646
12114TIP3   OH257756   2.129   5.514  11.260  0.0466 -0.0273 -0.0079
12114TIP3    H157757   2.124   5.562  11.343 -0.7444  0.3173 -0.2558
12114TIP3    H257758   2.044   5.472  11.251  0.1790 -0.1752 -0.5871
12115TIP3   OH257759   4.855   0.555  15.409  0.4448  0.0469  0.5795
12115TIP3    H157760   4.846   0.575  15.503 -0.7992 -2.2429  1.0388
12115TIP3    H257761   4.800   0.477  15.397 -0.1639  0.8229 -2.2678
12116TIP3   OH257762   1.807   1.710   0.058 -0.4832 -0.2850  0.2503
12116TIP3    H157763   1.882   1.650   0.055 -1.8186 -2.0190  0.2894
12116TIP3    H257764   1.813   1.752   0.144  0.3723 -0.4619  0.2899
12117TIP3   OH257765   1.809   5.514   2.634 -0.0131 -0.2540 -0.3794
12117TIP3    H157766   1.849   5.519   2.720 -1.5643  0.9867  0.3243
12117TIP3    H257767   1.849   5.438   2.592  0.9288 -0.7339  1.3462
12118TIP3   OH257768   1.140   0.072   3.350 -0.1099 -0.1663 -0.1837
12118TIP3    H157769   1.117   0.116   3.268 -0.9248 -1.3342 -0.5974
12118TIP3    H257770   1.123   0.138   3.418 -2.5061 -0.1859 -0.6823
12119TIP3   OH257771   4.174   1.650   4.181 -0.3995  0.7417  0.2364
12119TIP3    H157772   4.179   1.569   4.231  0.4832  0.3611 -0.4336
12119TIP3    H257773   4.227   1.713   4.230  1.1033  0.1575 -0.5574
12120TIP3   OH257774   4.179   3.726   2.128  0.0642  0.1648  0.0181
12120TIP3    H157775   4.163   3.647   2.077 -0.5000 -0.0595  0.5262
12120TIP3    H257776   4.127   3.714   2.208 -1.5326  1.8472 -0.6861
12121TIP3   OH257777   5.155   3.670   2.344  0.4546 -0.3265 -0.1876
12121TIP3    H157778   5.205   3.619   2.281 -1.4368 -1.6332 -0.7114
12121TIP3    H257779   5.067   3.678   2.306 -0.8512 -1.3996  2.3178
12122TIP3   OH257780   6.582   1.160  13.097 -0.5186  0.2027  0.1743
12122TIP3    H157781   6.645   1.129  13.162  1.3035  0.6525 -1.2888
12122TIP3    H257782   6.621   1.239  13.061 -2.1633  0.7708 -0.4747
12123TIP3   OH257783   2.904   4.523   0.706 -0.4051  0.0343 -0.4492
12123TIP3    H157784   2.971   4.510   0.639 -0.0166  0.5594 -0.1624
12123TIP3    H257785   2.835   4.460   0.682  0.0878 -0.3618 -0.8630
12124TIP3   OH257786   3.507   4.313  15.079 -0.0470  0.5717 -0.2303
12124TIP3    H157787   3.506   4.395  15.030 -1.2959  0.2741 -0.7379
12124TIP3    H257788   3.500   4.339  15.171 -1.2582  1.0314 -0.4312
12125TIP3   OH257789   6.714   4.240   1.095  0.0815  0.3663 -0.7150
12125TIP3    H157790   6.801   4.212   1.125  0.1617  0.1326 -1.1462
12125TIP3    H257791   6.722   4.335   1.083 -0.0438  0.5114  0.2815
12126TIP3   OH257792   3.658   2.910   5.361 -0.0038  0.2257  0.3359
12126TIP3    H157793   3.616   2.828   5.385 -1.3514  1.3228  1.9868
12126TIP3    H257794   3.736   2.914   5.417 -0.4552  0.4991  0.9517
12127TIP3   OH257795   3.204   3.070   0.775 -0.0738  0.0967  0.6351
12127TIP3    H157796   3.195   2.975   0.781  1.5625 -0.2785 -1.5682
12127TIP3    H257797   3.117   3.103   0.796 -0.7028 -1.8658  1.4079
12128TIP3   OH257798   4.314   2.286  10.963 -0.0831 -0.3837 -0.3992
12128TIP3    H157799   4.241   2.333  11.004 -1.2975 -1.3827 -1.3395
12128TIP3    H257800   4.367   2.255  11.036 -0.1705  0.9937  0.2835
12129TIP3   OH257801   1.667   0.452   3.257 -0.2969 -0.2470 -0.3393
12129TIP3    H157802   1.652   0.482   3.168 -0.4809  0.4783 -0.0679
12129TIP3    H257803   1.587   0.475   3.304  0.0945  0.0647  0.1867
12130TIP3   OH257804   5.773   3.856   6.266  0.6362 -0.2118  0.5066
12130TIP3    H157805   5.692   3.807   6.280  0.8280 -0.6565  0.1119
12130TIP3    H257806   5.787   3.852   6.171  1.0543 -0.0377  0.5585
12131TIP3   OH257807   6.650   1.546   5.664 -0.5362  0.1268  0.3856
12131TIP3    H157808   6.647   1.548   5.760  2.5182 -2.5479  0.7184
12131TIP3    H257809   6.719   1.608   5.641 -0.5357  0.0014  0.0415
12132TIP3   OH257810   4.232   3.587  14.068 -0.1639  0.5454 -0.1192
12132TIP3    H157811   4.309   3.626  14.110  0.7975 -0.0903 -1.2406
12132TIP3    H257812   4.194   3.532  14.137 -0.8461  2.4437  1.1008
12133TIP3   OH257813   6.484   5.569  14.097  1.1034  0.4109  0.4416
12133TIP3    H157814   6.572   5.572  14.060  1.4819  0.8553  1.3347
12133TIP3    H257815   6.498   5.558  14.191  0.1775 -0.6049  0.4825
12134TIP3   OH257816   1.031   4.223   0.426  0.3320  0.4916 -0.0756
12134TIP3    H157817   1.017   4.164   0.500 -0.3307 -0.9890 -1.3061
12134TIP3    H257818   1.048   4.308   0.465  1.2992 -0.4998  1.7908
12135TIP3   OH257819   0.037   3.664   3.233 -0.4704  0.9306  0.0982
12135TIP3    H157820   0.019   3.574   3.260  2.1609  0.1440 -0.5026
12135TIP3    H257821   0.041   3.714   3.315 -1.2082  0.3742  0.4832
12136TIP3   OH257822   1.237   1.259   1.100  0.3249  0.4377  0.1841
12136TIP3    H157823   1.174   1.191   1.075  0.5801  0.4589 -0.5450
12136TIP3    H257824   1.255   1.305   1.018  2.1949 -0.3214  0.1335
12137TIP3   OH257825   2.369   0.149   1.795  0.2588 -0.3891 -0.0805
12137TIP3    H157826   2.339   0.067   1.755 -0.8247  0.0090 -0.1207
12137TIP3    H257827   2.289   0.202   1.803  0.6530  0.0091  1.5118
12138TIP3   OH257828   1.744   2.116  13.389  0.0807 -0.2724  0.2936
12138TIP3    H157829   1.657   2.114  13.428  0.5667  0.5853  1.4746
12138TIP3    H257830   1.777   2.204  13.408  1.6936 -0.9891  0.9894
12139TIP3   OH257831   3.929   6.143  15.160  0.5593 -0.1783  0.5318
12139TIP3    H157832   3.917   6.216  15.099  1.6996  0.2949  0.8579
12139TIP3    H257833   3.873   6.074  15.125 -0.8067  0.9493  0.4086
12140TIP3   OH257834   3.578   5.319   2.417 -0.1642  0.5008 -0.6152
12140TIP3    H157835   3.516   5.247   2.406 -1.4939  1.5224 -0.0522
12140TIP3    H257836   3.549   5.386   2.355  0.3642  0.9994 -0.3315
12141TIP3   OH257837   6.150   3.227  13.406 -0.8525  0.1757  0.7377
12141TIP3    H157838   6.209   3.161  13.441 -1.4530  0.4740  2.4117
12141TIP3    H257839   6.139   3.290  13.478 -1.7567  1.0852 -0.1635
12142TIP3   OH257840   0.936   5.018   2.536 -0.0636 -0.1900 -0.8780
12142TIP3    H157841   0.909   5.065   2.614  1.3657  0.2280 -0.6049
12142TIP3    H257842   0.857   4.972   2.507 -1.4914  2.2456 -1.0951
12143TIP3   OH257843   4.067   2.326   1.643  0.0013 -0.1482  0.7729
12143TIP3    H157844   4.141   2.385   1.660  0.6655 -0.0206 -2.0753
12143TIP3    H257845   4.108   2.242   1.621 -0.7566 -0.4150  0.3541
12144TIP3   OH257846   3.324   3.857   1.179 -0.0672 -0.7095 -0.0733
12144TIP3    H157847   3.229   3.862   1.185 -0.1927 -0.1661 -1.8274
12144TIP3    H257848   3.342   3.859   1.085  1.6635 -1.2260  0.2041
12145TIP3   OH257849   0.600   1.882   4.843 -0.1296  0.3081 -0.5928
12145TIP3    H157850   0.611   1.894   4.749  0.4285 -1.4455 -0.7851
12145TIP3    H257851   0.582   1.789   4.853 -3.2049  0.9406  0.7940
12146TIP3   OH257852   5.107   5.280  12.145  0.2456  0.0008 -0.4956
12146TIP3    H157853   5.065   5.204  12.184  0.3347 -1.0856 -2.3773
12146TIP3    H257854   5.069   5.355  12.191 -0.8415 -1.1164  0.5021
12147TIP3   OH257855   1.682   1.342  12.141 -0.0154  0.0049 -0.1735
12147TIP3    H157856   1.673   1.259  12.188  1.7713 -0.8413 -1.2584
12147TIP3    H257857   1.634   1.405  12.195  2.2482 -0.8081  3.0722
12148TIP3   OH257858   5.188   6.274   4.630 -0.3104 -0.4817 -0.2420
12148TIP3    H157859   5.256   6.237   4.574 -0.9147  1.1475 -2.1971
12148TIP3    H257860   5.234   6.307   4.707  0.5585 -2.7108  0.2653
12149TIP3   OH257861   1.221   4.202   2.949  0.0191 -0.0462 -1.0019
12149TIP3    H157862   1.141   4.187   2.899 -0.5737  0.9281 -0.3631
12149TIP3    H257863   1.231   4.124   3.004 -1.6889  0.7341  0.5009
12150TIP3   OH257864   3.362   1.063   4.214 -1.2027  0.1713 -0.7239
12150TIP3    H157865   3.299   1.012   4.266 -1.2736  1.1241  0.1486
12150TIP3    H257866   3.446   1.047   4.257 -1.1325  0.3303 -0.8038
12151TIP3   OH257867   4.631   4.621   1.936  0.1650 -0.1004  0.3433
12151TIP3    H157868   4.661   4.673   2.011  0.1394  1.0250 -0.4051
12151TIP3    H257869   4.577   4.681   1.885 -0.5245 -1.1024 -0.1459
12152TIP3   OH257870   4.141   5.402  11.881 -0.0830 -0.7319 -0.8035
12152TIP3    H157871   4.062   5.439  11.920  0.2619 -1.8658  1.0993
12152TIP3    H257872   4.213   5.448  11.924  0.3030 -0.6139 -1.5707
12153TIP3   OH257873   3.021   2.901  13.159  0.3261 -0.7523 -0.2606
12153TIP3    H157874   2.972   2.937  13.085  2.0057 -0.6712 -1.3990
12153TIP3    H257875   2.989   2.950  13.235  0.0920  0.7375 -1.2612
12154TIP3   OH257876   0.043   1.952   4.216 -0.2391 -0.2885  0.7864
12154TIP3    H157877   0.065   1.978   4.306  0.5874  1.0176  0.2467
12154TIP3    H257878  -0.033   2.006   4.194  0.7203  0.8210  0.0824
12155TIP3   OH257879   1.607   0.559   5.670 -0.0242 -0.0613 -0.2344
12155TIP3    H157880   1.666   0.484   5.670 -1.3141 -1.1140  0.5312
12155TIP3    H257881   1.551   0.546   5.747 -3.0590 -0.5700 -2.3521
12156TIP3   OH257882   6.337   2.927  14.562  0.4299  0.4301  0.4526
12156TIP3    H157883   6.391   3.001  14.533 -0.1172  0.1990 -1.3030
12156TIP3    H257884   6.387   2.849  14.536  0.2807  0.1929  0.8618
12157TIP3   OH257885   1.781   5.970   4.455  0.2128 -0.1436  0.1576
12157TIP3    H157886   1.823   5.990   4.371  1.1326 -0.2843  0.5731
12157TIP3    H257887   1.853   5.947   4.513 -0.2548  1.2886  1.3790
12158TIP3   OH257888   2.194   0.129   2.433 -0.2870 -0.6402  0.0966
12158TIP3    H157889   2.111   0.159   2.397 -0.1143 -0.7285 -0.3867
12158TIP3    H257890   2.251   0.118   2.356  0.5126  0.4529  0.5039
12159TIP3   OH257891   5.679   4.087   1.913  0.3114 -0.5526 -0.7257
12159TIP3    H157892   5.639   4.001   1.900  0.1320 -0.5029 -0.4995
12159TIP3    H257893   5.621   4.148   1.867  1.6661 -0.8033 -2.9558
12160TIP3   OH257894   1.730   0.891   6.235  0.0586 -0.3003 -0.4218
12160TIP3    H157895   1.747   0.977   6.195 -0.0758 -0.0109  0.1323
12160TIP3    H257896   1.644   0.866   6.202 -0.5428  0.4373  0.5091
12161TIP3   OH257897   5.561   1.190   1.848 -0.3536 -0.1651 -0.1234
12161TIP3    H157898   5.642   1.238   1.863 -0.0259 -0.8273  0.2382
12161TIP3    H257899   5.528   1.168   1.935 -0.3629 -0.8247 -0.2883
12162TIP3   OH257900   6.597   1.536   4.332  0.1277  0.3186  0.4325
12162TIP3    H157901   6.654   1.524   4.255 -0.0298  0.7963  0.2378
12162TIP3    H257902   6.530   1.469   4.323  1.0643 -0.7444  1.0507
12163TIP3   OH257903   3.798   2.619  17.291 -0.2069 -0.3120  0.4732
12163TIP3    H157904   3.762   2.530  17.284 -0.9474  0.0070  0.1812
12163TIP3    H257905   3.891   2.605  17.309 -0.0514 -1.1546 -0.8427
12164TIP3   OH257906   1.303   0.585  15.029 -0.1123 -0.2036  0.2943
12164TIP3    H157907   1.354   0.504  15.027  0.6071  0.1696  2.2082
12164TIP3    H257908   1.270   0.594  14.939  2.1819 -1.0880 -0.7098
12165TIP3   OH257909   0.133   2.986  16.716 -0.4515  0.4830  0.1188
12165TIP3    H157910   0.126   3.021  16.805 -1.1198  2.4923 -0.6649
12165TIP3    H257911   0.203   3.037  16.676 -0.0607 -0.5034 -0.4762
12166TIP3   OH257912   4.466   5.273   4.422 -0.1654  0.0388  0.0445
12166TIP3    H157913   4.414   5.203   4.381  1.2645 -1.1380  0.1575
12166TIP3    H257914   4.415   5.299   4.499 -1.1815 -0.1925 -0.5274
12167TIP3   OH257915   3.929   5.658  13.981  0.7522 -0.5028 -0.1365
12167TIP3    H157916   3.885   5.575  13.960  0.6430 -0.8867  1.5212
12167TIP3    H257917   3.858   5.717  14.007  0.4974  0.9888 -3.6408
12168TIP3   OH257918   5.292   4.119   0.501  0.4169  0.0506 -0.0330
12168TIP3    H157919   5.372   4.068   0.510  0.4075 -0.8162 -3.3777
12168TIP3    H257920   5.323   4.209   0.486  0.8371 -0.2594 -1.1888
12169TIP3   OH257921   4.871   2.516   3.849 -0.1764 -0.0814  0.1353
12169TIP3    H157922   4.864   2.430   3.809 -1.7745  1.3472 -3.0182
12169TIP3    H257923   4.965   2.529   3.861  0.6596 -0.4015 -4.2367
12170TIP3   OH257924   0.941   0.626  13.869  0.4869 -0.4506  0.6646
12170TIP3    H157925   0.919   0.576  13.947  0.9553 -3.1927 -0.8402
12170TIP3    H257926   0.856   0.646  13.829  0.3179 -0.8697  0.8068
12171TIP3   OH257927   1.773   1.357  14.194  0.4049  0.4685 -0.2220
12171TIP3    H157928   1.741   1.278  14.239  1.3675  0.7537  1.0544
12171TIP3    H257929   1.868   1.352  14.204  0.6426  0.6984 -2.0578
12172TIP3   OH257930   1.478   2.480  12.602 -0.1066  0.7413 -0.1763
12172TIP3    H157931   1.443   2.392  12.617  1.7097  0.2118  1.3992
12172TIP3    H257932   1.411   2.538  12.639 -1.4033  0.0765 -1.3690
12173TIP3   OH257933   6.141   4.410   6.240 -0.4826  0.3239  0.4030
12173TIP3    H157934   6.123   4.474   6.308 -0.2781  0.7101  0.0976
12173TIP3    H257935   6.067   4.417   6.180 -0.1997  0.6545  0.0883
12174TIP3   OH257936   6.526   0.556   4.576  0.0426  0.0055 -0.3192
12174TIP3    H157937   6.491   0.474   4.539 -2.6917  0.4950  0.9371
12174TIP3    H257938   6.599   0.578   4.518  1.3266 -3.6082 -0.3668
12175TIP3   OH257939   3.445   5.596   5.986 -0.4725  0.2375 -0.2004
12175TIP3    H157940   3.508   5.523   5.987  0.9123  1.3940 -0.3458
12175TIP3    H257941   3.390   5.581   6.063  0.4119 -0.4465  0.3216
12176TIP3   OH257942   1.996   4.977  14.865  0.0990 -0.3333  0.3693
12176TIP3    H157943   2.058   4.930  14.809  0.0760  0.2059 -0.1082
12176TIP3    H257944   2.047   5.000  14.943  0.3115 -0.4914  0.2785
12177TIP3   OH257945   6.557   6.710   1.666  0.1979  0.1106 -0.0933
12177TIP3    H157946   6.582   6.617   1.674 -0.8008 -0.2187 -0.7141
12177TIP3    H257947   6.567   6.729   1.573  0.0777  0.5424 -0.0152
12178TIP3   OH257948   1.843   1.173   3.295 -0.0423  0.2466  0.3512
12178TIP3    H157949   1.870   1.082   3.281  1.3267  0.6753 -0.0183
12178TIP3    H257950   1.897   1.202   3.369 -1.3652  0.4141  1.2807
12179TIP3   OH257951   0.193   0.361   2.178  0.6594 -0.3055 -0.9287
12179TIP3    H157952   0.239   0.341   2.097  2.0581 -0.8798 -0.0367
12179TIP3    H257953   0.162   0.276   2.210 -0.4996  0.0070 -1.2166
12180TIP3   OH257954   0.815   3.833  12.085 -0.1891  0.4767 -0.3092
12180TIP3    H157955   0.822   3.848  12.179 -1.6202  1.9329 -0.3911
12180TIP3    H257956   0.786   3.742  12.078  0.8597  0.0549  0.5949
12181TIP3   OH257957   0.599   0.674   6.627  0.5317  0.4431 -0.0822
12181TIP3    H157958   0.560   0.741   6.571  0.1292 -1.6873 -2.5373
12181TIP3    H257959   0.666   0.633   6.572  0.8636 -1.0696  1.3824
12182TIP3   OH257960   0.323   3.555   0.653  0.3175  0.7235  0.3194
12182TIP3    H157961   0.417   3.566   0.636  0.3287 -0.0470 -0.1775
12182TIP3    H257962   0.319   3.497   0.729  0.2429  0.9772  0.5098
12183TIP3   OH257963   1.527   6.058   1.939  0.0469  0.0277  0.2491
12183TIP3    H157964   1.596   5.998   1.912 -0.0026  0.0822  0.0004
12183TIP3    H257965   1.570   6.118   2.001 -0.0094 -0.5367  0.8484
12184TIP3   OH257966   3.627   2.814   4.177  0.3215  0.2653  0.3240
12184TIP3    H157967   3.638   2.879   4.247  0.0494  1.3460 -0.5982
12184TIP3    H257968   3.536   2.825   4.148  0.0525 -1.0346  0.6115
12185TIP3   OH257969   2.978   5.126  16.208 -0.8985 -0.1011  0.2113
12185TIP3    H157970   2.946   5.130  16.118 -1.7148 -1.4592  0.4226
12185TIP3    H257971   2.927   5.194  16.254  0.3950  1.4676 -0.5657
12186TIP3   OH257972   3.065   1.620   0.494  0.4410 -0.7467 -0.2269
12186TIP3    H157973   3.077   1.682   0.566  0.5877 -1.7423  0.6313
12186TIP3    H257974   3.107   1.662   0.419 -1.0394  0.9967 -0.1487
12187TIP3   OH257975   6.647   3.045  15.046  0.0618  0.0405 -0.5179
12187TIP3    H157976   6.695   2.966  15.073 -0.2724 -0.1723 -0.5335
12187TIP3    H257977   6.713   3.114  15.043  0.1206  0.0665  0.8128
12188TIP3   OH257978   6.083   0.905  13.985  0.0862  0.1251  0.4022
12188TIP3    H157979   6.145   0.945  14.047 -0.1623  1.3212 -0.0993
12188TIP3    H257980   6.101   0.811  13.991  0.4156  0.2583  1.9129
12189TIP3   OH257981   1.298   3.669  15.547  0.1240 -0.2375  0.2902
12189TIP3    H157982   1.308   3.681  15.452 -1.4616 -0.7673  0.0246
12189TIP3    H257983   1.353   3.594  15.567 -0.8487 -1.2254 -0.5545
12190TIP3   OH257984   6.240   1.382  14.662 -0.1109 -0.2865  0.3447
12190TIP3    H157985   6.334   1.368  14.668 -0.1718 -0.6984  0.3748
12190TIP3    H257986   6.203   1.334  14.736 -0.1939  1.5711  1.5663
12191TIP3   OH257987   6.527   2.296   3.623 -0.2338  0.7446 -0.6582
12191TIP3    H157988   6.457   2.293   3.557 -0.7964  1.0020 -0.0895
12191TIP3    H257989   6.537   2.389   3.644  0.5807  0.7495 -1.0366
12192TIP3   OH257990   5.880   2.755   4.975  0.3924 -0.4750  0.0173
12192TIP3    H157991   5.975   2.762   4.965  0.4488 -0.5945  0.4470
12192TIP3    H257992   5.844   2.803   4.900  0.7923 -0.8695 -0.4409
12193TIP3   OH257993   2.371   6.432   5.104 -0.2424 -0.4101 -0.4035
12193TIP3    H157994   2.427   6.377   5.159 -0.4389 -1.1416 -0.9305
12193TIP3    H257995   2.365   6.385   5.021  0.3677  0.8680 -1.1999
12194TIP3   OH257996   0.726   6.579  12.581  0.6249  0.5761 -0.1856
12194TIP3    H157997   0.718   6.488  12.607 -0.0152  0.1503 -1.7465
12194TIP3    H257998   0.642   6.600  12.539  1.2068  1.5060 -0.9353
12195TIP3   OH257999   0.427   0.696  16.197  0.1439 -0.0835  0.3094
12195TIP3    H158000   0.383   0.651  16.124  0.2026 -2.0126  1.4105
12195TIP3    H258001   0.358   0.751  16.235 -0.0698  0.4162 -0.7518
12196TIP3   OH258002   1.459   2.967   3.735  0.6019 -0.1514  0.2578
12196TIP3    H158003   1.434   2.900   3.672 -1.7942 -0.0484  0.9644
12196TIP3    H258004   1.462   3.048   3.684  1.5164 -0.4909 -0.2322
12197TIP3   OH258005   3.527   4.350   6.251  0.0364  0.0520  0.0915
12197TIP3    H158006   3.540   4.315   6.339  0.4146  0.3507  0.1588
12197TIP3    H258007   3.458   4.296   6.213 -0.0612 -0.1394  0.5381
12198TIP3   OH258008   5.178   5.194   2.578  0.1378 -1.3642  0.0615
12198TIP3    H158009   5.217   5.158   2.498  0.9483 -0.0310 -0.1761
12198TIP3    H258010   5.251   5.233   2.625 -0.8178  0.9867 -0.2701
12199TIP3   OH258011   4.781   3.764  13.751 -0.7237  0.0779 -0.1907
12199TIP3    H158012   4.755   3.823  13.680 -0.4986  0.0054 -0.3353
12199TIP3    H258013   4.796   3.680  13.708  0.6676  0.3421 -0.2818
12200TIP3   OH258014   6.444   1.295  14.057  1.0824  0.4854 -0.1074
12200TIP3    H158015   6.393   1.244  13.993  0.6628  0.5566  0.1617
12200TIP3    H258016   6.386   1.367  14.081  1.9673  1.5403 -1.0530
12201TIP3   OH258017   0.326   0.411   0.043 -0.0163  0.4427  0.3809
12201TIP3    H158018   0.288   0.333   0.003  0.6409 -0.0422  0.6837
12201TIP3    H258019   0.303   0.404   0.136  1.3850 -0.2206  0.6941
12202TIP3   OH258020   1.801   4.339   2.987  0.2502  0.1922  0.1214
12202TIP3    H158021   1.879   4.287   3.005  0.0054 -0.1988  0.0877
12202TIP3    H258022   1.752   4.287   2.923 -0.6280 -0.1733  1.0579
12203TIP3   OH258023   3.072   3.844   3.383 -0.5630  0.4139 -0.0746
12203TIP3    H158024   3.053   3.783   3.312 -0.1018  1.1510 -0.8549
12203TIP3    H258025   3.153   3.888   3.357 -0.2553  0.5475  1.0178
12204TIP3   OH258026   6.686   5.938  13.150  0.0974 -0.7986  0.0008
12204TIP3    H158027   6.592   5.923  13.160  0.1581 -1.4646 -0.3451
12204TIP3    H258028   6.712   5.982  13.231 -0.4843 -0.7467  0.1661
12205TIP3   OH258029   6.281   6.520   4.030 -0.5193  0.5066  0.2525
12205TIP3    H158030   6.211   6.534   3.967  0.5167  0.1443 -1.0243
12205TIP3    H258031   6.362   6.530   3.979  0.3540 -1.8069  1.0421
12206TIP3   OH258032   3.093   0.893  15.013  0.1035 -0.0931 -0.6086
12206TIP3    H158033   3.115   0.967  14.956 -1.4224 -1.3924 -3.0900
12206TIP3    H258034   3.177   0.853  15.035  0.9483  2.1478  0.6132
12207TIP3   OH258035   2.888   2.712   4.840  0.4607  0.6706  0.3141
12207TIP3    H158036   2.942   2.757   4.906  0.2309  2.0712 -0.4093
12207TIP3    H258037   2.920   2.746   4.756 -1.4603  1.4945 -0.1427
12208TIP3   OH258038   2.740   1.639   1.900 -0.3819 -0.2633 -0.4889
12208TIP3    H158039   2.833   1.657   1.888 -0.1327 -1.3668 -0.2335
12208TIP3    H258040   2.715   1.588   1.823 -0.1718 -2.1494  0.6280
12209TIP3   OH258041   2.455   3.620  17.036  0.2983 -0.5484  0.6872
12209TIP3    H158042   2.511   3.667  16.973  1.6625 -2.5287  0.3124
12209TIP3    H258043   2.390   3.577  16.981  0.4761 -0.9384  0.7778
12210TIP3   OH258044   0.931   3.335   4.300 -0.2213  0.2912  0.0946
12210TIP3    H158045   1.023   3.350   4.320 -0.0262  1.0817 -1.2792
12210TIP3    H258046   0.891   3.315   4.385  1.7553 -3.2213  0.3733
12211TIP3   OH258047   0.819   1.124   4.791 -0.4682 -0.2117  0.0082
12211TIP3    H158048   0.838   1.066   4.718 -0.2854  0.6083 -0.6103
12211TIP3    H258049   0.820   1.212   4.753  0.9473  0.3533  1.2422
12212TIP3   OH258050   2.111   3.955  13.422 -0.0879 -0.3308 -0.2376
12212TIP3    H158051   2.109   3.912  13.508 -2.7828  0.0616 -0.0110
12212TIP3    H258052   2.095   3.884  13.359 -0.9146 -0.2348 -0.1526
12213TIP3   OH258053   4.293   1.756   1.219  0.1147  0.5545  0.1814
12213TIP3    H158054   4.264   1.843   1.246  2.4061  1.0963  1.1295
12213TIP3    H258055   4.326   1.769   1.130 -0.8074  0.3228 -0.2085
12214TIP3   OH258056   4.543   4.766  12.637  0.2743  0.0243  0.8283
12214TIP3    H158057   4.527   4.694  12.698  0.3471 -0.0246  0.7890
12214TIP3    H258058   4.582   4.835  12.692 -1.6376  0.8026  1.2909
12215TIP3   OH258059   1.262   5.141  13.603 -0.5747 -0.6800  0.5004
12215TIP3    H158060   1.258   5.111  13.512 -2.5481 -1.0343  0.6593
12215TIP3    H258061   1.206   5.219  13.605  2.1472  1.4155  0.7344
12216TIP3   OH258062   0.452   1.539   2.671 -0.7047 -0.8499 -0.4018
12216TIP3    H158063   0.548   1.537   2.665 -0.7558 -1.3929 -1.1393
12216TIP3    H258064   0.426   1.611   2.614 -0.6521  0.6445  1.3473
12217TIP3   OH258065   2.514   5.910   2.065  0.0702 -0.4987  0.5024
12217TIP3    H158066   2.466   5.840   2.108  0.8034 -0.4983  1.3567
12217TIP3    H258067   2.593   5.868   2.032 -0.4375 -0.4829 -0.8028
12218TIP3   OH258068   3.511   1.874   2.359 -0.6688  0.6570  0.2609
12218TIP3    H158069   3.415   1.876   2.355 -0.6316  1.8901 -0.7704
12218TIP3    H258070   3.538   1.855   2.269  0.0690 -1.5052  0.8676
12219TIP3   OH258071   0.974   2.111   0.538 -0.2124 -0.4977  0.1411
12219TIP3    H158072   0.909   2.146   0.598  0.9088 -0.7713  1.5690
12219TIP3    H258073   1.047   2.174   0.542  0.1674 -0.8897 -0.3943
12220TIP3   OH258074   6.240   0.941  16.777  0.2679 -0.0878 -0.1808
12220TIP3    H158075   6.190   0.862  16.795  0.9917 -0.6197 -0.4990
12220TIP3    H258076   6.279   0.927  16.691 -0.8157  1.2460 -0.9467
12221TIP3   OH258077   2.839   6.768  15.422 -0.1458  0.8059  0.3265
12221TIP3    H158078   2.919   6.758  15.371  0.5603  0.6153  1.4384
12221TIP3    H258079   2.840   6.860  15.448  0.0841  0.6361  0.9292
12222TIP3   OH258080   1.463   6.464  10.179 -0.0403 -0.0062 -0.0132
12222TIP3    H158081   1.368   6.468  10.171 -0.0818  1.3994  0.7842
12222TIP3    H258082   1.488   6.553  10.205  1.5315 -0.2596 -0.5911
12223TIP3   OH258083   2.637   0.005   4.141  0.5278  0.2627 -0.2999
12223TIP3    H158084   2.679  -0.075   4.111 -0.5406  0.0283 -1.2552
12223TIP3    H258085   2.634  -0.004   4.236  0.4589 -0.8222 -0.3884
12224TIP3   OH258086   1.867   5.166   5.334 -0.8076  0.1228  0.0079
12224TIP3    H158087   1.943   5.224   5.336 -1.0754  0.4950 -0.5760
12224TIP3    H258088   1.854   5.146   5.242  0.3753 -2.3289  0.2966
12225TIP3   OH258089   3.118   6.383   4.651  0.8472  0.3830 -0.1006
12225TIP3    H158090   3.085   6.425   4.730  1.6976  1.2561 -0.1957
12225TIP3    H258091   3.081   6.433   4.579 -1.3222 -1.4236 -0.3793
12226TIP3   OH258092   6.616   3.898  11.214 -0.1337  0.1370 -0.2633
12226TIP3    H158093   6.557   3.934  11.147 -1.6040 -0.4709  0.6639
12226TIP3    H258094   6.636   3.810  11.184 -0.7858 -0.1323  0.0796
12227TIP3   OH258095   0.859   4.693   4.036  0.5454 -0.8781 -0.4445
12227TIP3    H158096   0.947   4.655   4.035  0.7748 -0.3435 -0.5500
12227TIP3    H258097   0.829   4.685   3.946  0.9035 -0.1019 -0.6419
12228TIP3   OH258098   1.862   3.618   6.245 -0.7193 -0.0165  0.1602
12228TIP3    H158099   1.924   3.691   6.248 -0.0317 -0.5583 -0.5559
12228TIP3    H258100   1.806   3.631   6.321  1.6070 -0.6995  2.0947
12229TIP3   OH258101   4.765   0.214  14.998  0.4859 -0.1869  0.1557
12229TIP3    H158102   4.743   0.234  14.907 -0.9624 -1.3285  0.2243
12229TIP3    H258103   4.722   0.130  15.015  2.0970 -0.8161  1.4038
12230TIP3   OH258104   1.679   5.362   3.077 -0.8903  0.0492  0.2163
12230TIP3    H158105   1.703   5.414   3.153 -1.6779 -0.1766  0.6407
12230TIP3    H258106   1.661   5.426   3.008 -0.5231  0.2738  0.3281
12231TIP3   OH258107   1.571   0.938   4.417 -0.4149  1.1345 -0.3777
12231TIP3    H158108   1.665   0.939   4.432  0.1848  0.9657 -3.5496
12231TIP3    H258109   1.558   0.992   4.339 -2.4265 -1.7181 -2.2293
12232TIP3   OH258110   2.257   4.374   1.492  0.4348 -0.2353  0.8056
12232TIP3    H158111   2.200   4.431   1.544  1.8537  1.2170  0.8191
12232TIP3    H258112   2.345   4.393   1.523  1.1797 -0.5025 -1.0324
12233TIP3   OH258113   4.423   2.783  12.234 -0.5597 -0.2887 -0.7019
12233TIP3    H158114   4.484   2.779  12.160 -1.3594 -1.2187 -1.3229
12233TIP3    H258115   4.462   2.725  12.299 -0.7149 -0.7835 -1.0486
12234TIP3   OH258116   6.281   6.321   5.247 -0.6635  0.1386 -0.0470
12234TIP3    H158117   6.357   6.374   5.224 -1.2886  1.5462  1.0426
12234TIP3    H258118   6.211   6.354   5.191 -0.7495 -0.4594 -0.3077
12235TIP3   OH258119   3.089   5.931   5.190  0.0944  0.1735 -0.6062
12235TIP3    H158120   3.044   5.943   5.273 -1.6007 -1.4903 -1.2043
12235TIP3    H258121   3.168   5.881   5.212 -1.1861 -1.7513 -0.1245
12236TIP3   OH258122   2.469   0.398   4.740  0.1520  0.0091 -0.0421
12236TIP3    H158123   2.391   0.352   4.709  0.3477  0.5313 -1.3735
12236TIP3    H258124   2.521   0.330   4.783 -0.4611 -0.5967 -0.2386
12237TIP3   OH258125   6.631   0.582  11.797 -0.0746 -0.1552  0.0628
12237TIP3    H158126   6.674   0.548  11.718 -1.1854 -0.1997 -0.5327
12237TIP3    H258127   6.566   0.516  11.819 -4.1997  2.5707 -2.6673
12238TIP3   OH258128   6.240   1.289  14.939 -0.1548 -0.0775  0.8853
12238TIP3    H158129   6.211   1.374  14.973 -0.9632  0.0100  0.0287
12238TIP3    H258130   6.323   1.308  14.897 -0.7475  0.4931 -0.0778
12239TIP3   OH258131   4.159   0.305  11.145 -0.5346  0.5167 -0.2810
12239TIP3    H158132   4.242   0.312  11.097  0.5268 -0.4005  1.3426
12239TIP3    H258133   4.097   0.273  11.080  0.0644  2.3210 -1.8413
12240TIP3   OH258134   4.260   4.932  15.417 -0.5277  0.1489 -0.0256
12240TIP3    H158135   4.344   4.930  15.463 -1.0942 -2.1779  1.0542
12240TIP3    H258136   4.265   5.009  15.362  2.0392  0.4746  0.5346
12241TIP3   OH258137   5.044   5.491  15.334  0.2133  0.1885  0.2516
12241TIP3    H158138   5.028   5.585  15.332  3.2120  0.8422  1.6799
12241TIP3    H258139   5.111   5.479  15.401 -0.6304 -3.0991  0.6989
12242TIP3   OH258140   5.167   5.324  13.083  0.4389 -0.3318 -0.3648
12242TIP3    H158141   5.188   5.417  13.091  0.7205 -0.4811  0.9900
12242TIP3    H258142   5.241   5.280  13.124  1.0720 -1.2580 -2.3919
12243TIP3   OH258143   5.054   0.917  11.193 -0.0019  0.2465  0.3976
12243TIP3    H158144   5.077   0.848  11.131  0.9267 -0.1264  1.1391
12243TIP3    H258145   5.084   0.884  11.277 -0.0128  1.3406  0.8406
12244TIP3   OH258146   6.577   1.159   0.989  0.5153 -0.0199  0.4398
12244TIP3    H158147   6.632   1.203   0.924  0.7366 -0.2946  0.4414
12244TIP3    H258148   6.638   1.112   1.045  0.4439  1.3473  1.7146
12245TIP3   OH258149   0.427   6.426   1.240  0.3590 -0.8513  0.3162
12245TIP3    H158150   0.375   6.506   1.234  1.4117 -0.1528  0.1930
12245TIP3    H258151   0.398   6.385   1.322 -0.6611 -0.7036  0.0455
12246TIP3   OH258152   2.950   1.930   3.650  0.4098  0.0296 -0.4470
12246TIP3    H158153   2.977   1.883   3.571  0.1220  0.9722 -1.1408
12246TIP3    H258154   3.032   1.957   3.691  0.6220  1.6276 -1.7646
12247TIP3   OH258155   1.867   4.533   2.199  0.4284  0.3372  0.0827
12247TIP3    H158156   1.773   4.549   2.194  0.3321  0.1096  0.9240
12247TIP3    H258157   1.878   4.441   2.174  0.5741  0.6902 -1.2073
12248TIP3   OH258158   0.488   0.937   5.782 -0.1217  0.5575  0.1597
12248TIP3    H158159   0.440   0.897   5.709  1.2168 -1.3426  0.2429
12248TIP3    H258160   0.439   0.910   5.860  0.4261 -0.4751  0.1699
12249TIP3   OH258161   4.053   2.014   2.188 -0.5198  0.1892  0.1823
12249TIP3    H158162   4.104   1.963   2.252 -1.0287  0.9161  1.1868
12249TIP3    H258163   3.964   2.011   2.221 -1.3507 -1.6795 -1.9410
12250TIP3   OH258164   0.393   5.029   1.906  0.4033 -0.2084 -0.1051
12250TIP3    H158165   0.476   5.034   1.859  0.3994  0.8918 -0.0241
12250TIP3    H258166   0.403   5.090   1.979 -0.4504 -0.1157 -0.0571
12251TIP3   OH258167   0.480   6.218   2.892  0.0383  0.3857  0.1773
12251TIP3    H158168   0.419   6.263   2.951 -0.5981 -1.6805  1.2135
12251TIP3    H258169   0.469   6.262   2.808 -0.6274  2.0353  1.0777
12252TIP3   OH258170   0.956   4.495   1.613  0.3415 -0.1302 -0.1510
12252TIP3    H158171   1.016   4.481   1.686  2.7579  0.7021 -1.8399
12252TIP3    H258172   0.973   4.423   1.553 -1.7058 -0.8739  0.0661
12253TIP3   OH258173   1.401   1.607  17.138  0.1088  0.2861  0.5398
12253TIP3    H158174   1.446   1.543  17.083 -1.0239  0.1107 -0.2181
12253TIP3    H258175   1.455   1.613  17.217 -0.3046 -2.4099  1.1100
12254TIP3   OH258176   3.249   5.113   6.291 -0.5813  0.4913 -0.1985
12254TIP3    H158177   3.325   5.108   6.349 -0.3991  1.6150 -0.3109
12254TIP3    H258178   3.249   5.030   6.244  1.0911  0.8095 -0.8250
12255TIP3   OH258179   5.321   5.076   2.880 -0.4068  0.3079 -0.0837
12255TIP3    H158180   5.355   5.078   2.970  2.0167  1.6057 -0.9269
12255TIP3    H258181   5.376   5.138   2.833 -0.3896 -1.6259 -2.8532
12256TIP3   OH258182   2.260   0.105   1.044 -0.2126  0.3501  0.5334
12256TIP3    H158183   2.268   0.039   1.114 -1.8856  0.2545  0.6853
12256TIP3    H258184   2.212   0.177   1.086 -2.7829 -0.4009 -0.8933
12257TIP3   OH258185   3.222   1.971   2.123  0.5302 -0.3793 -0.3732
12257TIP3    H158186   3.301   1.917   2.120  1.0979  0.0496  3.0069
12257TIP3    H258187   3.182   1.950   2.207 -2.1200  0.6187 -1.2945
12258TIP3   OH258188   1.593   5.846   4.799 -0.0140  0.6455 -0.3949
12258TIP3    H158189   1.646   5.922   4.777  0.4256 -0.0491 -1.8639
12258TIP3    H258190   1.613   5.829   4.891  0.3003  1.9618 -0.2027
12259TIP3   OH258191   5.278   4.660  14.782 -0.3375 -0.0934 -0.3106
12259TIP3    H158192   5.199   4.608  14.775  1.1135 -2.9525  2.4090
12259TIP3    H258193   5.254   4.733  14.839 -0.8840 -1.4291  1.2507
12260TIP3   OH258194   0.989   5.223   3.052  0.3253 -0.2679  0.5970
12260TIP3    H158195   0.948   5.210   3.138 -0.6142  1.5202  0.4754
12260TIP3    H258196   1.076   5.184   3.061 -0.8087 -2.8096  1.3626
12261TIP3   OH258197   6.687   2.674   0.366  0.2920  0.3786 -0.3900
12261TIP3    H158198   6.682   2.707   0.456 -0.3864  1.3632 -0.7657
12261TIP3    H258199   6.778   2.648   0.355  0.8324  1.9587  0.0197
12262TIP3   OH258200   3.790   1.860  14.537 -0.0728  0.1093  0.4299
12262TIP3    H158201   3.695   1.862  14.537 -0.1169 -1.3676  0.0061
12262TIP3    H258202   3.815   1.885  14.626 -0.8030  1.2941  0.3292
12263TIP3   OH258203   0.636   6.406   5.033  0.4641 -0.5171 -0.1865
12263TIP3    H158204   0.622   6.326   5.084  4.0358 -2.4752 -1.8018
12263TIP3    H258205   0.600   6.386   4.947  0.2419  0.1215 -0.2441
12264TIP3   OH258206   5.514   3.438   4.873  0.4222 -0.1965  0.0424
12264TIP3    H158207   5.549   3.402   4.955 -1.4035 -1.2090  0.4472
12264TIP3    H258208   5.419   3.439   4.887  0.2172  4.9934  0.1127
12265TIP3   OH258209   0.133   0.514   5.013  0.4327  0.8309 -0.4874
12265TIP3    H158210   0.042   0.499   4.987  0.5238 -2.4353  0.6213
12265TIP3    H258211   0.185   0.490   4.937  0.4500 -1.8126  0.2798
12266TIP3   OH258212   2.233   1.482   5.895 -0.0664  0.0730  0.0414
12266TIP3    H158213   2.146   1.465   5.861 -0.4153 -0.6291  1.2324
12266TIP3    H258214   2.263   1.560   5.847 -1.4428  0.4869 -0.1802
12267TIP3   OH258215   6.048   0.618  12.055 -0.2112  0.2911 -0.0088
12267TIP3    H158216   6.032   0.706  12.019 -0.7584  0.2113  0.0345
12267TIP3    H258217   6.143   0.609  12.053 -0.1813  0.6570 -0.5619
12268TIP3   OH258218   2.093   1.259   4.262 -0.4494  0.2515 -0.6552
12268TIP3    H158219   2.146   1.180   4.250 -1.1497 -0.3916  0.3074
12268TIP3    H258220   2.045   1.269   4.180  0.5155  0.3618 -1.2211
12269TIP3   OH258221   4.911   6.165  12.151  0.1680 -0.5592  0.1804
12269TIP3    H158222   4.986   6.179  12.210 -1.0763  0.3874  1.6408
12269TIP3    H258223   4.946   6.180  12.064  2.0151 -1.6226  0.6882
12270TIP3   OH258224   4.855   6.241  16.811  0.3813 -0.4036 -0.1334
12270TIP3    H158225   4.761   6.241  16.829  0.4683  1.1271  0.4279
12270TIP3    H258226   4.881   6.332  16.821  1.7737 -0.6674 -1.1517
12271TIP3   OH258227   5.859   6.698  16.316  0.6633 -0.1941  0.3521
12271TIP3    H158228   5.943   6.688  16.271  0.5544 -1.4800  0.3746
12271TIP3    H258229   5.803   6.632  16.275 -0.7802  1.5622 -0.6166
12272TIP3   OH258230   5.745   3.304  12.933 -0.3926 -0.2511  0.2989
12272TIP3    H158231   5.676   3.302  12.999 -0.7044 -0.2698 -0.0263
12272TIP3    H258232   5.748   3.394  12.903  0.0396 -0.1468  0.6364
12273TIP3   OH258233   5.304   0.260  13.436  0.4673  0.1423 -0.0559
12273TIP3    H158234   5.390   0.235  13.402 -0.6578 -0.3933 -2.7664
12273TIP3    H258235   5.307   0.355  13.440  1.3679  0.1050  0.4426
12274TIP3   OH258236   3.815   6.655  15.123 -0.1647  0.0390 -0.2408
12274TIP3    H158237   3.890   6.658  15.182 -0.6501  0.2268  0.3825
12274TIP3    H258238   3.798   6.747  15.102  1.0071 -0.0921 -2.0043
12275TIP3   OH258239   1.962   2.798  10.723 -0.1169 -0.6352 -0.1397
12275TIP3    H158240   1.993   2.708  10.718 -1.7114 -1.2686  0.6590
12275TIP3    H258241   1.879   2.797  10.676  0.0992  0.5501 -0.5709
12276TIP3   OH258242   0.244   3.485   3.213  0.1026  0.6129  0.0598
12276TIP3    H158243   0.265   3.476   3.306  0.6255  2.1779  0.1156
12276TIP3    H258244   0.214   3.575   3.203  2.7458  1.4285 -1.7382
12277TIP3   OH258245   3.140   6.515  15.174 -0.4233  0.0226  0.3087
12277TIP3    H158246   3.051   6.523  15.209 -0.9849 -1.1164 -0.7654
12277TIP3    H258247   3.195   6.500  15.251 -1.1811  0.5758  0.9715
12278TIP3   OH258248   2.150   1.812  12.421  0.8317  0.2678  0.0504
12278TIP3    H158249   2.221   1.820  12.485  0.5526  1.1841  0.2575
12278TIP3    H258250   2.078   1.863  12.458  0.8651  1.3331 -1.2556
12279TIP3   OH258251   6.403   3.945   0.335 -0.7573 -0.2786 -0.6684
12279TIP3    H158252   6.454   3.867   0.315 -1.1224 -0.0847 -2.4793
12279TIP3    H258253   6.312   3.918   0.326 -0.8998  0.2208 -0.7772
12280TIP3   OH258254   1.591   1.525  11.794  0.4506 -0.1005  0.4634
12280TIP3    H158255   1.591   1.579  11.874  1.5539  0.5807  0.0391
12280TIP3    H258256   1.671   1.472  11.802  1.0095  0.5579 -0.5424
12281TIP3   OH258257   3.923   4.053  15.603 -0.3365  0.3834  0.0708
12281TIP3    H158258   3.901   4.012  15.520  1.8233  0.2816 -0.5057
12281TIP3    H258259   3.853   4.117  15.617 -2.4588 -1.7368 -0.2061
12282TIP3   OH258260   4.925   1.090   2.735  0.5134  0.5462  0.3304
12282TIP3    H158261   4.864   1.037   2.786 -0.2461 -0.3372 -1.4173
12282TIP3    H258262   4.870   1.159   2.696  0.6003 -0.1650 -1.1288
12283TIP3   OH258263   4.943   0.784  16.519  0.0798 -0.1043 -0.4990
12283TIP3    H158264   4.997   0.705  16.512 -0.1681 -0.3798  0.5693
12283TIP3    H258265   4.980   0.844  16.454  0.6480 -0.8782 -0.9082
12284TIP3   OH258266   3.308   2.073  11.635  0.5891 -0.2540 -0.1462
12284TIP3    H158267   3.374   2.039  11.696  0.7007 -0.5622 -0.4396
12284TIP3    H258268   3.279   2.155  11.675 -0.2700 -1.0769  0.9883
12285TIP3   OH258269   4.211   2.684   3.798 -0.1309 -0.5593  0.3198
12285TIP3    H158270   4.203   2.590   3.810  0.2317 -0.5489  0.6583
12285TIP3    H258271   4.250   2.694   3.711 -0.4351 -0.7093  0.1636
12286TIP3   OH258272   3.396   3.533  16.963  0.2474  0.1427 -0.6048
12286TIP3    H158273   3.435   3.471  16.901  2.6443  1.1464 -0.1890
12286TIP3    H258274   3.448   3.613  16.954  0.1095  0.6192  2.0230
12287TIP3   OH258275   5.079   6.509   5.502 -0.0866  0.0981 -0.5893
12287TIP3    H158276   5.006   6.530   5.444 -0.5012  1.2203  0.3197
12287TIP3    H258277   5.082   6.580   5.565  0.1117 -1.2683  1.0199
12288TIP3   OH258278   1.020   6.061   0.498  0.1758 -0.0343  0.1364
12288TIP3    H158279   0.960   6.005   0.546  0.4931 -1.3410 -0.9321
12288TIP3    H258280   1.098   6.067   0.554 -0.2193  0.1194  0.6734
12289TIP3   OH258281   5.159   3.273  15.218 -0.4563  0.0588  0.4328
12289TIP3    H158282   5.162   3.182  15.190 -0.5150  0.2916 -0.3717
12289TIP3    H258283   5.093   3.276  15.287 -3.6576  0.2144 -2.3978
12290TIP3   OH258284   1.336   1.780  16.491 -0.7837 -0.6351  0.4915
12290TIP3    H158285   1.392   1.831  16.549  0.7481 -2.7718  1.0088
12290TIP3    H258286   1.251   1.779  16.534 -0.5256  0.4102  1.0630
12291TIP3   OH258287   1.863   0.177  16.812 -0.4186 -0.2480 -0.0487
12291TIP3    H158288   1.867   0.267  16.779  1.1946  0.3303  1.5604
12291TIP3    H258289   1.836   0.126  16.736  1.1579  1.2745 -1.7627
12292TIP3   OH258290   2.975   6.129  16.255  0.2897  0.5860 -0.6005
12292TIP3    H158291   3.024   6.150  16.176  0.6441  2.3758  0.0680
12292TIP3    H258292   3.030   6.066  16.301  1.5707  1.8871 -0.2946
12293TIP3   OH258293   6.508   1.272   1.330 -0.3991 -0.5970 -0.1500
12293TIP3    H158294   6.566   1.319   1.270 -1.1349 -0.6688 -0.9497
12293TIP3    H258295   6.502   1.327   1.407  0.0818 -0.1969 -0.3953
12294TIP3   OH258296   5.551   2.750   5.817 -0.3042  0.3726 -0.3723
12294TIP3    H158297   5.636   2.744   5.775 -0.5478 -0.4669 -0.7858
12294TIP3    H258298   5.562   2.815   5.886  1.2703 -1.1784  0.9545
12295TIP3   OH258299   1.429   5.537  11.593  0.4084 -0.4177  0.0755
12295TIP3    H158300   1.464   5.495  11.515  2.2362 -0.8585  1.0681
12295TIP3    H258301   1.482   5.617  11.603 -1.5064  1.0072 -0.5126
12296TIP3   OH258302   3.100   3.432   4.377  0.0131  0.0138 -0.1971
12296TIP3    H158303   3.075   3.415   4.286  0.1502  0.5616 -0.3396
12296TIP3    H258304   3.195   3.420   4.377 -0.1571 -1.5118  0.2199
12297TIP3   OH258305   0.109   2.722  16.957  0.0409  0.3825 -0.0004
12297TIP3    H158306   0.158   2.789  16.909  0.5428  1.4362  1.8808
12297TIP3    H258307   0.018   2.749  16.952  0.3532  1.9831  1.7729
12298TIP3   OH258308   0.432   4.286  14.829  0.0192  0.3030 -0.1769
12298TIP3    H158309   0.415   4.271  14.922  1.0580  0.1813  0.0069
12298TIP3    H258310   0.434   4.199  14.790  0.5626  0.2885 -0.1255
12299TIP3   OH258311   4.934   0.467   2.542 -0.0821  0.2287 -0.7739
12299TIP3    H158312   5.015   0.497   2.500 -0.8803  0.1526 -2.4575
12299TIP3    H258313   4.907   0.391   2.491 -1.6713  0.7831 -0.8232
12300TIP3   OH258314   4.625   6.373   1.547  0.0242  0.1405  0.4202
12300TIP3    H158315   4.535   6.349   1.566  0.6074 -1.5062  1.3229
12300TIP3    H258316   4.625   6.469   1.542 -1.6820  0.1770  0.7610
12301TIP3   OH258317   0.120   5.799   4.636 -0.0056 -0.5712 -0.8201
12301TIP3    H158318   0.073   5.879   4.661 -0.4664 -1.2553  0.6394
12301TIP3    H258319   0.094   5.783   4.545  0.7634  1.3836 -1.4429
12302TIP3   OH258320   5.117   0.459  14.536 -0.7720 -0.3742  0.0029
12302TIP3    H158321   5.071   0.528  14.487 -1.4744 -0.7303  0.1514
12302TIP3    H258322   5.079   0.463  14.624  1.0873  0.8394  0.7992
12303TIP3   OH258323   0.026   5.316   3.270  0.3422 -0.1626 -0.2817
12303TIP3    H158324   0.086   5.243   3.285 -0.8042 -1.0462  0.1756
12303TIP3    H258325  -0.060   5.281   3.293 -0.0576  1.8190  1.5004
12304TIP3   OH258326   5.129   6.269  17.134 -0.7712  0.0260  0.0055
12304TIP3    H158327   5.054   6.328  17.134 -0.5213  0.3708 -1.3280
12304TIP3    H258328   5.133   6.235  17.045 -0.0702 -0.9342  0.3840
12305TIP3   OH258329   5.635   2.375  12.114  0.5634  0.3014 -0.1533
12305TIP3    H158330   5.598   2.408  12.196  0.2889 -0.5690  0.0807
12305TIP3    H258331   5.638   2.452  12.056  1.2620  1.0392  0.8375
12306TIP3   OH258332   5.759   6.438  12.251 -0.4117  0.3978 -0.2438
12306TIP3    H158333   5.720   6.517  12.214 -1.0242 -0.6241 -1.8808
12306TIP3    H258334   5.839   6.469  12.295 -1.8542  2.2271  1.2620
12307TIP3   OH258335   2.053   6.458  13.452 -0.2563  0.2315 -0.0381
12307TIP3    H158336   1.968   6.422  13.425 -0.0137  0.9000 -1.8539
12307TIP3    H258337   2.033   6.512  13.528 -1.6432  1.1145 -0.9778
12308TIP3   OH258338   0.158   2.681  16.281 -0.1598  0.3671  0.1800
12308TIP3    H158339   0.152   2.739  16.206 -0.0317 -1.2169 -1.1035
12308TIP3    H258340   0.118   2.730  16.353  0.7208  2.3515 -0.6219
12309TIP3   OH258341   6.439   2.974   0.901  0.1564  0.4909  1.0779
12309TIP3    H158342   6.443   3.028   0.980 -0.2171  0.2230  1.2819
12309TIP3    H258343   6.361   2.920   0.912 -0.5773  1.2850 -0.0239
12310TIP3   OH258344   6.498   6.698   4.481  0.4142  0.2554  0.4110
12310TIP3    H158345   6.583   6.675   4.517 -0.0273 -0.3422  1.0938
12310TIP3    H258346   6.435   6.646   4.531 -0.4372  1.3658  0.5528
12311TIP3   OH258347   5.958   1.856  16.732 -0.3905 -0.3302 -0.2834
12311TIP3    H158348   5.907   1.844  16.813 -1.1311 -0.4633 -0.7619
12311TIP3    H258349   6.045   1.822  16.754 -0.5158 -0.1650  0.5255
12312TIP3   OH258350   1.364   4.493   1.982 -0.4727  0.0320 -0.5869
12312TIP3    H158351   1.359   4.589   1.984 -0.1708  0.0353  0.4077
12312TIP3    H258352   1.322   4.466   2.063  3.1243 -0.5042  1.2740
12313TIP3   OH258353   0.988   6.425   0.973  0.3129 -0.2041  0.6187
12313TIP3    H158354   1.057   6.482   0.941  0.5532  0.1858  1.7875
12313TIP3    H258355   1.010   6.338   0.939  1.5418 -0.1402  1.2223
12314TIP3   OH258356   2.078   4.796   2.846  0.6548  0.4035  0.4950
12314TIP3    H158357   2.147   4.732   2.866  0.4709 -0.2905 -0.9293
12314TIP3    H258358   1.997   4.746   2.853  0.2087  1.3241  2.6072
12315TIP3   OH258359   4.818   4.335  10.849  0.1712 -0.7789  0.3853
12315TIP3    H158360   4.828   4.369  10.938  1.6079  0.5971 -0.2429
12315TIP3    H258361   4.738   4.376  10.816  0.0928 -0.6233  0.7633
12316TIP3   OH258362   0.101   0.615  15.046  0.2151 -0.3184  0.1667
12316TIP3    H158363   0.053   0.538  15.076  1.4363 -1.1027  0.1804
12316TIP3    H258364   0.037   0.686  15.049 -0.3661 -0.8400  2.3759
12317TIP3   OH258365   6.256   2.524   2.830 -0.0830 -0.2414 -0.1188
12317TIP3    H158366   6.257   2.583   2.754  0.4680  1.0191  0.8304
12317TIP3    H258367   6.200   2.570   2.894 -1.1103 -1.6103  0.0082
12318TIP3   OH258368   4.175   5.451   3.191  0.0558  0.1787 -0.1445
12318TIP3    H158369   4.081   5.461   3.175  0.1017  3.4859  0.9279
12318TIP3    H258370   4.180   5.413   3.279 -0.2269 -1.2406 -0.7193
12319TIP3   OH258371   3.643   1.493  11.510  0.1069  0.9333  0.9024
12319TIP3    H158372   3.736   1.513  11.519  0.5610 -0.2115 -0.7749
12319TIP3    H258373   3.619   1.530  11.426 -0.4015 -0.6348  0.3296
12320TIP3   OH258374   3.201   4.008   0.409 -0.3535  0.2779 -0.2636
12320TIP3    H158375   3.247   3.927   0.388 -0.7180  0.2222 -0.8887
12320TIP3    H258376   3.138   4.019   0.337 -3.8586 -1.5411  2.2594
12321TIP3   OH258377   3.069   1.186  14.445 -0.7297 -0.1467  0.3397
12321TIP3    H158378   3.135   1.131  14.487  0.1477  0.7722  0.2142
12321TIP3    H258379   2.998   1.191  14.509 -0.8535 -1.4598  0.3223
12322TIP3   OH258380   6.349   5.006  14.043 -0.1146 -0.3639 -0.6452
12322TIP3    H158381   6.395   4.966  13.969  0.1439  0.6371 -1.0293
12322TIP3    H258382   6.368   5.099  14.037  0.2250 -0.2913  0.8978
12323TIP3   OH258383   1.795   3.400  11.749 -0.2237 -0.2351  0.6833
12323TIP3    H158384   1.705   3.431  11.765 -0.4121 -0.1457 -0.4539
12323TIP3    H258385   1.842   3.419  11.831 -0.8206  1.2894  0.7006
12324TIP3   OH258386   3.059   3.013  15.941 -0.0788  0.2192 -0.2399
12324TIP3    H158387   3.037   3.013  15.848  0.7933 -2.5904 -0.5618
12324TIP3    H258388   3.019   3.092  15.976 -2.1178  0.3540 -2.6115
12325TIP3   OH258389   5.770   4.194   4.419 -0.0486  0.6115  0.0463
12325TIP3    H158390   5.692   4.206   4.365  0.1205 -1.1151 -0.6589
12325TIP3    H258391   5.827   4.138   4.367  1.3074  1.1366  0.9093
12326TIP3   OH258392   5.736   1.594   0.733  0.0977  0.2024 -0.2813
12326TIP3    H158393   5.659   1.647   0.753 -1.1825 -0.8490 -2.1435
12326TIP3    H258394   5.753   1.611   0.640  0.0521 -2.0958 -0.7536
12327TIP3   OH258395   3.584   2.518   4.115  0.5147  0.3355  0.0224
12327TIP3    H158396   3.612   2.598   4.159  0.9654  1.7431 -2.6296
12327TIP3    H258397   3.621   2.525   4.027 -1.4231 -1.6706 -1.0426
12328TIP3   OH258398   2.786   5.081  11.234 -0.5863 -0.4183 -0.3165
12328TIP3    H158399   2.788   5.036  11.319  2.9500  2.8419  1.6486
12328TIP3    H258400   2.848   5.033  11.180  1.0679  0.3191  0.8233
12329TIP3   OH258401   1.545   3.913  15.637  0.2385 -0.7820  0.1455
12329TIP3    H158402   1.634   3.939  15.661  0.2967 -1.9137  1.2943
12329TIP3    H258403   1.546   3.817  15.641 -1.7209 -0.8207  3.1698
12330TIP3   OH258404   0.863   2.317  13.873 -0.4105 -0.5958  0.4613
12330TIP3    H158405   0.878   2.245  13.811 -2.7426  0.2677 -1.2953
12330TIP3    H258406   0.817   2.383  13.821 -0.3312  1.2352  2.5765
12331TIP3   OH258407   2.369   2.695   0.861 -0.1417  0.9774  0.1468
12331TIP3    H158408   2.441   2.711   0.921 -0.6115  1.9839  0.4733
12331TIP3    H258409   2.331   2.782   0.846 -1.1344  0.5028 -0.1915
12332TIP3   OH258410   2.741   4.376  17.100 -0.1751  0.5719 -0.1023
12332TIP3    H158411   2.689   4.417  17.032 -0.6008 -0.4550 -0.4036
12332TIP3    H258412   2.680   4.319  17.147  0.2649  0.7447  0.7090
12333TIP3   OH258413   1.240   3.519   2.468  0.2547  0.2422  0.3714
12333TIP3    H158414   1.211   3.602   2.432 -0.9228  0.0039  0.6980
12333TIP3    H258415   1.329   3.507   2.435  0.2349  1.3640 -0.1157
12334TIP3   OH258416   3.625   6.089  13.762  0.0578 -1.1223  0.1160
12334TIP3    H158417   3.692   6.076  13.830 -1.9628  0.3287  2.5221
12334TIP3    H258418   3.661   6.158  13.706  0.4256  0.0263  1.6876
12335TIP3   OH258419   1.378   0.736   4.803 -0.2640  0.6567  0.0147
12335TIP3    H158420   1.320   0.812   4.813  0.7689  1.6736 -1.3817
12335TIP3    H258421   1.321   0.667   4.768 -0.9664  1.1300  0.2098
12336TIP3   OH258422   0.449   1.318  12.264 -0.0123  0.0027  0.2134
12336TIP3    H158423   0.387   1.278  12.325  1.1754 -1.4127  0.5504
12336TIP3    H258424   0.475   1.246  12.206  1.8300  0.3684  0.5347
12337TIP3   OH258425   5.437   4.792   3.991 -0.5978  0.1832  0.0923
12337TIP3    H158426   5.517   4.774   3.942 -0.1891  0.2869  0.7079
12337TIP3    H258427   5.464   4.790   4.083 -1.6550 -1.7241  0.4342
12338TIP3   OH258428   1.712   0.652   2.692  0.4032 -0.1416  0.2042
12338TIP3    H158429   1.699   0.621   2.602 -0.7856  0.0058  0.3088
12338TIP3    H258430   1.773   0.726   2.684 -0.7723  0.7723 -0.6630
12339TIP3   OH258431   6.735   4.703  15.448  0.1962 -0.1017  0.2243
12339TIP3    H158432   6.704   4.747  15.527  1.2256  1.0004  0.0330
12339TIP3    H258433   6.661   4.709  15.387  0.4339  1.7804  0.0533
12340TIP3   OH258434   4.664   4.118  16.262 -0.4520 -0.6208  0.2635
12340TIP3    H158435   4.736   4.132  16.324 -0.4555  0.4044  0.0483
12340TIP3    H258436   4.688   4.038  16.215  0.9027  0.1072 -0.3063
12341TIP3   OH258437   1.154   5.324   3.305 -0.1645  0.0769  0.3298
12341TIP3    H158438   1.097   5.395   3.277 -0.8091  0.2383  1.9039
12341TIP3    H258439   1.096   5.248   3.310 -0.5080  0.4110  2.7004
12342TIP3   OH258440   2.775   4.480   1.565 -0.4693  0.4683  0.1874
12342TIP3    H158441   2.870   4.484   1.574  0.1051 -1.4194 -3.2647
12342TIP3    H258442   2.756   4.526   1.484 -2.2927 -0.4156  0.0558
12343TIP3   OH258443   1.926   2.701  15.949 -0.2834  0.3015 -0.1651
12343TIP3    H158444   1.926   2.619  15.900  0.2267 -0.1226  0.5180
12343TIP3    H258445   1.839   2.704  15.990 -0.6037  0.5165 -0.8427
12344TIP3   OH258446   2.704   3.155  17.188  0.0120 -0.3404 -0.3149
12344TIP3    H158447   2.668   3.126  17.105 -0.1287 -0.2808 -0.2740
12344TIP3    H258448   2.649   3.114  17.254  0.2623 -0.5665 -0.2457
12345TIP3   OH258449   2.060   1.651   0.494 -0.2526  0.3456 -0.1462
12345TIP3    H158450   2.073   1.733   0.446  0.9345  1.1198  1.4185
12345TIP3    H258451   2.051   1.678   0.586 -1.1324 -1.1899  0.2489
12346TIP3   OH258452   3.099   1.541   4.554  0.5746  0.1019  0.7738
12346TIP3    H158453   3.149   1.619   4.532  0.2382  0.6740  2.0202
12346TIP3    H258454   3.124   1.477   4.487  0.6682  1.3347 -0.4025
12347TIP3   OH258455   4.973   3.460   5.600 -0.1628  0.0110 -0.2099
12347TIP3    H158456   5.044   3.479   5.661 -0.5244  0.2549  0.1398
12347TIP3    H258457   5.017   3.430   5.520  0.3009 -3.1085  1.0576
12348TIP3   OH258458   3.223   0.792  16.148 -0.2166  0.1254  0.0573
12348TIP3    H158459   3.314   0.821  16.135  0.2038 -1.9745 -2.7904
12348TIP3    H258460   3.231   0.710  16.196 -0.9411  1.4708  2.6356
12349TIP3   OH258461   5.347   1.480   1.010  0.3108 -0.1065  0.3230
12349TIP3    H158462   5.431   1.526   1.003  1.3796 -2.1948 -1.8546
12349TIP3    H258463   5.291   1.520   0.943  0.3787 -0.2870  0.1581
12350TIP3   OH258464   6.094   3.532   1.235 -0.1194 -0.0445  0.3307
12350TIP3    H158465   6.129   3.447   1.209  0.6028 -0.4828  2.5487
12350TIP3    H258466   6.146   3.559   1.310 -0.5747  2.2206 -0.0635
12351TIP3   OH258467   2.192   5.362  13.126 -0.1661 -0.4330 -0.6761
12351TIP3    H158468   2.114   5.415  13.140  0.1822  0.2240 -1.1900
12351TIP3    H258469   2.219   5.334  13.214 -0.3652  0.2108 -0.4099
12352TIP3   OH258470   4.583   4.727   3.331  0.9197 -0.1089  0.0377
12352TIP3    H158471   4.675   4.741   3.310  0.4966 -0.4089 -2.3115
12352TIP3    H258472   4.551   4.671   3.261 -1.4452  1.3506 -0.1618
12353TIP3   OH258473   5.828   1.385  12.149  0.0750  1.0366 -0.3507
12353TIP3    H158474   5.783   1.463  12.182 -2.1532 -0.4540  0.3353
12353TIP3    H258475   5.830   1.325  12.223  3.1394  0.8978 -0.4056
12354TIP3   OH258476   1.464   2.413   3.705 -0.1783  0.0369  0.3418
12354TIP3    H158477   1.444   2.325   3.737  0.2482 -0.3103 -0.3398
12354TIP3    H258478   1.418   2.471   3.766 -0.4752 -0.6530  0.7884
12355TIP3   OH258479   6.208   6.557  11.773 -0.4207  0.4904  0.4942
12355TIP3    H158480   6.188   6.632  11.829 -0.6061  0.1915  0.8284
12355TIP3    H258481   6.303   6.547  11.778 -0.3554  0.9232  0.1652
12356TIP3   OH258482   0.016   3.457  17.304 -0.5170 -0.9583 -0.0540
12356TIP3    H158483  -0.076   3.430  17.304 -1.5811  2.0918 -2.5518
12356TIP3    H258484   0.044   3.448  17.212  1.0107  0.1232  0.2585
12357TIP3   OH258485   4.310   3.567   1.657 -0.3299  0.0355 -0.0471
12357TIP3    H158486   4.315   3.663   1.656  0.5876  0.0180  0.8455
12357TIP3    H258487   4.393   3.539   1.695 -0.7344 -1.1053  0.0380
12358TIP3   OH258488   2.479   6.446   4.238  0.6937  0.2228 -0.7104
12358TIP3    H158489   2.443   6.501   4.307  1.3254 -0.8122  0.4730
12358TIP3    H258490   2.438   6.479   4.158 -1.4288  0.3250  0.3516
12359TIP3   OH258491   3.588   6.695  13.200 -0.0211 -0.2598  0.2827
12359TIP3    H158492   3.558   6.604  13.202 -1.0625  0.0832  1.3518
12359TIP3    H258493   3.598   6.715  13.107 -1.1757 -1.0449 -0.0263
12360TIP3   OH258494   6.770   5.313  15.459  0.0627 -0.2343  0.5642
12360TIP3    H158495   6.775   5.406  15.437  0.7518 -0.3864  0.0221
12360TIP3    H258496   6.861   5.284  15.460 -0.2134 -1.3109 -1.1429
12361TIP3   OH258497   1.903   4.607  13.907  0.7270 -0.2396 -0.5099
12361TIP3    H158498   1.854   4.657  13.841 -0.3434 -0.9728 -0.2908
12361TIP3    H258499   1.858   4.626  13.989  1.4934 -0.0587 -0.1218
12362TIP3   OH258500   2.635   4.596   4.586  0.2016  0.3069  0.2225
12362TIP3    H158501   2.664   4.662   4.648 -0.6824 -1.1646  2.3409
12362TIP3    H258502   2.614   4.645   4.507  2.1454  2.1717  0.7671
12363TIP3   OH258503   4.387   2.462   6.087 -0.5120  0.4191 -0.1476
12363TIP3    H158504   4.391   2.525   6.159 -0.6414  1.1773 -0.7948
12363TIP3    H258505   4.382   2.516   6.008  1.4847 -0.3571 -0.8732
12364TIP3   OH258506   4.004   4.692   0.332  0.3181 -0.2723  0.3486
12364TIP3    H158507   3.947   4.615   0.339 -0.4963  0.2675 -0.3578
12364TIP3    H258508   4.092   4.655   0.320 -0.0716 -1.0939 -0.0305
12365TIP3   OH258509   5.995   0.328   2.385  0.3267 -0.5972  0.5871
12365TIP3    H158510   6.047   0.281   2.451  2.2607  0.1533 -0.3262
12365TIP3    H258511   5.998   0.271   2.308  1.8838  0.5037 -0.2235
12366TIP3   OH258512   5.742   4.028  15.027  0.2154 -0.3791 -0.2769
12366TIP3    H158513   5.732   4.109  14.978  0.6283 -0.8724 -1.2154
12366TIP3    H258514   5.690   4.040  15.106 -0.0407  0.6414 -0.5945
12367TIP3   OH258515   3.358   1.020   5.656 -0.8069 -0.2452 -0.1499
12367TIP3    H158516   3.410   1.039   5.734 -1.1361  0.2654 -0.0505
12367TIP3    H258517   3.351   1.104   5.611  0.3306 -0.7485 -1.3242
12368TIP3   OH258518   0.461   0.995  14.609  0.0553 -0.2558 -0.2069
12368TIP3    H158519   0.419   0.914  14.579  0.0090 -1.0793  1.8875
12368TIP3    H258520   0.470   0.983  14.704  0.2701  2.1074  0.1231
12369TIP3   OH258521   5.887   1.698  11.854 -0.0420 -0.1584  0.0196
12369TIP3    H158522   5.852   1.715  11.767 -0.7516 -0.1604  0.2945
12369TIP3    H258523   5.868   1.605  11.870  0.3589 -0.2347  0.0515
12370TIP3   OH258524   6.066   5.325  14.630 -0.2554  0.3114  0.3155
12370TIP3    H158525   6.126   5.377  14.577  0.0005  0.8513  1.1098
12370TIP3    H258526   6.112   5.315  14.714 -0.5155 -0.7869  0.3361
12371TIP3   OH258527   6.582   6.421  11.299 -0.2352 -0.4118  0.2262
12371TIP3    H158528   6.488   6.428  11.287 -0.1383  0.0995 -0.2600
12371TIP3    H258529   6.609   6.353  11.238 -0.0204  0.8276 -1.1100
12372TIP3   OH258530   6.032   0.184   4.417 -0.0868 -0.1779  0.2676
12372TIP3    H158531   6.075   0.193   4.502  0.3697 -0.2387  0.0435
12372TIP3    H258532   5.952   0.136   4.437 -1.4473  2.2490  1.1291
12373TIP3   OH258533   3.431   2.770  15.866 -0.2951  0.2286 -0.2642
12373TIP3    H158534   3.353   2.801  15.913 -1.2934 -1.9245 -0.3804
12373TIP3    H258535   3.397   2.737  15.783  0.8028 -0.4458 -0.4554
12374TIP3   OH258536   1.306   4.383  15.459  0.3612  0.0870 -0.0817
12374TIP3    H158537   1.225   4.432  15.442 -0.1610 -1.1470 -1.3147
12374TIP3    H258538   1.370   4.419  15.397 -0.5436 -1.9579 -2.3614
12375TIP3   OH258539   4.434   6.488   6.649  0.1402 -0.1654 -0.0679
12375TIP3    H158540   4.499   6.431   6.690 -0.2654  0.0815  0.9347
12375TIP3    H258541   4.371   6.427   6.611 -0.1965 -0.4049  0.8450
12376TIP3   OH258542   4.075   6.603   2.980 -0.5694  0.3752 -0.1960
12376TIP3    H158543   4.147   6.604   3.043 -0.9657  0.2336  0.2610
12376TIP3    H258544   4.073   6.693   2.946 -1.2020  0.8342  0.9735
12377TIP3   OH258545   2.585   1.410   2.971 -0.3965 -0.4213 -0.5114
12377TIP3    H158546   2.531   1.472   2.921  0.6258  0.6529 -0.3365
12377TIP3    H258547   2.674   1.444   2.962  0.0062 -1.0668  0.7955
12378TIP3   OH258548   0.448   0.280  11.969  0.3702 -0.0032  0.7304
12378TIP3    H158549   0.473   0.367  12.001  1.9997 -0.1647  0.0387
12378TIP3    H258550   0.369   0.295  11.917  1.4757  1.3735 -0.6592
12379TIP3   OH258551   4.044   4.534   4.958  0.4579 -0.0388  0.1473
12379TIP3    H158552   3.974   4.470   4.970  1.3185 -1.0202  0.0344
12379TIP3    H258553   4.095   4.528   5.039 -0.4385  1.7913  0.9119
12380TIP3   OH258554   0.339   4.463  11.755 -0.0243  0.3666  0.3850
12380TIP3    H158555   0.281   4.387  11.764 -1.9268  1.7750  0.6363
12380TIP3    H258556   0.354   4.471  11.661  0.2170 -0.3224  0.3587
12381TIP3   OH258557   4.601   6.732   5.027  0.8130 -0.1099  0.1706
12381TIP3    H158558   4.551   6.810   5.051 -0.1934 -0.3904 -0.9171
12381TIP3    H258559   4.647   6.758   4.947  1.9171 -0.0684  0.7980
12382TIP3   OH258560   5.953   2.383   3.878  0.1828 -0.2205 -0.4787
12382TIP3    H158561   6.015   2.353   3.811  0.7473  0.6826 -0.3765
12382TIP3    H258562   5.967   2.323   3.951  2.0459  0.8559  0.1225
12383TIP3   OH258563   4.803   4.968   4.726  0.7803  1.0185  0.1332
12383TIP3    H158564   4.781   4.899   4.789 -0.5490  1.6925  0.4556
12383TIP3    H258565   4.898   4.972   4.727  0.9510 -1.3350 -0.4763
12384TIP3   OH258566   1.637   2.148  10.570  0.0397 -0.2841  0.4454
12384TIP3    H158567   1.553   2.170  10.609 -0.0751  1.0712 -0.4985
12384TIP3    H258568   1.631   2.054  10.552 -1.4185 -0.1508  0.1009
12385TIP3   OH258569   5.000   1.352  11.793  0.0204 -0.4317 -0.6178
12385TIP3    H158570   4.975   1.288  11.726 -0.6532  2.1326 -3.0251
12385TIP3    H258571   4.917   1.373  11.838 -0.2846  0.4761 -1.5412
12386TIP3   OH258572   0.525   3.095  15.730  0.3036  0.2352 -0.1964
12386TIP3    H158573   0.466   3.124  15.799 -0.6000 -1.4366 -0.2194
12386TIP3    H258574   0.517   3.162  15.662 -1.7081 -0.0005 -0.2615
12387TIP3   OH258575   2.258   3.187  16.172  0.1242  0.5012  0.0664
12387TIP3    H158576   2.345   3.177  16.133 -0.4047  1.0716 -1.3131
12387TIP3    H258577   2.203   3.125  16.124 -0.4973  1.0739  0.0212
12388TIP3   OH258578   4.673   2.778   6.175  0.3483 -0.2448 -0.2747
12388TIP3    H158579   4.722   2.819   6.247  0.4807 -0.3588 -0.2982
12388TIP3    H258580   4.584   2.771   6.208 -0.1468  1.9208 -1.0304
12389TIP3   OH258581   3.976   6.372  16.117 -0.4364 -0.1218 -0.0580
12389TIP3    H158582   3.980   6.285  16.075  0.3593  0.3214 -0.9322
12389TIP3    H258583   3.883   6.392  16.121 -0.5914 -0.7282 -0.4532
12390TIP3   OH258584   2.140   0.967   1.726 -0.4029  0.1101  0.3040
12390TIP3    H158585   2.173   1.054   1.704 -1.9117  0.8639  0.8871
12390TIP3    H258586   2.201   0.907   1.684  0.2060  1.4444 -0.7904
12391TIP3   OH258587   3.361   0.982   1.419 -0.6359  0.2770 -0.0030
12391TIP3    H158588   3.299   0.996   1.490  0.1533 -2.9156  1.5150
12391TIP3    H258589   3.309   0.945   1.348 -1.0357  1.0616 -0.1188
12392TIP3   OH258590   1.232   4.343  12.161 -0.6134 -0.0828 -0.1408
12392TIP3    H158591   1.217   4.403  12.088  3.2380 -1.3929 -2.3163
12392TIP3    H258592   1.215   4.256  12.124  2.3931 -0.8566 -0.0024
12393TIP3   OH258593   0.090   1.342  17.198  0.3700  0.6959 -0.2664
12393TIP3    H158594   0.184   1.328  17.200 -0.0064 -2.6692  0.1388
12393TIP3    H258595   0.060   1.314  17.285 -1.0826  0.7316 -0.7242
12394TIP3   OH258596   1.700   2.144   3.213  0.9025 -0.2419 -0.6019
12394TIP3    H158597   1.632   2.195   3.169  1.4744  1.0782 -0.0427
12394TIP3    H258598   1.735   2.086   3.146 -0.8297 -1.0299 -0.8673
12395TIP3   OH258599   5.171   0.909  17.207  0.1924 -0.1021  0.3024
12395TIP3    H158600   5.108   0.846  17.170  1.2264 -1.5957  0.9820
12395TIP3    H258601   5.117   0.975  17.250 -0.9399 -0.2858 -0.7828
12396TIP3   OH258602   1.153   6.027  16.042  0.2055  0.1117 -0.0712
12396TIP3    H158603   1.177   6.118  16.055  3.7080 -0.6859  0.0523
12396TIP3    H258604   1.184   6.005  15.955 -1.4323 -0.7833 -0.4789
12397TIP3   OH258605   2.297   4.774  16.181 -0.2023 -0.2755  0.0675
12397TIP3    H158606   2.353   4.766  16.103 -2.4081 -1.7677 -1.4755
12397TIP3    H258607   2.238   4.847  16.161 -0.9502 -0.8305  0.2277
12398TIP3   OH258608   6.357   2.671  15.931 -0.1271  0.0278 -0.0900
12398TIP3    H158609   6.411   2.599  15.964 -0.2028  0.4279  0.9226
12398TIP3    H258610   6.412   2.749  15.940 -0.9916  0.4968  1.3085
12399TIP3   OH258611   4.186   1.081   5.665  0.3197 -1.0082  0.0460
12399TIP3    H158612   4.228   1.096   5.580 -0.7316 -1.2873 -0.5517
12399TIP3    H258613   4.097   1.055   5.643 -0.0834 -0.7401  1.2535
12400TIP3   OH258614   4.821   2.824   6.410 -0.1922  0.0464 -0.5481
12400TIP3    H158615   4.878   2.901   6.415 -0.4422  0.1655  0.6245
12400TIP3    H258616   4.880   2.749   6.422 -0.2471  0.1659  0.5660
12401TIP3   OH258617   1.220   6.045  12.585  0.1964  0.0714  0.0076
12401TIP3    H158618   1.236   5.956  12.614  0.7599  0.5474  1.2052
12401TIP3    H258619   1.287   6.062  12.519  1.1158  0.1309  0.9272
12402TIP3   OH258620   6.610   4.090  14.771  0.1817 -0.0587  0.0687
12402TIP3    H158621   6.537   4.029  14.778 -1.2716  1.6620  0.6154
12402TIP3    H258622   6.621   4.105  14.676 -0.4305 -0.0451 -0.0012
12403TIP3   OH258623   3.573   1.676  15.538  0.1545  0.3186  0.1177
12403TIP3    H158624   3.540   1.690  15.449  0.4522  0.0473 -0.0341
12403TIP3    H258625   3.519   1.734  15.592 -0.6476 -0.2007 -0.1106
12404TIP3   OH258626   2.082   5.667  15.858 -0.0813 -0.1768  0.4968
12404TIP3    H158627   2.141   5.740  15.876 -1.9024  1.6944 -0.6371
12404TIP3    H258628   2.003   5.687  15.909 -0.0562 -2.2897  1.4923
12405TIP3   OH258629   1.830   0.831   5.230 -0.6203 -0.1150 -0.1533
12405TIP3    H158630   1.818   0.743   5.266 -0.3782 -0.3177 -0.5458
12405TIP3    H258631   1.813   0.820   5.136 -0.6387  0.2696 -0.1963
12406TIP3   OH258632   1.612   3.821   6.714  0.2736  0.0764  0.4691
12406TIP3    H158633   1.706   3.818   6.699 -0.0839  0.4849 -2.4038
12406TIP3    H258634   1.590   3.732   6.743  1.1657 -1.1121 -2.1474
12407TIP3   OH258635   2.837   0.787   4.193 -0.1465 -0.0065 -0.1315
12407TIP3    H158636   2.760   0.773   4.137 -1.9362  1.5177  1.7855
12407TIP3    H258637   2.822   0.730   4.269  0.5558  0.4059  0.3222
12408TIP3   OH258638   3.172   6.403  13.648  0.4146 -0.2101  0.0634
12408TIP3    H158639   3.101   6.450  13.604  0.0469 -0.7209  0.0985
12408TIP3    H258640   3.197   6.335  13.586  1.6259  0.6336 -0.4110
12409TIP3   OH258641   3.962   6.092   4.576  0.2875 -0.9563 -0.0495
12409TIP3    H158642   4.009   6.045   4.644 -2.3514 -4.3163 -0.2553
12409TIP3    H258643   4.014   6.079   4.497  0.0934 -2.8513  0.0952
12410TIP3   OH258644   4.436   2.009   1.349 -0.4244  0.1746 -0.3944
12410TIP3    H158645   4.518   1.959   1.354 -1.9349 -2.4492 -0.0336
12410TIP3    H258646   4.440   2.051   1.263  1.4546  0.4772 -0.2144
12411TIP3   OH258647   1.950   5.605  12.068  0.0492 -0.5144 -0.6234
12411TIP3    H158648   1.980   5.687  12.030  1.8589 -0.7479  0.1929
12411TIP3    H258649   1.999   5.537  12.021  0.0590 -0.9896  0.0526
12412TIP3   OH258650   2.666   4.578  16.542  0.3235  0.1492 -0.0980
12412TIP3    H158651   2.742   4.576  16.601  0.4174  0.2767 -0.2143
12412TIP3    H258652   2.704   4.568  16.455  0.2166  0.3397 -0.1654
12413TIP3   OH258653   3.399   1.555  11.878  0.0435 -0.0803  0.2446
12413TIP3    H158654   3.493   1.574  11.883  0.2651 -1.1447  0.4867
12413TIP3    H258655   3.387   1.517  11.791  0.3381 -2.2610  1.0755
12414TIP3   OH258656   4.706   4.604  16.998  0.4727  0.5782 -0.0912
12414TIP3    H158657   4.672   4.553  16.925  1.9769  0.5723 -0.8249
12414TIP3    H258658   4.783   4.556  17.028 -0.4406  0.2567  1.9358
12415TIP3   OH258659   0.609   1.619  13.767 -0.0480 -0.1644  0.4825
12415TIP3    H158660   0.534   1.565  13.743  0.8499 -0.7193 -1.3132
12415TIP3    H258661   0.679   1.589  13.709  1.1287  1.3807  1.0291
12416TIP3   OH258662   3.215   2.816  14.084 -0.3291  0.1827  0.1808
12416TIP3    H158663   3.309   2.815  14.105  0.1584  0.9852 -1.7013
12416TIP3    H258664   3.192   2.908  14.082 -0.4982  0.1360 -1.8460
12417TIP3   OH258665   0.763   0.942  15.001 -0.6721  0.4868  0.1862
12417TIP3    H158666   0.844   0.956  15.049 -0.2026  0.7994 -0.6645
12417TIP3    H258667   0.725   1.029  14.991 -0.6889  0.4445 -0.1321
12418TIP3   OH258668   4.536   1.209  16.716  0.0239 -0.5516 -0.6009
12418TIP3    H158669   4.526   1.299  16.745 -1.3659  0.1004 -2.8924
12418TIP3    H258670   4.625   1.206  16.679  0.2124 -0.2535 -0.1848
12419TIP3   OH258671   4.314   2.585  16.815  0.1873  0.3045 -0.0134
12419TIP3    H158672   4.303   2.514  16.751 -0.4867  0.8615 -0.5274
12419TIP3    H258673   4.325   2.664  16.762 -1.0993  0.8895  0.5271
12420TIP3   OH258674   3.012   1.935   4.825  0.0530 -0.0818  0.3835
12420TIP3    H158675   2.935   1.879   4.816 -0.4515  0.3646  1.7643
12420TIP3    H258676   3.074   1.883   4.876  0.0922  0.1314  0.5524
12421TIP3   OH258677   2.998   1.144   5.481 -0.1694  0.1096  0.1967
12421TIP3    H158678   2.906   1.154   5.458  0.0843  1.1780 -0.3923
12421TIP3    H258679   3.041   1.222   5.447  1.1532 -0.8836 -0.5157
12422TIP3   OH258680   0.177   1.738  11.583 -0.0621  0.4332  0.2347
12422TIP3    H158681   0.196   1.770  11.671  1.9787 -0.1242  0.0653
12422TIP3    H258682   0.198   1.645  11.586  0.6649  0.5281 -0.9773
12423TIP3   OH258683   0.497   3.311   4.658 -0.6276 -0.1517  0.0306
12423TIP3    H158684   0.546   3.321   4.577  0.1105  0.7780  0.5649
12423TIP3    H258685   0.429   3.247   4.638 -1.0859  0.8076 -1.6003
12424TIP3   OH258686   2.070   3.514   1.592  0.3619  0.2008  0.3030
12424TIP3    H158687   2.073   3.438   1.534  1.1481  0.3341  0.1516
12424TIP3    H258688   2.119   3.486   1.670  3.3732  1.5025 -0.9722
12425TIP3   OH258689   1.954   3.286   0.452  0.5538 -0.1134 -0.3802
12425TIP3    H158690   1.946   3.195   0.482  1.0782 -0.2813 -0.7263
12425TIP3    H258691   2.024   3.323   0.506  1.5922 -0.4533 -1.4389
12426TIP3   OH258692   1.807   2.562  16.198 -0.0310  0.5076  0.2823
12426TIP3    H158693   1.898   2.538  16.185 -0.4254 -1.1133  0.2883
12426TIP3    H258694   1.757   2.489  16.162 -1.2686 -0.6989  3.9680
12427TIP3   OH258695   3.019   0.091   3.881 -0.7724 -0.0975  0.2348
12427TIP3    H158696   2.995   0.061   3.793 -0.1294 -0.3476  0.1344
12427TIP3    H258697   3.059   0.015   3.922  0.2093  0.4066  0.2409
12428TIP3   OH258698   1.007   2.331   4.278 -0.5493 -0.4346  0.2694
12428TIP3    H158699   0.930   2.307   4.329 -0.3885 -0.3606  0.5500
12428TIP3    H258700   0.978   2.329   4.187 -0.7653 -0.8424  0.3465
12429TIP3   OH258701   2.556   4.923  10.310  0.1897 -0.5718  0.5900
12429TIP3    H158702   2.492   4.854  10.328  0.5157 -0.9691  0.2484
12429TIP3    H258703   2.504   5.004  10.311 -0.3707 -0.9135  0.0712
12430TIP3   OH258704   1.262   1.723  14.161  0.0108  0.2811  0.0655
12430TIP3    H158705   1.272   1.818  14.168 -0.6964  0.4346 -0.7968
12430TIP3    H258706   1.186   1.703  14.216 -0.5720  0.3858 -0.6890
12431TIP3   OH258707   2.535   6.124   4.237 -0.9062 -0.7343  0.5739
12431TIP3    H158708   2.617   6.100   4.193  0.2849 -0.7377  2.6545
12431TIP3    H258709   2.519   6.214   4.211 -1.3372 -1.3188 -1.3733
12432TIP3   OH258710   5.496   1.849   6.265  0.0096 -0.7899 -0.2702
12432TIP3    H158711   5.484   1.866   6.358  1.4554  0.5047 -0.2778
12432TIP3    H258712   5.409   1.825   6.233 -0.7179 -0.1869  1.1944
12433TIP3   OH258713   3.688   6.649   0.223  0.4081  0.4980  0.5654
12433TIP3    H158714   3.610   6.700   0.202  0.2430  0.8387  1.9257
12433TIP3    H258715   3.761   6.704   0.197  0.2117  1.0572  1.1592
12434TIP3   OH258716   6.629   3.712   1.549  0.1680 -0.7141 -0.5096
12434TIP3    H158717   6.629   3.740   1.457  0.8394  0.9270 -0.0412
12434TIP3    H258718   6.614   3.793   1.598  1.2341 -1.3451  0.8936
12435TIP3   OH258719   1.539   1.829  12.537 -0.1444 -0.1407 -0.4135
12435TIP3    H158720   1.604   1.819  12.607 -1.8244 -0.3654  1.1849
12435TIP3    H258721   1.488   1.905  12.562  0.8506  1.4418 -2.8417
12436TIP3   OH258722   0.124   0.122   2.383  0.0715  0.0916 -0.9810
12436TIP3    H158723   0.078   0.132   2.300  0.0127 -1.1062 -1.1026
12436TIP3    H258724   0.154   0.031   2.383  0.4487  0.2055  0.1167
12437TIP3   OH258725   2.389   4.580  10.369 -0.7216  0.0962  0.1832
12437TIP3    H158726   2.313   4.633  10.395 -0.8155  1.0517 -1.7825
12437TIP3    H258727   2.365   4.490  10.392 -1.8132  0.5649  0.9623
12438TIP3   OH258728   2.409   2.589  13.223  0.7242  0.5705  0.0655
12438TIP3    H158729   2.398   2.646  13.300  0.3571  0.6443 -0.0410
12438TIP3    H258730   2.500   2.604  13.196  0.5528  1.3312 -0.1305
12439TIP3   OH258731   1.196   1.380   0.595 -0.2652  0.0803 -0.4963
12439TIP3    H158732   1.220   1.454   0.539 -0.5679  1.2499  0.8397
12439TIP3    H258733   1.115   1.346   0.557 -0.3703  0.7357 -0.8791
12440TIP3   OH258734   4.430   5.435   5.580 -0.1131  0.2202 -0.1339
12440TIP3    H158735   4.470   5.447   5.666 -0.6543 -1.5846  0.4020
12440TIP3    H258736   4.364   5.367   5.593 -3.1946  2.7744 -1.0492
12441TIP3   OH258737   1.704   0.792   3.363  0.0073  0.2096  0.3439
12441TIP3    H158738   1.673   0.814   3.275  0.7116  1.4003  0.3693
12441TIP3    H258739   1.783   0.740   3.348  0.8323  1.4485  0.2364
12442TIP3   OH258740   0.097   4.969   4.367 -0.3175 -0.6611  0.2418
12442TIP3    H158741   0.058   4.953   4.453  0.4321 -0.6443  0.5928
12442TIP3    H258742   0.086   4.887   4.320  0.8202 -1.2596  0.9744
12443TIP3   OH258743   1.430   2.621   2.158  0.3192 -0.3536  0.1230
12443TIP3    H158744   1.508   2.674   2.139  0.3105 -0.7648 -1.1702
12443TIP3    H258745   1.357   2.673   2.122 -0.3531  1.1253  3.3121
12444TIP3   OH258746   6.091   4.187   5.598  0.2681 -0.8882  0.8439
12444TIP3    H158747   6.163   4.162   5.655 -0.5466  0.5147  2.5935
12444TIP3    H258748   6.059   4.269   5.635 -0.2465  0.1723 -1.7325
12445TIP3   OH258749   4.241   0.549  16.358  0.2105  0.0092 -0.2289
12445TIP3    H158750   4.156   0.509  16.338  0.2594 -0.4129  0.3885
12445TIP3    H258751   4.226   0.643  16.349  0.0916 -0.1196 -1.6894
12446TIP3   OH258752   6.583   0.802  15.000  0.5213  0.1966  0.4589
12446TIP3    H158753   6.658   0.823  15.055  0.9362 -0.2989  0.0912
12446TIP3    H258754   6.507   0.829  15.051  0.9373  0.4629  0.9425
12447TIP3   OH258755   5.714   1.606   5.680 -0.4558 -0.0088 -0.0115
12447TIP3    H158756   5.741   1.688   5.640  0.8014 -0.2837  0.2452
12447TIP3    H258757   5.745   1.612   5.771  2.3737 -1.9725 -0.7308
12448TIP3   OH258758   4.237   2.201  16.938  0.4081 -0.5137 -0.2122
12448TIP3    H158759   4.266   2.253  17.013  1.0900  0.5362 -1.1808
12448TIP3    H258760   4.149   2.233  16.920  0.0507 -1.1114  0.4272
12449TIP3   OH258761   4.944   4.947  14.208  0.4146  0.1727 -0.2896
12449TIP3    H158762   4.953   4.886  14.135  1.7642 -0.1249  0.1008
12449TIP3    H258763   4.997   4.909  14.278  0.9872  1.5799  0.0887
12450TIP3   OH258764   5.532   2.994  15.743 -0.2026 -0.0869 -0.4064
12450TIP3    H158765   5.608   2.935  15.750 -0.9524 -1.0778 -0.3396
12450TIP3    H258766   5.569   3.078  15.715  0.8798 -0.6297 -0.6652
12451TIP3   OH258767   0.612   0.523  12.169 -0.2312  0.1293 -0.2093
12451TIP3    H158768   0.650   0.468  12.238 -0.4556  0.6110  0.3125
12451TIP3    H258769   0.663   0.504  12.091  0.4770  0.0892  0.2605
12452TIP3   OH258770   4.234   2.079  13.964 -0.4593  0.4934  0.0882
12452TIP3    H158771   4.164   2.014  13.962  0.5754 -0.6326 -0.9148
12452TIP3    H258772   4.227   2.125  13.881 -0.6948  1.1705  0.4677
12453TIP3   OH258773   2.102   5.436  13.585 -0.0346 -0.3919 -0.5093
12453TIP3    H158774   2.028   5.424  13.525 -0.2668 -0.1914 -0.2687
12453TIP3    H258775   2.066   5.416  13.671 -0.4819  2.0457 -0.0591
12454TIP3   OH258776   6.431   4.660   3.484 -0.1687 -0.2200  0.4610
12454TIP3    H158777   6.478   4.713   3.420 -0.9239 -0.7670 -0.5901
12454TIP3    H258778   6.497   4.603   3.522  0.0852 -0.7947 -0.8009
12455TIP3   OH258779   4.776   5.088  15.057 -0.6180  0.7146  0.0706
12455TIP3    H158780   4.801   5.166  15.107 -0.5669  0.5487  0.3011
12455TIP3    H258781   4.847   5.026  15.073  0.6440  1.4863 -2.0986
12456TIP3   OH258782   1.179   6.412  12.562 -0.3494  0.0486  0.3974
12456TIP3    H158783   1.158   6.446  12.475 -0.3968  0.0486  0.4089
12456TIP3    H258784   1.244   6.474  12.597  0.7224 -0.7115 -0.1930
12457TIP3   OH258785   1.839   4.153   5.847 -0.1573 -0.8699  0.2606
12457TIP3    H158786   1.846   4.060   5.826  2.7032 -0.5353 -0.6510
12457TIP3    H258787   1.893   4.164   5.925 -1.6415 -0.1584  1.2411
12458TIP3   OH258788   3.518   0.647   2.023 -0.8715  1.2680 -0.3223
12458TIP3    H158789   3.551   0.707   1.955 -0.3827  0.5680 -0.7156
12458TIP3    H258790   3.523   0.698   2.104  0.8258  1.3213 -0.4300
12459TIP3   OH258791   4.896   4.418  11.333  0.4161 -0.3027  0.1147
12459TIP3    H158792   4.877   4.407  11.240 -2.5487 -2.6272  0.8473
12459TIP3    H258793   4.944   4.501  11.338 -0.4496  0.5629 -3.3081
12460TIP3   OH258794   0.924   0.662  12.312  0.0641 -0.4205  0.0789
12460TIP3    H158795   0.949   0.601  12.244  1.3362  0.2703 -0.0921
12460TIP3    H258796   0.952   0.620  12.394 -0.9834 -1.0047  0.1621
12461TIP3   OH258797   2.343   1.937   4.894  0.3454 -0.7025 -0.0125
12461TIP3    H158798   2.386   2.001   4.838  1.0291 -1.4871 -0.4161
12461TIP3    H258799   2.259   1.977   4.918  0.4886  0.0649 -0.7661
12462TIP3   OH258800   4.397   6.642  15.858  0.1185  0.1754 -0.1898
12462TIP3    H158801   4.342   6.657  15.935  0.3905  1.3849 -0.2158
12462TIP3    H258802   4.342   6.591  15.799 -0.0278 -0.9407  0.8784
12463TIP3   OH258803   0.826   2.574  16.197  0.2692 -0.2342 -0.3783
12463TIP3    H158804   0.746   2.626  16.205  0.4074 -0.1744  0.7897
12463TIP3    H258805   0.891   2.634  16.162  0.8119  0.8443  2.2831
12464TIP3   OH258806   4.414   0.075  16.466 -0.7441 -0.1983 -0.1752
12464TIP3    H158807   4.365   0.155  16.485 -0.9744 -0.7345  1.7587
12464TIP3    H258808   4.348   0.006  16.467 -0.2080 -0.7154  0.7079
12465TIP3   OH258809   2.391   1.298   2.469 -0.0431  0.1272 -0.0684
12465TIP3    H158810   2.359   1.256   2.389 -1.3951  0.4094  0.2984
12465TIP3    H258811   2.469   1.346   2.442 -0.7871  0.6696 -1.3400
12466TIP3   OH258812   3.023   2.705  11.438 -0.3270  0.4560  0.2986
12466TIP3    H158813   2.937   2.708  11.396  0.6573 -1.1871 -1.9855
12466TIP3    H258814   3.011   2.647  11.513 -1.1085 -0.2010 -0.3153
12467TIP3   OH258815   5.695   0.095   1.702  0.1571  0.2822 -0.3588
12467TIP3    H158816   5.603   0.117   1.689 -0.2419  0.0959  1.8042
12467TIP3    H258817   5.743   0.154   1.643 -1.2348  1.8740  0.0411
12468TIP3   OH258818   3.855   6.279  16.446 -0.5068  0.2656 -0.0876
12468TIP3    H158819   3.915   6.353  16.437  0.1002 -0.3673 -1.4633
12468TIP3    H258820   3.901   6.218  16.505 -0.3731  0.3468 -0.1071
12469TIP3   OH258821   3.730   5.295  11.424  0.1556  0.3772 -0.5872
12469TIP3    H158822   3.727   5.355  11.499  0.7177 -1.7779  1.2767
12469TIP3    H258823   3.692   5.213  11.457 -1.1895 -0.1732 -3.2165
12470TIP3   OH258824   2.558   5.111   5.579  0.4866  0.1581 -0.3311
12470TIP3    H158825   2.649   5.089   5.601  0.3529  0.2138  0.2908
12470TIP3    H258826   2.548   5.202   5.606 -0.0125 -0.1166  0.4266
12471TIP3   OH258827   4.705   3.223   1.955 -0.0317  0.2975 -0.5530
12471TIP3    H158828   4.721   3.271   2.037 -1.4254 -0.2570  0.0801
12471TIP3    H258829   4.647   3.152   1.981 -0.9653  0.4489 -2.1404
12472TIP3   OH258830   0.720   5.364  17.230  0.0090  0.2417 -1.1678
12472TIP3    H158831   0.677   5.435  17.182  0.1584  2.9439  2.2376
12472TIP3    H258832   0.809   5.396  17.246  0.2407 -0.8955  0.0738
12473TIP3   OH258833   3.937   1.439   6.536 -0.3109  0.3026  0.2231
12473TIP3    H158834   3.955   1.517   6.588 -1.2473  0.1930  0.7318
12473TIP3    H258835   4.019   1.389   6.540  0.3399  1.2945 -0.2101
12474TIP3   OH258836   3.634   6.129  16.433 -0.2235  0.0558  0.2780
12474TIP3    H158837   3.585   6.168  16.360 -0.9146 -0.1633  0.6092
12474TIP3    H258838   3.714   6.181  16.439 -1.0994  1.4091  0.6778
12475TIP3   OH258839   2.536   0.270  14.604 -0.1056  0.2910 -0.6089
12475TIP3    H158840   2.445   0.252  14.580  0.2944  0.3734 -2.3134
12475TIP3    H258841   2.554   0.211  14.677 -1.6304  0.5622  0.0427
12476TIP3   OH258842   2.249   4.798  11.949 -0.0343  0.1353  0.1201
12476TIP3    H158843   2.159   4.831  11.947 -0.8553 -1.9385  0.6906
12476TIP3    H258844   2.301   4.874  11.975 -2.3163  0.2389  5.8516
12477TIP3   OH258845   2.763   4.159   4.607  0.5653 -0.2772 -0.2093
12477TIP3    H158846   2.844   4.144   4.559  1.8264  1.5645  1.2102
12477TIP3    H258847   2.776   4.243   4.651 -1.6931 -0.4519  0.9445
12478TIP3   OH258848   0.079   2.016   3.717 -0.3539 -0.0140  0.1034
12478TIP3    H158849   0.126   2.075   3.776  0.8115 -0.9529  0.1499
12478TIP3    H258850   0.078   2.060   3.633 -1.2216  0.9293  0.5863
12479TIP3   OH258851   4.743   3.967  13.225 -0.1820 -0.4917  0.1498
12479TIP3    H158852   4.792   4.017  13.160  0.3379  0.9672  1.5965
12479TIP3    H258853   4.661   3.945  13.181 -0.3541  1.5068 -0.6392
12480TIP3   OH258854   2.681   3.206   6.545  0.0305  0.2490  0.4531
12480TIP3    H158855   2.664   3.252   6.627  0.3782  0.1616  0.5764
12480TIP3    H258856   2.630   3.125   6.552 -1.4364  1.0796 -0.2154
12481TIP3   OH258857   4.143   0.284  17.085  0.1906  0.4595 -0.2781
12481TIP3    H158858   4.118   0.344  17.155 -1.0834 -1.0747  0.6431
12481TIP3    H258859   4.238   0.279  17.090  0.0984 -0.0932  1.7893
12482TIP3   OH258860   3.592   4.831  16.608 -0.1493  0.7141  0.6427
12482TIP3    H158861   3.673   4.870  16.641  0.1913  1.3790 -0.9355
12482TIP3    H258862   3.568   4.884  16.533 -1.3319 -0.2953  0.2701
12483TIP3   OH258863   0.107   6.096  15.922 -0.0915 -0.3772 -0.0187
12483TIP3    H158864   0.192   6.075  15.883 -0.6404 -0.0433 -1.4685
12483TIP3    H258865   0.126   6.159  15.991  0.8836 -0.7033  0.0174
12484TIP3   OH258866   5.015   2.116   5.027 -0.3309  0.6511  0.0782
12484TIP3    H158867   5.046   2.137   4.938 -0.9348 -0.1142 -0.3254
12484TIP3    H258868   5.033   2.022   5.037  1.4791  1.0913  1.5036
12485TIP3   OH258869   3.433   4.800   5.615  0.3778 -0.1432 -0.3569
12485TIP3    H158870   3.504   4.813   5.551  1.5023 -2.6949  0.2125
12485TIP3    H258871   3.459   4.853   5.690  1.0510 -0.0907 -0.6145
12486TIP3   OH258872   3.570   4.800  14.153  0.1676  0.1748  0.3374
12486TIP3    H158873   3.623   4.747  14.095 -0.3033  0.1492 -0.0788
12486TIP3    H258874   3.503   4.839  14.096  0.3940  1.0615  0.6626
12487TIP3   OH258875   2.537   2.967   0.299  0.3279 -0.0293  0.2767
12487TIP3    H158876   2.605   2.955   0.365 -0.0347 -1.4881  0.4180
12487TIP3    H258877   2.525   2.881   0.260 -1.2975  0.2271  0.1153
12488TIP3   OH258878   2.973   0.395  14.379 -0.0922 -0.3832 -0.5269
12488TIP3    H158879   3.042   0.434  14.325 -0.1742 -0.8612 -0.9817
12488TIP3    H258880   3.006   0.307  14.400  1.0409  0.5785  2.2139
12489TIP3   OH258881   4.478   5.725   2.104 -0.4166  0.9139  0.2059
12489TIP3    H158882   4.509   5.813   2.084 -2.4486  1.3016 -1.6172
12489TIP3    H258883   4.495   5.675   2.025  0.0315 -0.1484  0.9541
12490TIP3   OH258884   4.660   2.423  15.924  0.0305  0.1115 -0.6357
12490TIP3    H158885   4.570   2.455  15.922 -0.6673 -1.7593 -0.6809
12490TIP3    H258886   4.683   2.412  15.831  0.0953  0.0273 -0.6094
12491TIP3   OH258887   2.848   2.675  10.951 -0.0655 -0.0530 -0.0349
12491TIP3    H158888   2.911   2.609  10.982  1.4407  1.4361  0.2245
12491TIP3    H258889   2.764   2.648  10.989  0.9059 -0.6681  1.7929
12492TIP3   OH258890   1.159   2.003  13.824  0.1063  0.4248  0.1031
12492TIP3    H158891   1.173   2.063  13.751 -0.3197 -0.4224 -0.7005
12492TIP3    H258892   1.232   2.018  13.884 -0.7866  2.8384  0.7003
12493TIP3   OH258893   1.076   2.662   3.024  0.1002 -0.1186 -0.8636
12493TIP3    H158894   1.045   2.584   3.070 -1.1000  0.3815 -0.7792
12493TIP3    H258895   1.136   2.628   2.957 -0.1799 -1.0785 -0.6453
12494TIP3   OH258896   6.554   0.069  16.123 -0.7504 -0.2527 -1.2083
12494TIP3    H158897   6.540  -0.012  16.075 -0.6882 -0.4557 -0.8887
12494TIP3    H258898   6.575   0.041  16.212  0.3231  0.0697 -1.3364
12495TIP3   OH258899   4.860   5.193   5.001 -0.0635 -0.2100  0.3089
12495TIP3    H158900   4.898   5.275   5.034  1.0316 -1.2570  1.8072
12495TIP3    H258901   4.766   5.208   5.002 -0.0942  0.1238  3.3821
12496TIP3   OH258902   0.442   5.145  13.502 -0.6012 -0.0982  0.2045
12496TIP3    H158903   0.413   5.224  13.550 -0.8432 -1.2519  2.0611
12496TIP3    H258904   0.389   5.145  13.422 -0.8308  1.4366  0.3270
12497TIP3   OH258905   5.175   3.618   1.748 -0.3971 -0.2465 -0.1429
12497TIP3    H158906   5.236   3.681   1.785 -0.2064 -0.1378 -0.6347
12497TIP3    H258907   5.088   3.653   1.768 -0.2915  0.3037 -0.6220
12498TIP3   OH258908   1.652   0.396  11.597 -0.2778 -0.4303 -0.0295
12498TIP3    H158909   1.608   0.430  11.519  0.5985  2.9425  0.7799
12498TIP3    H258910   1.608   0.440  11.671  1.1865 -0.7887  1.1098
12499TIP3   OH258911   1.011   6.344   3.790 -0.1098 -0.1797 -0.8142
12499TIP3    H158912   0.979   6.382   3.709  0.2886 -1.1442 -1.4413
12499TIP3    H258913   1.068   6.411   3.828 -2.1325  1.2339 -0.0968
12500TIP3   OH258914   5.158   4.650  15.070 -0.6224  0.4916 -0.2034
12500TIP3    H158915   5.162   4.732  15.021  0.2638  0.9424  0.6147
12500TIP3    H258916   5.249   4.627  15.086 -0.8698 -0.5513 -0.2458
12501TIP3   OH258917   2.269   4.477  14.703 -0.0520  0.7678  0.0862
12501TIP3    H158918   2.362   4.458  14.692  0.0746 -0.3839  2.4661
12501TIP3    H258919   2.232   4.396  14.737 -1.8543  1.3550 -0.3618
12502TIP3   OH258920   1.286   0.665  12.081 -0.0517  0.0444 -0.4339
12502TIP3    H158921   1.314   0.756  12.080 -1.9774  0.7314  1.0162
12502TIP3    H258922   1.333   0.626  12.154  0.1359  0.0882 -0.5297
12503TIP3   OH258923   4.715   2.948  11.807  0.3466  0.0419  0.5253
12503TIP3    H158924   4.701   2.919  11.717 -0.0694 -2.3936  1.2948
12503TIP3    H258925   4.677   3.036  11.810 -1.7717 -0.7222 -1.1115
12504TIP3   OH258926   1.396   1.053  15.044 -0.3323  0.5554 -0.7581
12504TIP3    H158927   1.383   0.962  15.072  0.5499  1.0407  1.4703
12504TIP3    H258928   1.437   1.046  14.958  0.8375 -1.2067 -0.1244
12505TIP3   OH258929   4.254   5.036   5.324 -0.4306 -0.3440 -0.2402
12505TIP3    H158930   4.227   4.984   5.248 -1.3896  0.8596 -0.7581
12505TIP3    H258931   4.280   5.120   5.288  0.4761 -0.2298  0.6404
12506TIP3   OH258932   6.050   1.588  16.294  0.4654  0.0221 -0.6103
12506TIP3    H158933   6.027   1.540  16.373  0.4928  0.0158 -0.6065
12506TIP3    H258934   5.980   1.567  16.232 -0.6072  1.5428  0.0246
12507TIP3   OH258935   3.958   5.240  16.279 -0.1686  0.1112  0.3505
12507TIP3    H158936   4.051   5.264  16.278 -0.0290 -0.3346  1.5435
12507TIP3    H258937   3.947   5.186  16.201  0.4542  0.5805 -0.0754
12508TIP3   OH258938   0.998   0.126  12.391  0.2293  0.1350  0.0208
12508TIP3    H158939   0.978   0.089  12.478  0.9609 -1.8334 -0.5999
12508TIP3    H258940   1.090   0.150  12.396 -0.1086  1.4549  0.2435
12509TIP3   OH258941   3.609   0.460   2.356 -0.1315  0.0307 -0.0576
12509TIP3    H158942   3.589   0.409   2.278  1.0727  1.6120 -1.4673
12509TIP3    H258943   3.531   0.452   2.411 -0.0207 -3.2363 -0.2043
12510TIP3   OH258944   0.202   5.482  14.641  0.2543 -0.0196  0.0735
12510TIP3    H158945   0.222   5.389  14.650  0.6168  0.0990  0.5490
12510TIP3    H258946   0.268   5.526  14.694 -1.0787  0.4034  1.4709
12511TIP3   OH258947   2.065   3.036  13.243 -0.2752  0.3328  0.5339
12511TIP3    H158948   2.024   3.099  13.303  0.5242 -0.0065  1.4641
12511TIP3    H258949   2.021   2.953  13.262 -1.9556  0.7362 -1.3140
12512TIP3   OH258950   3.433   3.744   6.147  0.1645 -0.0807  0.4292
12512TIP3    H158951   3.476   3.662   6.170 -0.5710 -0.1957  1.4232
12512TIP3    H258952   3.364   3.755   6.212  0.5136  1.5399  0.5763
12513TIP3   OH258953   0.975   4.666  16.862 -0.1976  0.1257  0.1079
12513TIP3    H158954   0.948   4.574  16.858  0.0623  0.0404  0.3566
12513TIP3    H258955   1.068   4.666  16.840  0.0167  0.2272  0.9618
12514TIP3   OH258956   4.165   3.885  16.563  0.3831  0.1400 -0.0209
12514TIP3    H158957   4.074   3.904  16.587 -0.2362 -0.8138 -1.4987
12514TIP3    H258958   4.217   3.932  16.628 -1.1627  0.5605  0.9642
12515TIP3   OH258959   0.864   5.640  16.716  0.3992  0.2217 -0.0979
12515TIP3    H158960   0.853   5.554  16.675 -1.3349  0.0692  0.6119
12515TIP3    H258961   0.938   5.628  16.775 -0.8454 -1.3135  1.2447
12516TIP3   OH258962   4.327   2.791  11.366 -0.5500 -0.5737  0.0728
12516TIP3    H158963   4.343   2.697  11.374  0.0952 -0.5417 -0.7558
12516TIP3    H258964   4.237   2.802  11.398 -0.4109 -1.3763  0.7674
12517TIP3   OH258965   4.445   3.117  13.529  0.3884 -0.4493 -0.1153
12517TIP3    H158966   4.532   3.100  13.494  0.4474  0.6089 -0.5317
12517TIP3    H258967   4.456   3.113  13.624  0.9941  0.0776 -0.1538
12518TIP3   OH258968   2.225   0.956   5.366 -0.0044  0.8115  0.2645
12518TIP3    H158969   2.135   0.959   5.396 -0.1674  1.7049 -0.2869
12518TIP3    H258970   2.218   0.947   5.270  0.4915  0.9152  0.2158
12519TIP3   OH258971   2.039   4.620   3.463  0.3065  0.1273  0.3878
12519TIP3    H158972   2.021   4.714   3.470  0.8924  0.2613  0.1798
12519TIP3    H258973   2.126   4.615   3.423  0.1145 -0.5124  0.0354
12520TIP3   OH258974   3.922   6.163  15.435 -0.4354 -0.2127  0.4855
12520TIP3    H158975   3.899   6.071  15.452  0.5053 -0.3815  0.9057
12520TIP3    H258976   3.935   6.167  15.340  2.5168 -1.2850  0.7218
12521TIP3   OH258977   5.525   6.232   5.589  0.2624  0.8583  0.2922
12521TIP3    H158978   5.539   6.220   5.495 -0.6529  1.6735  0.0297
12521TIP3    H258979   5.449   6.177   5.609  0.4996  0.6305  0.5725
12522TIP3   OH258980   4.950   4.497  14.448 -0.3970 -0.0631  0.0844
12522TIP3    H158981   4.992   4.507  14.363 -1.2715 -2.4185 -0.7206
12522TIP3    H258982   4.864   4.538  14.437 -0.7971 -1.0135 -0.4489
12523TIP3   OH258983   4.758   2.829   2.225 -0.3294 -0.1851 -0.2582
12523TIP3    H158984   4.775   2.736   2.240  3.3526  0.5347  0.9551
12523TIP3    H258985   4.734   2.863   2.311  1.4010  0.4787 -0.0042
12524TIP3   OH258986   3.228   2.407   3.747 -0.6134  0.4223  0.1452
12524TIP3    H158987   3.189   2.377   3.665 -0.8699  1.0354  0.0381
12524TIP3    H258988   3.211   2.501   3.748  3.6370  1.4668 -1.5461
12525TIP3   OH258989   0.815   4.537  15.959 -0.0235  0.0680  0.4467
12525TIP3    H158990   0.748   4.605  15.967  0.0166  0.3144 -0.9852
12525TIP3    H258991   0.852   4.551  15.872  0.1552 -1.6379  0.2247
12526TIP3   OH258992   3.624   2.359   5.139  0.1471  0.1203 -0.3466
12526TIP3    H158993   3.529   2.342   5.136  0.0838  0.1801  0.9458
12526TIP3    H258994   3.637   2.411   5.218  0.9008  2.7113 -2.0543
12527TIP3   OH258995   5.000   0.514  13.374  0.2583 -0.4386  0.0301
12527TIP3    H158996   5.057   0.463  13.317  0.1040 -0.3474 -0.2080
12527TIP3    H258997   4.916   0.467  13.371  0.4616 -0.8723  0.7912
12528TIP3   OH258998   5.511   2.418  12.701 -0.4029  0.0461  0.2181
12528TIP3    H158999   5.537   2.351  12.763  1.8118 -0.4684 -1.1684
12528TIP3    H259000   5.587   2.475  12.692 -0.4808 -0.1214 -2.2723
12529TIP3   OH259001   4.983   3.360   4.725 -0.1719  0.5913 -0.2051
12529TIP3    H159002   4.985   3.438   4.781  2.8751 -0.5219  1.4628
12529TIP3    H259003   5.060   3.368   4.669  0.0401 -1.0737 -0.1951
12530TIP3   OH259004   4.613   6.668  12.050 -0.0505  0.2407 -0.2613
12530TIP3    H159005   4.597   6.703  11.962  0.7240  1.5075  0.0690
12530TIP3    H259006   4.611   6.745  12.107 -0.9757 -0.6065  0.9139
12531TIP3   OH259007   3.794   6.703   3.908 -0.2016 -0.3999 -0.6931
12531TIP3    H159008   3.822   6.722   3.819  1.1669 -1.9013 -0.6148
12531TIP3    H259009   3.749   6.619   3.902 -0.4871 -0.3050 -0.0138
12532TIP3   OH259010   2.687   3.090   4.555  0.2402 -0.0977 -0.6941
12532TIP3    H159011   2.680   3.119   4.645  0.0310 -0.1058 -0.7077
12532TIP3    H259012   2.781   3.079   4.540  0.1787 -2.1260  0.1635
12533TIP3   OH259013   0.678   1.888   5.309 -0.5119 -0.2160 -0.0400
12533TIP3    H159014   0.683   1.965   5.365 -0.7595 -0.3280  0.1355
12533TIP3    H259015   0.768   1.875   5.279 -0.3788 -0.1499  0.3245
12534TIP3   OH259016   1.266   1.830   5.343 -0.0877 -0.6544 -0.2982
12534TIP3    H159017   1.283   1.740   5.369  0.8256 -0.5713 -0.5653
12534TIP3    H259018   1.198   1.823   5.276  0.8882 -1.2789 -1.2698
12535TIP3   OH259019   3.418   0.290   4.254  0.4135 -0.0999  0.0265
12535TIP3    H159020   3.373   0.230   4.314  2.0597 -2.3175 -0.8274
12535TIP3    H259021   3.507   0.296   4.288  0.2406  2.1880  0.2410
12536TIP3   OH259022   3.259   6.142   3.136 -0.4869 -1.0068  0.2944
12536TIP3    H159023   3.232   6.137   3.044 -1.4660 -0.7226  0.5585
12536TIP3    H259024   3.181   6.171   3.183  0.4053  0.3119  1.0348
12537TIP3   OH259025   4.727   4.395  16.142 -0.7533 -0.8189 -0.0053
12537TIP3    H159026   4.724   4.325  16.207 -0.2079 -0.1831  0.7263
12537TIP3    H259027   4.801   4.373  16.086 -0.3985 -0.6806  0.4048
12538TIP3   OH259028   3.348   1.571   4.763 -0.0029  0.5906 -0.0339
12538TIP3    H159029   3.279   1.571   4.698 -1.2989  1.8889  1.2778
12538TIP3    H259030   3.357   1.479   4.788  1.8564 -0.2844 -3.2615
12539TIP3   OH259031   4.812   5.133  12.009  0.0128 -1.0218 -0.7159
12539TIP3    H159032   4.880   5.189  11.970 -1.1286  1.7814  0.9804
12539TIP3    H259033   4.730   5.163  11.969 -0.8124 -0.2716  1.4055
12540TIP3   OH259034   4.782   3.238  15.149  0.5707 -0.3814 -0.3764
12540TIP3    H159035   4.711   3.273  15.095 -0.5196 -1.1878  0.4698
12540TIP3    H259036   4.821   3.315  15.191 -0.0889  0.0451 -0.5269
12541TIP3   OH259037   3.275   3.205  12.430 -0.4616 -0.3081 -0.4866
12541TIP3    H159038   3.302   3.248  12.349  1.5952 -1.3084 -0.4052
12541TIP3    H259039   3.204   3.147  12.404 -0.4016  0.0084 -1.4071
12542TIP3   OH259040   5.678   2.678  13.279  0.0666 -0.3795 -0.4683
12542TIP3    H159041   5.728   2.744  13.327  0.0309 -2.0132  2.0006
12542TIP3    H259042   5.587   2.704  13.290  0.0642 -0.6952  0.3200
12543TIP3   OH259043   5.588   3.549  14.352  0.3291  0.5830  0.3819
12543TIP3    H159044   5.591   3.476  14.290 -0.5632  0.5851  0.3283
12543TIP3    H259045   5.652   3.612  14.319 -0.6286  0.8989 -0.9422
12544TIP3   OH259046   0.659   2.667  13.430 -0.3202 -0.3002 -0.6382
12544TIP3    H159047   0.703   2.750  13.448 -0.0648 -0.4402 -0.6224
12544TIP3    H259048   0.567   2.685  13.451 -0.2401 -0.0690 -0.4752
12545TIP3   OH259049   5.783   6.074   6.826  0.4370  0.1649  0.2484
12545TIP3    H159050   5.847   6.013   6.789  0.6121 -0.0149  0.8384
12545TIP3    H259051   5.812   6.161   6.796 -0.3448 -0.0869 -1.3875
12546TIP3   OH259052   0.118   2.567  11.799  0.1768  0.0458 -0.3134
12546TIP3    H159053   0.056   2.569  11.871  0.0474  0.3708 -0.4322
12546TIP3    H259054   0.089   2.493  11.744  0.1079 -0.0225 -0.1848
12547TIP3   OH259055   3.800   5.487   4.951  0.1690 -0.2192  0.0772
12547TIP3    H159056   3.792   5.546   5.026 -0.2658 -0.0055 -0.1313
12547TIP3    H259057   3.886   5.507   4.913  0.1030  0.1487  0.1183
12548TIP3   OH259058   2.218   4.461   3.741 -0.0003  0.0984 -0.0912
12548TIP3    H159059   2.234   4.507   3.823  1.2248 -2.4520  1.2193
12548TIP3    H259060   2.148   4.512   3.698 -2.2806  0.3836  3.5261
12549TIP3   OH259061   2.217   3.555  11.919 -0.3141  0.1813 -0.1301
12549TIP3    H159062   2.295   3.561  11.864  1.0223 -0.5430  1.6117
12549TIP3    H259063   2.188   3.645  11.931  0.4349  0.4802 -0.5390
12550TIP3   OH259064   3.726   4.276   0.947  0.2533  0.5434  0.2212
12550TIP3    H159065   3.685   4.193   0.923  0.7805  0.7412 -1.4615
12550TIP3    H259066   3.790   4.252   1.014 -0.1335 -0.2896  0.3026
12551TIP3   OH259067   2.553   5.799  16.431 -0.3410  0.1501  0.1737
12551TIP3    H159068   2.557   5.789  16.526  0.1857 -0.8463  0.0589
12551TIP3    H259069   2.461   5.821  16.413 -0.5844 -0.3043  0.8562
12552TIP3   OH259070   2.955   5.619   2.543 -0.3507 -0.2263  0.6898
12552TIP3    H159071   2.864   5.593   2.559 -1.1641  0.5661 -1.9530
12552TIP3    H259072   2.947   5.694   2.483  2.0625 -0.9192 -0.6044
12553TIP3   OH259073   2.843   2.155   4.803  0.5822 -0.0617  0.2624
12553TIP3    H159074   2.861   2.175   4.895  1.9733 -1.9148  0.4591
12553TIP3    H259075   2.901   2.082   4.783 -0.5947 -0.5207 -1.7425
12554TIP3   OH259076   5.971   0.900   1.082 -0.1453  0.3664 -0.3195
12554TIP3    H159077   6.015   0.872   1.162  0.4351 -0.1569 -0.8082
12554TIP3    H259078   5.905   0.962   1.111 -0.1661 -0.0740  0.6012
12555TIP3   OH259079   0.768   2.109   1.612 -0.3876  0.0446 -0.3788
12555TIP3    H159080   0.733   2.048   1.547  0.0293 -0.4992 -0.1015
12555TIP3    H259081   0.860   2.085   1.619 -0.5818 -0.3562  0.9132
12556TIP3   OH259082   5.784   4.385  15.315  0.0431 -0.1364  0.6825
12556TIP3    H159083   5.768   4.476  15.342 -0.1059 -0.0698  0.3766
12556TIP3    H259084   5.758   4.383  15.223  1.1796 -0.1925  0.3450
12557TIP3   OH259085   2.348   5.803  13.061  0.0037  0.1671 -0.2248
12557TIP3    H159086   2.435   5.762  13.064 -1.1703 -2.5417  0.6883
12557TIP3    H259087   2.294   5.741  13.011 -1.9276  0.5825  1.1983
12558TIP3   OH259088   6.169   3.159   0.067  0.3113  0.3563 -0.6730
12558TIP3    H159089   6.176   3.184   0.159 -2.5184 -2.7021  0.5580
12558TIP3    H259090   6.104   3.220   0.031 -1.3343 -0.6387  0.4432
12559TIP3   OH259091   0.516   2.102   0.877  0.3804  0.1023  0.1204
12559TIP3    H159092   0.512   2.010   0.852 -1.0484 -0.5315  2.4013
12559TIP3    H259093   0.454   2.110   0.949  0.4374  2.8857 -0.0385
12560TIP3   OH259094   3.910   6.430   1.798  0.1563 -0.3492  0.7299
12560TIP3    H159095   3.879   6.464   1.714  1.4062 -1.0437 -0.0465
12560TIP3    H259096   3.958   6.503   1.837 -0.8151  0.1239  1.0742
12561TIP3   OH259097   1.191   3.844  14.403 -0.1281 -0.2474 -0.3168
12561TIP3    H159098   1.204   3.868  14.311  0.3553 -1.9564 -0.7310
12561TIP3    H259099   1.278   3.823  14.435 -0.2747  0.4576  0.5911
12562TIP3   OH259100   3.179   2.188  11.118  0.0895  0.7719  0.5678
12562TIP3    H159101   3.167   2.279  11.146  1.5880  1.1986 -0.0500
12562TIP3    H259102   3.274   2.176  11.118 -0.0444 -0.4369 -0.4859
12563TIP3   OH259103   4.638   4.336  13.659 -0.6342  0.2916 -0.4229
12563TIP3    H159104   4.705   4.326  13.592  1.5898  1.7755  1.4263
12563TIP3    H259105   4.652   4.262  13.718 -1.5779 -0.1731 -0.7735
12564TIP3   OH259106   3.047   1.372  14.740 -0.0062  0.5488 -0.6795
12564TIP3    H159107   3.044   1.445  14.678 -2.3145  1.8600  0.8325
12564TIP3    H259108   3.070   1.413  14.824  1.9979 -1.0217 -0.3947
12565TIP3   OH259109   4.145   2.844  16.999 -0.1239  0.0584  0.6126
12565TIP3    H159110   4.183   2.902  17.065  0.5475 -0.1554  0.4176
12565TIP3    H259111   4.134   2.760  17.044  0.3592 -0.0947  0.4438
12566TIP3   OH259112   5.462   6.338  15.512 -0.2864 -0.0059 -0.0284
12566TIP3    H159113   5.431   6.420  15.474 -0.5103 -0.2678 -0.4192
12566TIP3    H259114   5.556   6.353  15.527  0.1525 -0.3885 -2.0855
12567TIP3   OH259115   2.123   3.727  14.564 -0.0822 -0.3853 -0.2967
12567TIP3    H159116   2.062   3.790  14.526  1.1567  0.8946 -0.2757
12567TIP3    H259117   2.206   3.774  14.567  0.5885 -1.5777  0.9664
12568TIP3   OH259118   0.053   3.517   1.339  0.3635  0.1469  0.0914
12568TIP3    H159119   0.036   3.607   1.313  1.2076 -0.3016 -2.2101
12568TIP3    H259120   0.143   3.500   1.312  0.2872 -1.3365  0.6629
12569TIP3   OH259121   2.572   0.643  11.703 -0.3820  0.1931  0.8749
12569TIP3    H159122   2.605   0.624  11.615 -0.8824 -2.2647  1.1503
12569TIP3    H259123   2.574   0.559  11.748 -1.0264  1.2211  2.9343
12570TIP3   OH259124   2.579   4.751   5.136  0.1737 -0.4332  0.2496
12570TIP3    H159125   2.671   4.728   5.149 -0.2249 -1.8970  0.6556
12570TIP3    H259126   2.562   4.818   5.202  0.7984 -0.5580  0.5494
12571TIP3   OH259127   0.328   3.142  16.264  0.0188 -0.5103 -0.6083
12571TIP3    H159128   0.411   3.144  16.311 -0.5573 -0.0889  0.4121
12571TIP3    H259129   0.263   3.176  16.326 -0.8995 -0.6894 -1.4326
12572TIP3   OH259130   0.439   6.724  16.417  0.1282 -0.2038  0.3799
12572TIP3    H159131   0.462   6.641  16.460 -0.6079 -0.7526 -0.2600
12572TIP3    H259132   0.446   6.789  16.486 -0.3664 -0.9725  1.1791
12573TIP3   OH259133   4.144   4.329  16.678 -0.0102 -0.5311  0.0908
12573TIP3    H159134   4.105   4.320  16.591 -1.7304 -0.7334  0.8583
12573TIP3    H259135   4.187   4.245  16.694 -0.4692 -0.8185 -0.1757
12574TIP3   OH259136   3.117   0.030   1.535  0.4175 -0.0864 -0.2874
12574TIP3    H159137   3.158   0.048   1.451  0.4668  0.9115 -0.0681
12574TIP3    H259138   3.048  -0.034   1.516 -0.0949  0.7254 -1.2233
12575TIP3   OH259139   4.934   3.807  14.339  0.0172 -0.7404 -0.2061
12575TIP3    H159140   5.026   3.800  14.313 -0.3719  0.0841 -1.9454
12575TIP3    H259141   4.923   3.900  14.360 -0.5121 -0.7485 -0.4422
12576TIP3   OH259142   2.313   4.622  14.062 -0.8723 -0.2853  0.2066
12576TIP3    H159143   2.401   4.590  14.079 -1.3321 -0.2195  3.3051
12576TIP3    H259144   2.325   4.712  14.030  0.1747 -0.0978  1.1020
12577TIP3   OH259145   1.566   4.906  16.805  0.1602 -0.0206 -0.1893
12577TIP3    H159146   1.569   4.823  16.757 -0.1650 -0.3853  0.4159
12577TIP3    H259147   1.474   4.930  16.806  0.0768 -0.3713  0.8589
12578TIP3   OH259148   4.971   2.425   5.521 -0.0892 -0.3350 -0.4273
12578TIP3    H159149   5.049   2.471   5.553 -1.7361 -0.0159  3.8779
12578TIP3    H259150   4.984   2.334   5.550 -1.4825 -0.1360  0.9626
12579TIP3   OH259151   0.486   0.652   5.979  0.1084  0.7122  0.0556
12579TIP3    H159152   0.405   0.603   5.965  0.7090 -0.2703 -0.1194
12579TIP3    H259153   0.526   0.657   5.893  0.6916  0.3371  0.2984
12580TIP3   OH259154   6.209   2.874   5.348 -0.4583  0.2416  0.3673
12580TIP3    H159155   6.133   2.820   5.371 -0.6445 -0.0628 -0.8927
12580TIP3    H259156   6.251   2.893   5.432 -2.1388  0.7594  1.1305
12581TIP3   OH259157   6.743   5.590  15.497  0.2778 -0.3338 -0.5642
12581TIP3    H159158   6.797   5.653  15.449  0.0289  1.3316  1.2452
12581TIP3    H259159   6.662   5.636  15.516 -0.6699 -1.8465 -0.7627
12582TIP3   OH259160   3.686   5.699   1.602  0.1436  0.2104 -0.7969
12582TIP3    H159161   3.650   5.613   1.626  1.5263 -1.3717 -3.8324
12582TIP3    H259162   3.616   5.760   1.622 -1.1555 -1.6657  0.8612
12583TIP3   OH259163   5.719   4.787  11.648  0.0120  0.1033 -0.1918
12583TIP3    H159164   5.780   4.806  11.578 -0.1060 -1.5529 -0.8025
12583TIP3    H259165   5.770   4.797  11.729  0.8880 -0.5026 -0.6563
12584TIP3   OH259166   3.773   3.760   3.454 -0.2439 -0.2051 -0.0923
12584TIP3    H159167   3.868   3.744   3.447 -0.5652 -2.0266 -0.8096
12584TIP3    H259168   3.741   3.755   3.364 -1.0147  0.5855  0.1257
12585TIP3   OH259169   0.558   1.898  14.347 -0.2294 -0.2770  0.0753
12585TIP3    H159170   0.615   1.962  14.388  0.5558 -1.2736  0.5812
12585TIP3    H259171   0.611   1.859  14.277  0.1664 -2.0142  1.2716
12586TIP3   OH259172   2.822   3.457   5.284 -0.4819  0.4044  0.1179
12586TIP3    H159173   2.866   3.427   5.364 -0.0417 -0.5073 -0.4567
12586TIP3    H259174   2.886   3.513   5.241  0.1138 -0.8880 -0.6970
12587TIP3   OH259175   4.463   4.992  15.585  0.4024 -1.0120  0.2677
12587TIP3    H159176   4.515   4.913  15.599  1.8102  0.0734  1.5019
12587TIP3    H259177   4.515   5.062  15.624 -0.4685  0.6583 -1.4007
12588TIP3   OH259178   1.303   6.636  11.527  0.1499 -0.1033 -0.4864
12588TIP3    H159179   1.297   6.731  11.538  0.4283 -0.1938  0.5251
12588TIP3    H259180   1.289   6.622  11.434  0.4846  0.9643 -0.7105
12589TIP3   OH259181   5.179   1.735   3.460  0.0969  0.2574  0.0873
12589TIP3    H159182   5.116   1.692   3.403  1.6370 -0.5438 -1.0917
12589TIP3    H259183   5.137   1.736   3.546 -0.6780 -2.1746 -0.1828
12590TIP3   OH259184   0.204   2.683   5.355  0.1447 -0.4597  0.0213
12590TIP3    H159185   0.248   2.744   5.296 -0.2507 -0.8134 -0.6589
12590TIP3    H259186   0.140   2.737   5.401 -0.8625 -0.5023 -1.2661
12591TIP3   OH259187   4.729   3.303   2.214 -0.4420 -0.0422 -0.0573
12591TIP3    H159188   4.639   3.334   2.229 -1.0267 -1.8117  0.4822
12591TIP3    H259189   4.781   3.345   2.282 -0.6319  1.8285 -1.0284
12592TIP3   OH259190   6.247   1.443  16.109  0.0778 -0.0126 -0.1275
12592TIP3    H159191   6.180   1.504  16.078 -3.1948 -3.0683  0.2816
12592TIP3    H259192   6.270   1.475  16.196 -2.8080 -0.1198  0.7854
12593TIP3   OH259193   3.666   0.630   0.012 -0.1945 -0.8921  0.4134
12593TIP3    H159194   3.679   0.589   0.097 -2.5341 -1.6647  0.4615
12593TIP3    H259195   3.717   0.711   0.016  1.7081 -2.0862  1.5910
12594TIP3   OH259196   3.494   2.468  11.226 -0.0042 -0.3258  0.2370
12594TIP3    H159197   3.529   2.395  11.277  1.3694 -0.7076 -1.1847
12594TIP3    H259198   3.407   2.437  11.198 -1.0285  0.1001  2.6758
12595TIP3   OH259199   3.227   3.688  13.504  0.0525 -0.2668 -0.1843
12595TIP3    H159200   3.260   3.758  13.559 -2.5620  0.2838  0.8354
12595TIP3    H259201   3.273   3.610  13.535 -0.5230  0.2131  2.0664
12596TIP3   OH259202   0.243   5.655   0.255  0.3232  0.3100  0.0108
12596TIP3    H159203   0.255   5.745   0.223 -0.9239  1.3495  2.2068
12596TIP3    H259204   0.256   5.662   0.350 -1.3590 -1.5074  0.4400
12597TIP3   OH259205   4.638   1.473  11.697  0.5148  0.1452  0.4407
12597TIP3    H159206   4.730   1.499  11.700  0.2292  1.1343  1.7872
12597TIP3    H259207   4.593   1.548  11.659  0.4316 -1.0174 -1.9106
12598TIP3   OH259208   6.731   1.872  16.169 -0.0887 -0.2937 -0.0161
12598TIP3    H159209   6.706   1.821  16.092 -0.0930  0.6987 -0.6827
12598TIP3    H259210   6.706   1.962  16.148  3.1730  0.6678 -0.3634
12599TIP3   OH259211   2.474   5.416  16.293 -0.3194 -0.2532  0.1565
12599TIP3    H159212   2.408   5.438  16.227 -0.6979  0.2182  0.6804
12599TIP3    H259213   2.449   5.468  16.369  0.3585 -0.4755  0.5328
12600TIP3   OH259214   1.457   3.443  13.924  0.0968  0.1060 -0.0871
12600TIP3    H159215   1.365   3.417  13.917  0.4630 -1.0125 -0.8860
12600TIP3    H259216   1.495   3.381  13.985  0.2214  0.8925  0.6515
12601TIP3   OH259217   2.903   6.286  10.526  0.2222 -0.3487 -0.5265
12601TIP3    H159218   2.818   6.251  10.500  0.8941 -2.1611 -0.4130
12601TIP3    H259219   2.887   6.329  10.610 -0.6231 -0.3909 -0.6589
12602TIP3   OH259220   3.653   6.322  13.592  0.3770 -0.6537  0.3082
12602TIP3    H159221   3.602   6.314  13.511  3.7554  0.9139 -2.2336
12602TIP3    H259222   3.720   6.387  13.572  2.3489 -1.3095  3.9123
12603TIP3   OH259223   4.291   0.038   3.670 -0.0049  0.3653 -0.2034
12603TIP3    H159224   4.369   0.061   3.720  0.9686 -1.2326 -0.9241
12603TIP3    H259225   4.221   0.038   3.736  0.8453  0.4499  0.7355
12604TIP3   OH259226   2.113   1.956  11.722  0.3810 -0.2744 -0.5738
12604TIP3    H159227   2.027   1.997  11.726 -0.2067 -1.4512 -0.5119
12604TIP3    H259228   2.136   1.937  11.813 -0.4327 -2.1457 -0.7048
12605TIP3   OH259229   2.656   6.078   3.088 -0.4301  0.3528 -0.1918
12605TIP3    H159230   2.615   6.085   3.002 -2.1986  0.7125  0.6327
12605TIP3    H259231   2.718   6.151   3.091 -0.7178  0.6376 -0.9746
12606TIP3   OH259232   6.022   0.774  13.599 -0.0292  0.0208  0.0123
12606TIP3    H159233   6.069   0.856  13.588  0.8570 -0.3076  1.1253
12606TIP3    H259234   6.090   0.709  13.615 -0.7509 -0.8402 -0.2803
12607TIP3   OH259235   5.367   3.385   4.129  0.8502 -0.0552 -0.6748
12607TIP3    H159236   5.390   3.318   4.064  1.5209 -0.8880  0.3632
12607TIP3    H259237   5.281   3.359   4.161  1.9325 -1.6905  1.1732
12608TIP3   OH259238   6.290   5.216  15.587  0.5872  0.1844 -0.0068
12608TIP3    H159239   6.260   5.221  15.677  0.5776 -0.7860  0.0562
12608TIP3    H259240   6.372   5.265  15.586  1.2659 -0.8936  0.8381
12609TIP3   OH259241   1.195   3.406  15.909  0.3621 -0.5799 -0.7099
12609TIP3    H159242   1.228   3.474  15.969  0.1054  1.0849 -2.3595
12609TIP3    H259243   1.100   3.409  15.921  0.2801  0.0309 -1.4407
12610TIP3   OH259244   6.536   5.031   3.915 -0.2031  0.1073 -0.1232
12610TIP3    H159245   6.457   4.983   3.939  0.0154 -0.8288 -1.2143
12610TIP3    H259246   6.520   5.060   3.825  0.8816 -0.5435 -0.5492
12611TIP3   OH259247   6.011   6.677   5.951  0.6671  0.4290  0.1078
12611TIP3    H159248   5.924   6.691   5.987  0.4022 -0.2075 -0.2781
12611TIP3    H259249   5.996   6.641   5.864  1.3156  0.5096 -0.0480
12612TIP3   OH259250   1.936   5.700  11.671  0.5800  0.3710 -0.2167
12612TIP3    H159251   1.918   5.704  11.577  2.8191  0.1465 -0.7329
12612TIP3    H259252   1.991   5.622  11.681  0.5444  0.5117  1.2359
12613TIP3   OH259253   0.167   1.294   3.215 -0.1638 -0.3692 -0.5615
12613TIP3    H159254   0.101   1.249   3.162  0.8515 -0.1516 -2.0460
12613TIP3    H259255   0.247   1.243   3.203  0.3468  0.3101 -0.1002
12614TIP3   OH259256   5.657   6.146  14.762 -0.0450  0.3097 -0.3783
12614TIP3    H159257   5.604   6.194  14.698  0.7778  0.6378 -0.8293
12614TIP3    H259258   5.736   6.199  14.771 -0.5903  0.8368  1.7374
12615TIP3   OH259259   5.139   0.122   3.994  0.1988  0.3577  0.5569
12615TIP3    H159260   5.089   0.109   3.914  1.1329  0.3920 -0.0436
12615TIP3    H259261   5.099   0.199   4.035 -1.0264 -0.3541  0.7282
12616TIP3   OH259262   1.725   4.080   3.606 -0.2718 -0.4101 -0.2069
12616TIP3    H159263   1.818   4.077   3.630 -0.0316  0.2130 -1.0186
12616TIP3    H259264   1.723   4.048   3.516 -0.0135  4.7575 -2.3735
12617TIP3   OH259265   3.550   6.386   4.385 -0.5113 -0.2257  0.1840
12617TIP3    H159266   3.593   6.437   4.316 -0.4912  0.5448  0.7528
12617TIP3    H259267   3.466   6.430   4.398  0.2617  0.8090  1.9694
12618TIP3   OH259268   2.878   1.655   2.670 -0.4312 -0.4408 -0.5452
12618TIP3    H159269   2.796   1.608   2.655  0.3905 -1.1021 -3.4725
12618TIP3    H259270   2.862   1.743   2.637  0.2622 -0.8241 -1.9673
12619TIP3   OH259271   3.419   0.663   1.613  0.2027 -0.2865  0.0022
12619TIP3    H159272   3.454   0.624   1.533 -1.4714  0.0484 -0.9430
12619TIP3    H259273   3.331   0.692   1.590  0.0860  0.8812  1.6513
12620TIP3   OH259274   1.027   0.955  16.382 -0.0649  0.5596  0.6631
12620TIP3    H159275   1.063   1.004  16.456  1.7681  1.2240 -0.6062
12620TIP3    H259276   1.098   0.952  16.319 -1.8928  0.8863 -1.5216
12621TIP3   OH259277   5.170   2.295  17.052  0.2819  0.0985 -0.1430
12621TIP3    H159278   5.251   2.285  17.003 -0.9333 -0.4464 -2.1574
12621TIP3    H259279   5.146   2.388  17.041  0.2232  0.0705 -0.2577
12622TIP3   OH259280   1.487   5.557   4.879  0.5319  0.1750  0.4794
12622TIP3    H159281   1.439   5.630   4.841  1.1299  0.2220 -0.2109
12622TIP3    H259282   1.433   5.527   4.952  0.9994  2.3336  1.8175
12623TIP3   OH259283   1.215   2.344   4.591 -0.8385 -0.1826 -0.0032
12623TIP3    H159284   1.275   2.343   4.516  1.0982  1.4034  1.4007
12623TIP3    H259285   1.197   2.252   4.608  1.2902 -0.7577 -0.4650
12624TIP3   OH259286   1.118   0.920   3.129  0.2227 -0.8134  0.8936
12624TIP3    H159287   1.154   0.991   3.183 -0.3819  0.1519  0.0686
12624TIP3    H259288   1.194   0.884   3.084  0.1803  1.6415 -1.3339
12625TIP3   OH259289   3.245   4.969   3.192  0.3631 -0.7128  0.3981
12625TIP3    H159290   3.265   4.949   3.284 -0.0655 -0.5346  0.5289
12625TIP3    H259291   3.167   4.916   3.173  1.6237 -2.3786 -0.4741
12626TIP3   OH259292   0.939   5.319   0.896 -0.4238 -0.1883  0.1105
12626TIP3    H159293   0.948   5.354   0.984 -1.6753  0.9038 -0.1462
12626TIP3    H259294   0.858   5.267   0.899 -0.6564  0.1264 -0.4515
12627TIP3   OH259295   5.663   3.933   5.983  0.3152 -0.7273 -0.4842
12627TIP3    H159296   5.654   3.841   5.958  1.2497 -0.7470 -0.7912
12627TIP3    H259297   5.742   3.962   5.937  0.1360  0.1744 -0.2307
12628TIP3   OH259298   1.048   3.241   1.189  0.6772  0.3084 -0.1206
12628TIP3    H159299   1.068   3.186   1.265  1.9078  0.7890 -0.0765
12628TIP3    H259300   1.124   3.231   1.131  0.0215  0.4209 -1.0230
12629TIP3   OH259301   1.107   3.416   4.721 -0.4582 -0.3020  0.1323
12629TIP3    H159302   1.176   3.370   4.768  0.1577  0.1157 -0.3467
12629TIP3    H259303   1.151   3.457   4.646 -1.5927 -1.9511 -1.5521
12630TIP3   OH259304   0.185   3.867   5.642 -1.0053 -0.6083  0.2075
12630TIP3    H159305   0.117   3.829   5.699 -1.4251 -1.8219 -1.0385
12630TIP3    H259306   0.186   3.810   5.565  0.6667  0.0470 -0.3007
12631TIP3   OH259307   1.025   6.001  13.994 -0.0848  0.2755  0.4978
12631TIP3    H159308   0.989   5.926  14.042  0.4788 -0.0619  0.3924
12631TIP3    H259309   0.964   6.014  13.921  0.9353 -1.4278 -0.7202
12632TIP3   OH259310   5.220   1.665   2.958 -0.0655 -0.2217  0.4216
12632TIP3    H159311   5.170   1.668   2.876  2.6082  0.1719 -1.3008
12632TIP3    H259312   5.180   1.593   3.007 -2.6793  0.4508 -0.5349
12633TIP3   OH259313   3.993   5.994   0.151 -0.4330  0.2103 -1.3822
12633TIP3    H159314   3.916   6.043   0.122 -0.4295  0.8633 -0.3192
12633TIP3    H259315   3.974   5.969   0.241 -0.0117 -0.9025 -1.5889
12634TIP3   OH259316   6.139   0.836   4.816  0.2057  0.2876 -0.5064
12634TIP3    H159317   6.076   0.775   4.777  1.1187  0.5056 -2.4726
12634TIP3    H259318   6.221   0.786   4.820  0.2397  0.4145  0.8259
12635TIP3   OH259319   4.510   5.018   0.395  0.2190 -0.7579  0.1529
12635TIP3    H159320   4.558   4.959   0.336 -0.8405 -0.3541 -1.1570
12635TIP3    H259321   4.419   5.012   0.366 -0.3509 -0.5855  1.8123
12636TIP3   OH259322   6.238   5.806  14.999 -0.0133  0.4628 -0.1739
12636TIP3    H159323   6.254   5.898  15.018 -0.8847  0.6181 -0.1338
12636TIP3    H259324   6.156   5.786  15.045  0.2955 -0.3943  0.0173
12637TIP3   OH259325   3.967   0.883   0.690  0.3909  0.6120  0.0685
12637TIP3    H159326   3.899   0.938   0.651  1.3191  0.9506 -1.1176
12637TIP3    H259327   3.958   0.798   0.646  0.0032  0.2892  0.7468
12638TIP3   OH259328   0.888   4.732  11.355 -0.6319  0.5636 -0.0830
12638TIP3    H159329   0.853   4.800  11.298  0.4127  2.2773  1.2303
12638TIP3    H259330   0.977   4.717  11.321 -0.0714  1.4633  0.9240
12639TIP3   OH259331   2.571   4.302   2.074  0.4546  0.3954  0.1685
12639TIP3    H159332   2.591   4.274   1.985 -1.9554  1.4377 -0.7975
12639TIP3    H259333   2.551   4.395   2.066 -1.7167  0.1098  1.4068
12640TIP3   OH259334   6.218   5.852  16.911  0.6919 -0.1142 -0.6845
12640TIP3    H159335   6.144   5.838  16.852  1.6845  0.6053 -2.1670
12640TIP3    H259336   6.293   5.819  16.862  1.5011  0.1698  0.3416
12641TIP3   OH259337   1.555   6.461   2.581  0.6305 -0.1321  0.1574
12641TIP3    H159338   1.573   6.439   2.672  2.6815 -1.0158 -0.4163
12641TIP3    H259339   1.621   6.526   2.558  0.1462  0.0730 -0.6990
12642TIP3   OH259340   6.036   3.414   4.325 -0.5609  0.2437  0.2105
12642TIP3    H159341   6.112   3.385   4.376 -0.4919 -0.0574 -0.0627
12642TIP3    H259342   6.074   3.474   4.260 -0.5787  0.2168  0.1754
12643TIP3   OH259343   4.712   0.855  15.386 -0.1058 -0.1326  0.1782
12643TIP3    H159344   4.803   0.827  15.370  0.0268 -1.2487  2.4218
12643TIP3    H259345   4.659   0.785  15.348  0.1114 -1.0768  1.5109
12644TIP3   OH259346   3.463   1.503   1.281 -0.3866  0.2860  0.2794
12644TIP3    H159347   3.495   1.513   1.191  0.4979 -1.2074  0.4020
12644TIP3    H259348   3.465   1.409   1.298  1.1517  0.6271  2.4376
12645TIP3   OH259349   1.904   1.914  13.525 -0.2101 -0.1426  0.3961
12645TIP3    H159350   1.867   1.984  13.473  0.3712 -0.6068 -0.6704
12645TIP3    H259351   1.866   1.834  13.489  0.0943 -0.4587  0.7657
12646TIP3   OH259352   1.039   3.038  13.249 -0.0486 -0.4885 -0.6983
12646TIP3    H159353   0.953   3.072  13.226 -0.4862 -0.2889  1.1119
12646TIP3    H259354   1.100   3.096  13.204 -0.8451 -0.0844 -1.2756
12647TIP3   OH259355   1.376   1.939   0.849  0.3158  0.3080 -0.2903
12647TIP3    H159356   1.311   2.009   0.863  0.1607  0.1446 -0.1911
12647TIP3    H259357   1.447   1.960   0.910  0.0597  0.1212  0.0737
12648TIP3   OH259358   0.093   6.621  12.877 -0.1955  0.0018 -0.5011
12648TIP3    H159359   0.120   6.540  12.921  2.4546  0.6294 -0.7954
12648TIP3    H259360   0.023   6.656  12.932 -1.2712 -2.3428 -0.2600
12649TIP3   OH259361   5.810   3.175   4.801 -0.2948 -0.1305  0.4642
12649TIP3    H159362   5.785   3.135   4.884  1.5439 -2.3147  0.0395
12649TIP3    H259363   5.732   3.170   4.747 -1.3409  0.8001  1.8132
12650TIP3   OH259364   2.930   2.157   3.836  0.0388  0.3423 -0.6674
12650TIP3    H159365   2.911   2.123   3.749 -2.7180 -1.0247  0.3337
12650TIP3    H259366   2.852   2.208   3.860  0.2373 -0.1977  1.3660
12651TIP3   OH259367   1.244   4.633   5.426  0.0708 -0.4042  0.0096
12651TIP3    H159368   1.170   4.573   5.433  1.7045 -2.5001  0.4663
12651TIP3    H259369   1.244   4.662   5.334 -1.9482  0.5801  0.2840
12652TIP3   OH259370   3.366   4.927   5.181 -0.2291  0.2520  0.7153
12652TIP3    H159371   3.306   4.934   5.256  0.2571 -1.0604  1.2614
12652TIP3    H259372   3.317   4.876   5.116 -0.0767  0.0328  0.7705
12653TIP3   OH259373   4.365   5.552   1.390 -0.3409 -0.7078  0.2556
12653TIP3    H159374   4.415   5.629   1.418 -0.5277 -0.8674  1.0604
12653TIP3    H259375   4.385   5.543   1.297 -0.0561  0.1176  0.2272
12654TIP3   OH259376   2.507   6.193   3.939  0.0294 -0.4198 -0.4041
12654TIP3    H159377   2.558   6.274   3.938  0.1636 -0.5022 -0.2003
12654TIP3    H259378   2.535   6.147   3.860  0.5284 -0.6210 -0.1145
12655TIP3   OH259379   4.215   1.959   3.391 -0.2863  1.2961 -0.5322
12655TIP3    H159380   4.284   1.911   3.345 -0.9163  0.4914 -0.6499
12655TIP3    H259381   4.255   1.984   3.475 -0.0848  0.1754 -0.2838
12656TIP3   OH259382   5.208   4.501   5.590  0.2460  0.4076 -0.2900
12656TIP3    H159383   5.115   4.510   5.570  0.0830  0.4359  0.4649
12656TIP3    H259384   5.240   4.438   5.525 -0.7418 -1.1935  0.7236
12657TIP3   OH259385   6.647   5.215   5.935 -0.1216 -0.1472 -0.0307
12657TIP3    H159386   6.618   5.259   6.015 -0.4608 -0.7321  0.1761
12657TIP3    H259387   6.642   5.122   5.955 -1.5812 -0.3554 -1.1932
12658TIP3   OH259388   1.816   5.392  13.065  0.0757  0.0183 -0.0297
12658TIP3    H159389   1.733   5.410  13.108  0.1667  0.4840 -0.0433
12658TIP3    H259390   1.794   5.387  12.972 -0.1420 -1.1139  0.0682
12659TIP3   OH259391   2.738   2.975  13.338  0.1253 -0.7788  0.5389
12659TIP3    H159392   2.783   2.910  13.392  0.1373 -1.1921  0.0397
12659TIP3    H259393   2.647   2.971  13.366 -0.1202 -1.9023 -0.3186
12660TIP3   OH259394   0.551   0.076  15.982 -0.4875 -0.0406  0.2994
12660TIP3    H159395   0.585   0.115  15.902  0.8191 -2.7860 -0.5783
12660TIP3    H259396   0.626   0.075  16.042 -0.7527 -0.4164  0.6311
12661TIP3   OH259397   0.577   2.731   4.910  0.5938 -0.2384  0.6530
12661TIP3    H159398   0.482   2.739   4.905  0.6273  0.8823  1.2660
12661TIP3    H259399   0.609   2.780   4.835  0.6798 -1.1771  0.0719
12662TIP3   OH259400   4.406   5.036  16.137  0.8017 -0.5772  0.0886
12662TIP3    H159401   4.372   5.124  16.150 -1.5120 -1.5306  1.0608
12662TIP3    H259402   4.419   5.029  16.042  1.7473  1.0138  0.0677
12663TIP3   OH259403   2.401   2.228  13.898 -0.0717  0.0545 -0.5539
12663TIP3    H159404   2.463   2.212  13.826 -0.0521 -0.1658 -0.4888
12663TIP3    H259405   2.392   2.323  13.900  2.5305  0.3732  1.2958
12664TIP3   OH259406   3.642   1.219   0.205 -0.9278  0.7712 -0.1743
12664TIP3    H159407   3.636   1.255   0.117 -1.4097  1.2099  0.0373
12664TIP3    H259408   3.553   1.223   0.239 -0.9915 -0.6014 -0.1346
12665TIP3   OH259409   5.273   0.115   6.135  0.9472 -0.3696 -0.8147
12665TIP3    H159410   5.257   0.062   6.212 -1.8478 -0.1083 -1.1292
12665TIP3    H259411   5.198   0.099   6.078  0.1060  3.5731 -1.1039
12666TIP3   OH259412   5.480   4.718   0.859 -0.0674  0.6438 -0.1381
12666TIP3    H159413   5.466   4.772   0.937 -0.3203 -0.1691  0.3981
12666TIP3    H259414   5.394   4.712   0.818  0.3038  2.1198 -1.2097
12667TIP3   OH259415   4.454   3.750   1.039  0.2824 -0.6547 -0.0697
12667TIP3    H159416   4.473   3.658   1.021 -0.2816 -0.5644 -1.1948
12667TIP3    H259417   4.359   3.757   1.029  0.4247  0.2444 -0.9947
12668TIP3   OH259418   0.322   1.465  11.583  0.0097  0.1822  0.6593
12668TIP3    H159419   0.341   1.442  11.492 -1.8237 -3.8553  1.0942
12668TIP3    H259420   0.406   1.494  11.619  0.7104  2.3610 -2.3039
12669TIP3   OH259421   0.888   6.191  15.490  0.5401  0.1390  0.1528
12669TIP3    H159422   0.828   6.125  15.525  1.0875 -0.4174  0.0431
12669TIP3    H259423   0.952   6.142  15.440  1.0353  0.7429  0.1801
12670TIP3   OH259424   5.198   5.810  16.565 -0.5625  0.2717  0.4351
12670TIP3    H159425   5.224   5.900  16.585  1.7951  0.5166 -2.7980
12670TIP3    H259426   5.107   5.817  16.536 -0.3754  1.6859  0.1004
12671TIP3   OH259427   1.104   4.524  11.095  0.1154 -0.0356  0.0856
12671TIP3    H159428   1.145   4.523  11.008  1.0856  0.2880  0.5278
12671TIP3    H259429   1.163   4.577  11.149 -1.2354  1.0114  0.5857
12672TIP3   OH259430   1.532   0.198   5.533  0.1373  0.2394  0.2509
12672TIP3    H159431   1.534   0.112   5.575 -1.4132 -0.2746 -0.6454
12672TIP3    H259432   1.439   0.220   5.528  0.4146  1.2335 -1.0027
12673TIP3   OH259433   2.371   0.996   4.420 -0.0934  0.7480 -0.3489
12673TIP3    H159434   2.398   0.982   4.329  0.3660  1.9050 -0.4159
12673TIP3    H259435   2.394   0.915   4.465  0.8710  0.6394 -0.9997
12674TIP3   OH259436   3.787   5.779  11.246  0.6719 -0.7117 -0.6683
12674TIP3    H159437   3.734   5.830  11.185  0.6047  0.1781  0.0989
12674TIP3    H259438   3.761   5.689  11.231  0.2497 -0.4522 -1.5547
12675TIP3   OH259439   6.640   5.120   3.232 -0.0338  0.3080 -0.1496
12675TIP3    H159440   6.546   5.137   3.224 -0.0729  0.2799  0.2236
12675TIP3    H259441   6.650   5.081   3.319  0.3472  0.4914 -0.1084
12676TIP3   OH259442   0.702   3.016   4.233 -0.0494 -0.4899  0.6238
12676TIP3    H159443   0.668   2.943   4.181  1.1173  0.9414 -2.4055
12676TIP3    H259444   0.790   2.988   4.259  0.7983  0.1217 -1.4032
12677TIP3   OH259445   6.313   1.172  15.789  0.1706 -0.3201  0.3174
12677TIP3    H159446   6.388   1.127  15.827 -0.2911 -1.6691 -0.3191
12677TIP3    H259447   6.327   1.166  15.694  0.2737  1.2186  0.1982
12678TIP3   OH259448   1.500   2.416  16.277 -0.2415 -0.5463  0.0238
12678TIP3    H159449   1.485   2.428  16.183 -1.2839 -1.5809  0.0334
12678TIP3    H259450   1.465   2.496  16.316 -1.2989 -0.8036 -0.3601
12679TIP3   OH259451   5.499   6.644   0.080  0.3785  0.2089  0.1315
12679TIP3    H159452   5.434   6.637   0.150  0.8537 -0.8092  0.4774
12679TIP3    H259453   5.446   6.643  -0.000 -0.2116  1.9380  0.4424
12680TIP3   OH259454   4.061   1.286   0.738 -0.1297  0.1408  0.6249
12680TIP3    H159455   3.985   1.249   0.784 -0.3161  0.7651  0.8315
12680TIP3    H259456   4.069   1.232   0.659 -0.7108 -0.0176  0.6666
12681TIP3   OH259457   5.443   0.689   1.398  0.3050 -0.3645 -0.1616
12681TIP3    H159458   5.526   0.697   1.444  0.4768 -1.2615 -0.3114
12681TIP3    H259459   5.453   0.745   1.321  0.6565 -0.2368 -0.0254
12682TIP3   OH259460   3.006   3.784  14.144 -0.2522 -0.0442  0.2674
12682TIP3    H159461   2.934   3.809  14.087  0.2001  0.1129 -0.2430
12682TIP3    H259462   3.060   3.725  14.091  1.4997  2.0019 -0.3666
12683TIP3   OH259463   1.122   1.401   5.645  0.1144 -0.1558 -0.0205
12683TIP3    H159464   1.213   1.421   5.668 -0.0236  1.9214 -1.0763
12683TIP3    H259465   1.117   1.417   5.551 -1.6552  1.1550  0.2476
12684TIP3   OH259466   2.855   1.491   2.946  0.3718 -0.8833  0.5699
12684TIP3    H159467   2.942   1.476   2.982  0.6164  1.1144  0.9020
12684TIP3    H259468   2.869   1.550   2.872 -0.6577 -0.8228  0.4068
12685TIP3   OH259469   5.378   2.252   3.068 -0.3508 -0.4605 -0.3054
12685TIP3    H159470   5.338   2.166   3.076 -0.0441 -0.5904 -0.1479
12685TIP3    H259471   5.400   2.277   3.157  3.0177 -1.8851 -0.5783
12686TIP3   OH259472   5.631   5.880  16.461  0.5929  0.4496  0.1388
12686TIP3    H159473   5.609   5.787  16.461  2.5656 -0.1192  2.3799
12686TIP3    H259474   5.586   5.916  16.537  0.4484  1.1719 -0.2767
12687TIP3   OH259475   5.446   1.738  15.859 -0.2817  0.2098 -0.3059
12687TIP3    H159476   5.509   1.739  15.787  1.8136 -1.8660  1.3382
12687TIP3    H259477   5.451   1.826  15.896  1.1643  0.3042 -0.6552
12688TIP3   OH259478   4.363   4.496   1.909  0.6971  0.3999  0.0492
12688TIP3    H159479   4.405   4.466   1.829  0.7891 -0.3114  0.3627
12688TIP3    H259480   4.434   4.534   1.961  0.5078  1.6324 -0.5431
12689TIP3   OH259481   0.109   1.938  12.935 -0.4780  0.1130 -0.0033
12689TIP3    H159482   0.141   1.997  13.003  0.2712  0.3112 -0.5187
12689TIP3    H259483   0.179   1.936  12.870 -0.0881 -1.9934  0.3841
12690TIP3   OH259484   1.673   4.704  14.023  0.5676 -0.6989  0.9178
12690TIP3    H159485   1.714   4.648  14.089  0.6734 -0.3671  1.1373
12690TIP3    H259486   1.623   4.644  13.968  0.7148 -1.0129  1.1253
12691TIP3   OH259487   5.576   3.338  13.130  0.1986 -0.3689  0.8282
12691TIP3    H159488   5.483   3.356  13.144 -0.1307 -1.8430  0.7705
12691TIP3    H259489   5.604   3.292  13.209  0.6944 -0.5460  0.5585
12692TIP3   OH259490   5.150   4.884  14.891  0.8539 -0.2380  0.6892
12692TIP3    H159491   5.172   4.969  14.853 -0.7317  0.0236  0.2893
12692TIP3    H259492   5.144   4.901  14.985  0.1717  0.1927  0.5740
12693TIP3   OH259493   3.534   1.711   1.442 -0.1464  1.0266 -0.5113
12693TIP3    H159494   3.490   1.652   1.381 -0.6490  1.3198 -0.4440
12693TIP3    H259495   3.496   1.797   1.423 -0.5024  1.0804  0.3821
12694TIP3   OH259496   5.891   6.536   3.594  0.6447 -0.2823  0.1590
12694TIP3    H159497   5.835   6.461   3.611 -0.8166  1.0577  1.6308
12694TIP3    H259498   5.833   6.603   3.558  1.5752  0.6518  0.3072
12695TIP3   OH259499   0.096   0.814  12.183  0.4444  0.7294 -0.0016
12695TIP3    H159500   0.023   0.769  12.141  0.1273  1.6319 -0.4422
12695TIP3    H259501   0.102   0.774  12.270 -1.4765  1.5505  0.5734
12696TIP3   OH259502   1.374   5.975   2.279 -0.0156  0.1415 -0.3110
12696TIP3    H159503   1.345   6.042   2.342 -1.5441 -1.2755  0.5776
12696TIP3    H259504   1.339   6.004   2.195 -3.9889 -1.2701  0.6410
12697TIP3   OH259505   3.650   3.215  12.326  0.3407 -0.1257 -0.3030
12697TIP3    H159506   3.650   3.310  12.337  3.0365 -0.0782 -0.0837
12697TIP3    H259507   3.594   3.200  12.250  0.3984  1.6975 -0.7591
12698TIP3   OH259508   5.047   1.752  16.220  0.5604 -0.1698  0.4182
12698TIP3    H159509   5.009   1.831  16.258 -0.9125 -0.4090 -0.4672
12698TIP3    H259510   5.011   1.681  16.273  2.0156 -0.2741  1.3192
12699TIP3   OH259511   2.437   4.998   4.275  0.6021  0.4283  0.2069
12699TIP3    H159512   2.455   5.034   4.361 -1.5127 -2.2952  1.9785
12699TIP3    H259513   2.343   4.982   4.274  0.4975  0.5238 -2.7271
12700TIP3   OH259514   6.571   0.871  12.502  0.2168  0.6247  0.5084
12700TIP3    H159515   6.644   0.851  12.561  0.6048  0.9957  0.1618
12700TIP3    H259516   6.552   0.789  12.458  0.0806  0.4009  0.9748
12701TIP3   OH259517   4.508   3.796  14.397 -0.6408  0.5249  0.1621
12701TIP3    H159518   4.476   3.886  14.394 -1.1884  0.3680  0.9759
12701TIP3    H259519   4.454   3.753  14.464  0.5352 -0.0489  0.7777
12702TIP3   OH259520   5.588   5.492  14.350 -0.8300 -0.4557 -0.8480
12702TIP3    H159521   5.526   5.556  14.317 -0.6776  0.2983  0.2797
12702TIP3    H259522   5.614   5.526  14.435  0.3933 -1.2586 -0.8830
12703TIP3   OH259523   1.093   5.668  14.954 -0.2217 -0.7173 -0.6790
12703TIP3    H159524   1.128   5.757  14.952 -0.0427 -0.7328  0.7976
12703TIP3    H259525   1.004   5.676  14.920 -0.2592  0.0610 -0.4064
12704TIP3   OH259526   3.310   1.765  13.215  0.2457  0.3991 -0.5337
12704TIP3    H159527   3.290   1.845  13.166 -1.7293  0.0581 -0.3628
12704TIP3    H259528   3.403   1.773  13.237  0.7595  1.4019 -2.7773
12705TIP3   OH259529   0.029   6.204  14.741 -0.3023  0.0014  0.0068
12705TIP3    H159530   0.071   6.164  14.817  1.0911  0.1658 -0.6535
12705TIP3    H259531  -0.012   6.284  14.776 -0.8465 -0.6087  0.8203
12706TIP3   OH259532   0.522   5.140   6.073 -0.6943  0.1611 -0.3160
12706TIP3    H159533   0.609   5.099   6.070 -0.7197 -0.0144  0.8772
12706TIP3    H259534   0.467   5.083   6.020 -1.0597 -2.2435  2.3876
12707TIP3   OH259535   6.772   1.181   1.669  0.5565 -0.0568 -0.0498
12707TIP3    H159536   6.800   1.240   1.739 -0.3604  2.0392 -1.3497
12707TIP3    H259537   6.694   1.138   1.703  1.6368 -1.1495  1.1873
12708TIP3   OH259538   4.186   1.517  13.840 -0.2356 -0.1448  0.4140
12708TIP3    H159539   4.161   1.608  13.825 -0.7472 -0.1365  1.2840
12708TIP3    H259540   4.212   1.485  13.753 -2.1437  0.1837 -0.3285
12709TIP3   OH259541   2.688   1.630  12.743 -0.1741  0.1856 -0.1545
12709TIP3    H159542   2.653   1.556  12.692 -1.4962  0.9622 -0.4221
12709TIP3    H259543   2.713   1.591  12.827  1.3299 -0.9787 -1.0927
12710TIP3   OH259544   4.624   2.141   4.921  0.1136 -0.0177  0.2341
12710TIP3    H159545   4.647   2.223   4.964 -0.6489  0.0467  0.5342
12710TIP3    H259546   4.601   2.166   4.832  1.6847 -0.1497 -0.2346
12711TIP3   OH259547   2.491   6.632  15.256  0.0404  0.1638  0.8876
12711TIP3    H159548   2.492   6.536  15.259  1.8771  0.1185  0.3904
12711TIP3    H259549   2.426   6.654  15.189 -0.1795 -0.7424  0.7920
12712TIP3   OH259550   2.745   2.102  11.867  0.2024  0.3959 -0.5311
12712TIP3    H159551   2.746   2.139  11.955 -0.6536  0.5549 -0.5872
12712TIP3    H259552   2.690   2.024  11.874  0.2986  0.2956 -0.8836
12713TIP3   OH259553   1.992   6.738   3.383 -0.1378  0.3335 -0.2929
12713TIP3    H159554   2.035   6.816   3.348 -0.2818  0.5529  0.0133
12713TIP3    H259555   1.907   6.770   3.415  0.4361  0.3556  1.2736
12714TIP3   OH259556   5.454   2.461  14.078 -0.2851  0.2227  0.2747
12714TIP3    H159557   5.438   2.377  14.035  0.8289  1.0170 -1.8291
12714TIP3    H259558   5.376   2.513  14.059 -0.1149  0.3217 -0.1633
12715TIP3   OH259559   5.980   1.239  16.233 -0.1145 -0.3555 -0.0899
12715TIP3    H159560   5.958   1.271  16.320  1.9619 -0.6895  0.5943
12715TIP3    H259561   5.968   1.315  16.176  0.6290  0.4828  0.8429
12716TIP3   OH259562   1.755   5.093   4.804 -0.0720  0.2252  0.4066
12716TIP3    H159563   1.780   5.002   4.790  1.4561  1.0657 -4.0454
12716TIP3    H259564   1.662   5.096   4.783  0.5717  0.0674 -3.0053
12717TIP3   OH259565   5.013   2.076  14.725 -0.0711  0.1637 -0.4605
12717TIP3    H159566   5.097   2.033  14.712 -0.7323 -1.0761 -0.8118
12717TIP3    H259567   5.019   2.114  14.813  1.0695  0.6423 -0.7269
12718TIP3   OH259568   5.591   5.288  16.044  0.2541  0.1850 -0.2978
12718TIP3    H159569   5.609   5.211  16.098  2.6187  2.0380  1.8217
12718TIP3    H259570   5.544   5.254  15.968  0.3314 -3.1663  0.9905
12719TIP3   OH259571   0.540   6.247   4.231 -0.5057  0.0001  0.0286
12719TIP3    H159572   0.488   6.327   4.222 -1.2128 -0.5391 -0.8601
12719TIP3    H259573   0.541   6.209   4.143  0.1447 -0.7708  0.3569
12720TIP3   OH259574   2.026   2.613  12.640 -0.2684 -0.6354 -0.0746
12720TIP3    H159575   2.070   2.595  12.557 -1.3460 -0.2501 -0.7574
12720TIP3    H259576   1.933   2.597  12.622 -1.3467  4.4206 -0.5573
12721TIP3   OH259577   0.447   5.472   2.525  0.3670  0.4625 -0.5535
12721TIP3    H159578   0.405   5.395   2.562 -0.3752  1.5299  0.9529
12721TIP3    H259579   0.539   5.465   2.550 -0.0256  0.9119  1.1892
12722TIP3   OH259580   2.626   3.977   4.376  0.1175  0.4083  0.5788
12722TIP3    H159581   2.664   3.927   4.448  0.6409 -2.2909 -1.4331
12722TIP3    H259582   2.674   4.060   4.377  0.5531  0.2070  2.8838
12723TIP3   OH259583   1.686   1.327  13.100  0.3734 -0.0150  0.0034
12723TIP3    H159584   1.629   1.267  13.051 -0.1988  0.1157  0.4913
12723TIP3    H259585   1.631   1.358  13.171  1.1083  0.0209  0.5603
12724TIP3   OH259586   5.371   5.964   1.804  0.4741  0.7991 -0.2068
12724TIP3    H159587   5.435   5.916   1.751 -0.2450 -0.1371 -0.2527
12724TIP3    H259588   5.421   5.994   1.880  1.6054  2.4752 -1.5266
12725TIP3   OH259589   1.815   6.036   3.716  0.3944 -0.8880 -0.7576
12725TIP3    H159590   1.798   5.963   3.775  0.6287  1.7567  2.9482
12725TIP3    H259591   1.729   6.073   3.699  0.5150 -0.1901  0.0730
12726TIP3   OH259592   2.002   4.509   0.071  0.7668 -0.3547  0.5077
12726TIP3    H159593   1.909   4.490   0.081 -0.1852  3.4958  0.6711
12726TIP3    H259594   2.037   4.434   0.023 -2.2091 -2.3091  1.1022
12727TIP3   OH259595   2.871   2.065   2.420  0.9240 -0.3429 -0.9762
12727TIP3    H159596   2.831   2.141   2.462  0.8836 -1.0474  0.3262
12727TIP3    H259597   2.802   2.028   2.365  0.1081 -0.8556  0.3274
12728TIP3   OH259598   5.459   2.847  13.395  0.0672  0.2037  0.2056
12728TIP3    H159599   5.380   2.804  13.426 -1.2667  3.9546  2.7646
12728TIP3    H259600   5.443   2.864  13.302 -0.9494 -1.3516  0.0670
12729TIP3   OH259601   6.531   2.015   5.471  0.6478  0.1947 -0.0970
12729TIP3    H159602   6.485   1.967   5.541 -1.1502 -2.3081 -2.7407
12729TIP3    H259603   6.478   2.093   5.457 -0.7525 -0.7954 -0.5941
12730TIP3   OH259604   4.165   3.452   3.850  0.2527 -0.2241 -0.3265
12730TIP3    H159605   4.142   3.416   3.764  2.0746 -0.1354 -0.8897
12730TIP3    H259606   4.234   3.394   3.882  0.1953  0.2578  0.7048
12731TIP3   OH259607   2.824   2.288  16.635 -0.0394 -0.0993  0.3985
12731TIP3    H159608   2.750   2.227  16.632  1.9496 -2.7008  0.4194
12731TIP3    H259609   2.857   2.289  16.545  0.6451  0.0480  0.6473
12732TIP3   OH259610   6.557   1.110   0.140 -0.1174 -0.8938  0.4584
12732TIP3    H159611   6.584   1.139   0.053 -1.1334 -1.5897 -0.1137
12732TIP3    H259612   6.610   1.032   0.157  2.9401  1.3477  2.1854
12733TIP3   OH259613   4.566   5.340  15.195 -0.3523 -0.0977  0.3514
12733TIP3    H159614   4.528   5.424  15.168  0.8812  0.0160 -1.1105
12733TIP3    H259615   4.497   5.276  15.177 -0.7320  0.3973  0.0107
12734TIP3   OH259616   3.872   4.729  15.161 -0.1844  0.3691 -0.3435
12734TIP3    H159617   3.941   4.744  15.225 -1.8539 -1.7732  2.1476
12734TIP3    H259618   3.913   4.749  15.077  2.9072  0.7953  1.1280
12735TIP3   OH259619   0.775   0.991  13.745  0.2030  0.2633  0.0637
12735TIP3    H159620   0.783   0.958  13.655 -0.4730  1.5511 -0.4955
12735TIP3    H259621   0.727   1.073  13.736 -1.7989 -0.6120  1.8281
12736TIP3   OH259622   2.182   2.139  14.523  0.5635  0.0417  0.2064
12736TIP3    H159623   2.257   2.120  14.579 -0.5731 -1.1926  1.3794
12736TIP3    H259624   2.205   2.221  14.478  2.6368 -0.3792  0.4241
12737TIP3   OH259625   4.703   3.800   4.266  0.9573  0.5422  0.2214
12737TIP3    H159626   4.743   3.865   4.209  3.5807 -0.4206  0.8062
12737TIP3    H259627   4.672   3.851   4.341 -1.9014  1.7175 -1.5907
12738TIP3   OH259628   3.834   2.688  16.762  0.7341 -0.4618 -0.3965
12738TIP3    H159629   3.898   2.759  16.770  2.4960 -1.6856 -2.5808
12738TIP3    H259630   3.885   2.614  16.730 -1.0605 -2.7394  1.6705
12739TIP3   OH259631   2.746   3.238  11.454 -0.6619  0.1671  0.0888
12739TIP3    H159632   2.698   3.213  11.375 -0.9677  0.8996  0.0288
12739TIP3    H259633   2.760   3.332  11.444  0.1785  0.0868  0.4448
12740TIP3   OH259634   4.024   3.985  12.444 -0.1401  0.0668  0.1070
12740TIP3    H159635   3.995   4.025  12.526 -0.5951  1.1753 -0.5555
12740TIP3    H259636   4.101   4.036  12.419  0.8017 -1.1330  0.5094
12741TIP3   OH259637   0.816   2.509  12.699 -0.4050  0.3075 -0.2529
12741TIP3    H159638   0.756   2.582  12.715 -0.7488  0.1389 -0.7466
12741TIP3    H259639   0.766   2.431  12.726 -0.2925  0.1925 -0.3776
12742TIP3   OH259640   4.463   4.512   6.359 -0.6007 -0.2873 -0.1444
12742TIP3    H159641   4.463   4.433   6.413  0.2937  0.8988  1.7043
12742TIP3    H259642   4.540   4.561   6.389 -1.5754  1.6491 -0.6494
12743TIP3   OH259643   4.571   4.830  11.337  0.6224 -0.7250  0.1695
12743TIP3    H159644   4.606   4.918  11.324  2.2801 -1.5129 -1.0946
12743TIP3    H259645   4.563   4.794  11.249  0.5540 -2.0584  0.6981
12744TIP3   OH259646   3.044   1.145  16.698  0.2824  0.1222  0.0063
12744TIP3    H159647   2.966   1.146  16.754  0.2381 -2.9370  0.1681
12744TIP3    H259648   3.010   1.133  16.609  0.4867  2.1475 -0.3943
12745TIP3   OH259649   2.069   1.845   1.281  0.0664  0.0381 -0.0617
12745TIP3    H159650   2.146   1.901   1.273 -0.8550  1.0722 -2.8615
12745TIP3    H259651   2.028   1.871   1.364  2.0612  0.2675  0.8979
12746TIP3   OH259652   5.407   5.496   6.171 -0.4559 -0.2779  0.5195
12746TIP3    H159653   5.453   5.481   6.254 -1.2299  0.6187  1.1356
12746TIP3    H259654   5.360   5.414   6.154 -0.2198 -0.5005  0.9210
12747TIP3   OH259655   1.549   6.513   1.311 -0.4545  0.3717  0.6528
12747TIP3    H159656   1.474   6.486   1.257  1.3092 -2.3094 -0.6603
12747TIP3    H259657   1.615   6.540   1.247 -0.1055  2.4593  1.7867
12748TIP3   OH259658   5.626   1.657  12.030 -0.1603  0.1566 -0.5957
12748TIP3    H159659   5.636   1.631  12.121  0.5313  0.8429 -0.4592
12748TIP3    H259660   5.709   1.701  12.009 -0.0826 -0.4967 -1.7279
12749TIP3   OH259661   6.348   5.875  11.407 -0.2035  0.3315  0.8128
12749TIP3    H159662   6.302   5.796  11.436 -0.3940  0.3772  0.6368
12749TIP3    H259663   6.426   5.842  11.361 -1.0191  0.1959 -0.5381
12750TIP3   OH259664   5.626   3.652   5.948 -0.2936 -0.1430 -0.4638
12750TIP3    H159665   5.659   3.610   6.027  1.0009  1.8891  0.1476
12750TIP3    H259666   5.685   3.622   5.878 -1.0361 -1.4098 -0.5871
12751TIP3   OH259667   6.416   0.711  14.398  0.2665  0.1721 -0.0195
12751TIP3    H159668   6.346   0.772  14.421  0.5836  0.2944  0.6447
12751TIP3    H259669   6.406   0.698  14.303 -0.5766  0.2740  0.0457
12752TIP3   OH259670   0.469   4.700   4.689  0.0113 -0.1000  0.3375
12752TIP3    H159671   0.405   4.657   4.632 -0.6118 -0.0122  0.9471
12752TIP3    H259672   0.553   4.685   4.647 -0.6358  2.1698 -2.0476
12753TIP3   OH259673   3.827   1.287  17.236 -0.3114 -0.8165 -0.3196
12753TIP3    H159674   3.851   1.377  17.258  1.1862 -0.5975 -2.5856
12753TIP3    H259675   3.800   1.290  17.144 -1.6403 -2.4622 -0.0501
12754TIP3   OH259676   1.977   4.473   1.416 -0.8226  0.6123  0.2330
12754TIP3    H159677   2.071   4.456   1.411 -0.7516  1.2418 -1.0181
12754TIP3    H259678   1.941   4.424   1.342 -1.4419  0.6231  0.5276
12755TIP3   OH259679   1.430   6.244  11.123 -0.0311 -0.2963  0.0667
12755TIP3    H159680   1.395   6.279  11.205  0.6097  0.0732  0.1930
12755TIP3    H259681   1.483   6.316  11.088 -0.4082 -0.4082 -0.7389
12756TIP3   OH259682   5.476   0.431  11.359 -0.1194 -0.5027  0.5647
12756TIP3    H159683   5.538   0.421  11.432  0.4941  0.1068  0.1394
12756TIP3    H259684   5.431   0.347  11.355  0.6445 -0.9459  0.9242
12757TIP3   OH259685   4.142   5.605  11.294  0.0214 -0.1544  0.0704
12757TIP3    H159686   4.070   5.568  11.243 -0.2288 -0.7520  0.8303
12757TIP3    H259687   4.169   5.683  11.245 -1.4703  0.3643  0.0146
12758TIP3   OH259688   4.680   0.173   5.974  0.6898 -0.2149  0.1053
12758TIP3    H159689   4.616   0.234   6.009  0.1678 -0.4050 -0.5031
12758TIP3    H259690   4.708   0.121   6.049 -0.2686 -0.4845  0.2788
12759TIP3   OH259691   0.241   4.077  11.666 -0.0138  0.0857 -0.6540
12759TIP3    H159692   0.319   4.107  11.619 -0.9132 -1.6581 -3.5547
12759TIP3    H259693   0.168   4.119  11.620 -0.8899  0.2912  0.8627
12760TIP3   OH259694   3.501   3.423  12.838  0.0369 -0.0992  0.5510
12760TIP3    H159695   3.427   3.369  12.811  0.4571  0.2519 -1.4236
12760TIP3    H259696   3.491   3.432  12.933 -0.6928 -2.6365  0.7811
12761TIP3   OH259697   3.296   4.861  14.640 -0.6224 -0.0854 -0.3118
12761TIP3    H159698   3.233   4.921  14.680  0.9876  0.3475  1.7686
12761TIP3    H259699   3.335   4.814  14.714  2.0452  0.2790 -1.3490
12762TIP3   OH259700   3.402   5.104  17.233  0.5536 -0.8519 -0.2583
12762TIP3    H159701   3.433   5.069  17.149  2.0976 -0.6672  0.2127
12762TIP3    H259702   3.450   5.186  17.244  0.9530 -1.2507  1.1616
12763TIP3   OH259703   0.481   6.679   3.511 -0.0987 -0.0872 -1.0031
12763TIP3    H159704   0.401   6.627   3.518 -0.0091 -0.0269  1.1846
12763TIP3    H259705   0.452   6.764   3.477 -1.4649  0.7876  2.0163
12764TIP3   OH259706   5.829   0.812  14.723 -0.5577  0.4076 -0.2337
12764TIP3    H159707   5.818   0.745  14.655 -2.2549  1.0211 -0.6092
12764TIP3    H259708   5.886   0.878  14.682 -0.0293 -0.1171 -0.3621
12765TIP3   OH259709   2.802   1.942   5.336  0.1049  0.2718  0.4266
12765TIP3    H159710   2.816   1.895   5.254  0.2740  0.2736  0.4540
12765TIP3    H259711   2.773   2.029   5.308 -1.2669 -0.1675  0.3859
12766TIP3   OH259712   3.014   5.487  15.377 -0.4326 -0.3793 -0.1610
12766TIP3    H159713   3.077   5.416  15.393 -0.4090 -0.4182 -0.4273
12766TIP3    H259714   2.944   5.471  15.441 -0.2878 -0.4732 -0.0242
12767TIP3   OH259715   0.373   4.000  16.891 -0.3106  0.2504 -0.7748
12767TIP3    H159716   0.360   4.067  16.824  1.4130 -1.4786 -3.0019
12767TIP3    H259717   0.338   3.920  16.852 -1.2028 -0.4593  1.3111
12768TIP3   OH259718   3.235   5.733   0.949  0.7400 -0.2930  0.5737
12768TIP3    H159719   3.306   5.796   0.963  0.4667  0.4512 -1.1519
12768TIP3    H259720   3.222   5.732   0.855 -2.5529  0.7447  0.8758
12769TIP3   OH259721   4.008   2.502  15.419 -0.2970 -0.3633 -0.2863
12769TIP3    H159722   3.961   2.585  15.411 -2.2776 -1.3179  0.8734
12769TIP3    H259723   4.063   2.513  15.496 -0.2071  0.0232 -0.4008
12770TIP3   OH259724   3.803   3.924   2.102 -0.1395 -0.0726  1.0775
12770TIP3    H159725   3.709   3.904   2.103 -0.4579  1.2758  0.8593
12770TIP3    H259726   3.806   4.020   2.099  1.2375 -0.1227 -1.1299
12771TIP3   OH259727   6.201   6.437  14.248 -0.0222 -0.1273  0.2229
12771TIP3    H159728   6.209   6.342  14.239  1.4973 -0.1238  1.1561
12771TIP3    H259729   6.243   6.472  14.170 -0.1897 -0.2194  0.0915
12772TIP3   OH259730   4.806   1.226  16.477  0.2344  0.1498 -0.0583
12772TIP3    H159731   4.869   1.272  16.422  1.5271 -0.9852  0.4405
12772TIP3    H259732   4.820   1.262  16.565 -0.1247  0.2072 -0.0212
12773TIP3   OH259733   5.999   4.463  13.178 -0.5025 -0.5496  0.2867
12773TIP3    H159734   5.994   4.438  13.271 -0.4845 -3.9380 -0.4796
12773TIP3    H259735   6.069   4.408  13.143 -1.1350 -0.0231 -1.9382
12774TIP3   OH259736   0.859   5.531   3.061 -0.2323  0.2738 -0.0948
12774TIP3    H159737   0.832   5.475   2.988  0.4879 -0.8775  0.4792
12774TIP3    H259738   0.867   5.618   3.023 -1.5071  0.0206 -0.9959
12775TIP3   OH259739   4.402   0.853  15.960 -0.1309  0.6533  0.0943
12775TIP3    H159740   4.484   0.818  15.925 -0.7633 -0.5574 -0.2401
12775TIP3    H259741   4.338   0.838  15.890 -1.2561 -1.0899  1.3947
12776TIP3   OH259742   1.060   1.189  13.479 -0.0419 -0.2503  0.3153
12776TIP3    H159743   1.123   1.246  13.434 -1.1743  0.0372 -0.9779
12776TIP3    H259744   0.986   1.184  13.419 -1.1966 -0.6983  1.7354
12777TIP3   OH259745   5.247   5.635   0.831 -0.0208  0.1271  0.0501
12777TIP3    H159746   5.235   5.729   0.838  1.3608  0.3127  0.2509
12777TIP3    H259747   5.175   5.597   0.880 -0.2289  1.0959  0.5056
12778TIP3   OH259748   0.564   2.748   0.909  0.7690 -0.0596  0.1145
12778TIP3    H159749   0.501   2.773   0.976 -0.3823 -0.3871 -0.8082
12778TIP3    H259750   0.611   2.673   0.946  0.2273 -0.1657  0.5889
12779TIP3   OH259751   1.267   5.447   5.042 -0.5563 -0.3255  0.3567
12779TIP3    H159752   1.227   5.454   5.129  1.2938  0.1984  1.1972
12779TIP3    H259753   1.227   5.518   4.992 -1.6161 -0.6081  0.7734
12780TIP3   OH259754   0.064   0.963   4.943  0.2207 -0.0138 -0.2393
12780TIP3    H159755  -0.004   0.996   4.884  0.9452  1.5704 -0.2341
12780TIP3    H259756   0.028   0.977   5.031 -0.5772 -1.7618 -0.2381
12781TIP3   OH259757   0.887   0.039  14.310  0.3400 -0.2758  0.0989
12781TIP3    H159758   0.876   0.134  14.315  1.6285 -0.1666  1.4378
12781TIP3    H259759   0.806   0.008  14.270 -0.0460  1.3927 -0.5015
12782TIP3   OH259760   5.208   5.359   0.350  0.2544 -0.1909  0.6954
12782TIP3    H159761   5.141   5.292   0.342 -0.0474  0.0885  0.8677
12782TIP3    H259762   5.189   5.403   0.433  1.5710 -1.1087  1.5217
12783TIP3   OH259763   3.098   1.157   2.229 -0.2030  0.3072  0.2577
12783TIP3    H159764   3.143   1.131   2.149  0.1039 -0.1766  0.5782
12783TIP3    H259765   3.006   1.132   2.214 -0.5769  2.1275 -0.7519
12784TIP3   OH259766   5.528   5.553   3.308  0.1013 -0.1344 -0.5178
12784TIP3    H159767   5.569   5.598   3.234  0.3684 -0.7959 -0.7846
12784TIP3    H259768   5.484   5.477   3.268 -0.1689 -0.2225 -0.0562
12785TIP3   OH259769   4.906   5.466   5.145  0.3642  0.4141  0.6318
12785TIP3    H159770   4.967   5.394   5.164  2.3757  1.9773  0.3643
12785TIP3    H259771   4.838   5.456   5.212 -1.6780 -4.0152 -1.6596
12786TIP3   OH259772   3.157   1.421   3.081 -0.1276  0.2615 -0.1229
12786TIP3    H159773   3.226   1.356   3.071 -0.3235 -0.1565  1.0459
12786TIP3    H259774   3.193   1.486   3.142 -1.9105 -1.7907  3.4195
12787TIP3   OH259775   1.874   0.648  16.788 -0.3225  0.1593  0.3165
12787TIP3    H159776   1.931   0.724  16.794 -1.2626  0.9217 -0.1312
12787TIP3    H259777   1.786   0.684  16.772 -0.7472 -1.0155 -0.1618
12788TIP3   OH259778   1.710   3.250   3.801  0.2376 -0.3957 -0.4680
12788TIP3    H159779   1.640   3.245   3.866 -0.2442  1.0563 -0.8347
12788TIP3    H259780   1.692   3.331   3.752  3.0730  0.9328  0.4676
12789TIP3   OH259781   2.513   3.026   1.681 -0.4606  0.3048 -0.3660
12789TIP3    H159782   2.479   3.085   1.614  0.8420  0.9828 -0.4604
12789TIP3    H259783   2.475   3.060   1.763 -0.3907  0.7567 -0.5173
12790TIP3   OH259784   3.137   5.163  12.371 -0.2484 -0.3007  0.1790
12790TIP3    H159785   3.211   5.111  12.402  0.0718  1.4298  2.6380
12790TIP3    H259786   3.120   5.225  12.442 -1.3178  2.1990 -2.0904
12791TIP3   OH259787   0.560   6.023   6.129  0.7276 -0.6369 -0.9332
12791TIP3    H159788   0.596   5.936   6.148 -0.6015 -0.8829  0.6005
12791TIP3    H259789   0.637   6.080   6.126  1.6775 -1.8999 -2.4241
12792TIP3   OH259790   6.695   4.811  15.679  0.1421 -0.2054  0.0735
12792TIP3    H159791   6.742   4.790  15.760 -0.0668  2.4537  0.9929
12792TIP3    H259792   6.612   4.848  15.709  0.2286  1.2276 -1.3240
12793TIP3   OH259793   1.789   3.808   2.879  0.2390 -0.6225  0.0463
12793TIP3    H159794   1.761   3.760   2.956  2.2294 -1.7658  0.1097
12793TIP3    H259795   1.876   3.774   2.858  0.1876  0.3544 -2.1176
12794TIP3   OH259796   3.661   0.170  13.663 -0.2236 -0.1108 -0.6449
12794TIP3    H159797   3.614   0.102  13.614 -1.0951 -0.0329  0.0594
12794TIP3    H259798   3.707   0.220  13.596  1.3192 -2.0347 -1.1220
12795TIP3   OH259799   4.093   3.739  13.614  0.7926  0.4001  0.4192
12795TIP3    H159800   4.159   3.807  13.600 -0.9063  2.1240  0.3382
12795TIP3    H259801   4.097   3.686  13.534  1.3896  1.0995 -0.0374
12796TIP3   OH259802   1.582   0.376  15.956 -0.0125  0.0786 -0.2128
12796TIP3    H159803   1.552   0.287  15.971 -0.2347  0.1607 -0.1594
12796TIP3    H259804   1.555   0.424  16.034  1.9160 -0.2363  0.7220
12797TIP3   OH259805   3.650   6.458  13.899 -0.4767 -0.5050  0.8375
12797TIP3    H159806   3.679   6.488  13.813 -0.0729  0.1952  1.2042
12797TIP3    H259807   3.716   6.492  13.959  0.4229 -2.7718  1.2280
12798TIP3   OH259808   4.862   5.318  15.196  0.4446 -0.8334 -0.2265
12798TIP3    H159809   4.771   5.346  15.206  0.9932  1.7397 -1.6588
12798TIP3    H259810   4.909   5.364  15.266  0.8160 -1.3086 -0.1583
12799TIP3   OH259811   3.712   4.242  14.373 -0.1641 -0.6329 -0.4512
12799TIP3    H159812   3.744   4.235  14.283 -0.3398  2.3849 -0.8608
12799TIP3    H259813   3.619   4.264  14.363  0.2057  1.5195  0.3412
12800TIP3   OH259814   5.813   4.694  15.299  0.1107 -0.2544 -0.6032
12800TIP3    H159815   5.889   4.724  15.349 -0.1887 -1.3718  0.5657
12800TIP3    H259816   5.832   4.721  15.209  0.4124  2.2958  0.1452
12801TIP3   OH259817   1.837   1.488   0.428 -1.0242 -0.2924 -0.3984
12801TIP3    H159818   1.855   1.395   0.442 -0.5159 -0.1664 -0.1827
12801TIP3    H259819   1.924   1.529   0.430 -1.1873  0.0928 -1.2084
12802TIP3   OH259820   1.627   1.670  12.018  0.2244 -0.2691 -0.5784
12802TIP3    H159821   1.721   1.652  12.008  0.1851 -0.3206 -0.8761
12802TIP3    H259822   1.617   1.698  12.109  0.9662  2.3231 -1.1914
12803TIP3   OH259823   5.102   0.994   4.182  0.5722  0.0918 -0.0701
12803TIP3    H159824   5.051   1.038   4.114 -0.7881 -1.7634 -0.3056
12803TIP3    H259825   5.046   0.998   4.260  0.6861 -0.6949  0.0542
12804TIP3   OH259826   4.006   1.041   4.778  0.1654 -0.0376 -0.1782
12804TIP3    H159827   4.083   0.995   4.744 -0.2354 -0.9172  0.0893
12804TIP3    H259828   4.029   1.065   4.868  1.0858  1.9676 -0.8878
12805TIP3   OH259829   4.845   2.144  15.474  0.7144 -0.8517 -0.6170
12805TIP3    H159830   4.863   2.109  15.387 -1.0018  1.3422 -1.9487
12805TIP3    H259831   4.750   2.153  15.478  0.8784  1.0121  0.6614
12806TIP3   OH259832   3.881   5.852  10.935  0.4295  0.1729 -0.2291
12806TIP3    H159833   3.889   5.943  10.963 -0.1912  0.3297 -0.5330
12806TIP3    H259834   3.790   5.829  10.952 -0.5227  0.8241 -3.5779
12807TIP3   OH259835   5.730   1.403   2.100 -0.1499 -0.5375 -0.0113
12807TIP3    H159836   5.758   1.435   2.014 -0.3762  2.8105  1.0061
12807TIP3    H259837   5.811   1.380   2.144  0.3450  1.1867  0.0588
12808TIP3   OH259838   4.941   5.934   1.360 -0.0355  0.5572  0.7189
12808TIP3    H159839   4.933   5.939   1.455 -1.9665  0.0334  0.6164
12808TIP3    H259840   4.889   5.858   1.335  1.9328 -0.4383 -0.6186
12809TIP3   OH259841   4.209   1.434   2.675  0.2521  0.8320  0.0229
12809TIP3    H159842   4.228   1.506   2.735  0.0392  1.3691 -0.5322
12809TIP3    H259843   4.244   1.356   2.717 -1.6471  0.8479  1.8016
12810TIP3   OH259844   2.023   5.082  10.847 -0.1750 -0.4192 -0.2057
12810TIP3    H159845   2.115   5.063  10.860  0.3371  1.8281 -0.1550
12810TIP3    H259846   2.018   5.121  10.759 -1.0958 -0.6154 -0.2572
12811TIP3   OH259847   5.148   3.759  11.815  0.1237  0.1954 -0.3253
12811TIP3    H159848   5.237   3.753  11.851  0.1858 -0.7989 -0.6163
12811TIP3    H259849   5.157   3.816  11.738  0.1364  1.6755  0.7315
12812TIP3   OH259850   3.427   3.727  11.089  0.7307  0.4275  0.4934
12812TIP3    H159851   3.341   3.746  11.052  0.4362 -0.1251  0.8998
12812TIP3    H259852   3.416   3.645  11.137  1.2908  0.7566  1.2006
12813TIP3   OH259853   6.116   0.255   0.695 -0.4036  0.2973 -0.4331
12813TIP3    H159854   6.134   0.174   0.648  0.2271  0.2692 -0.1568
12813TIP3    H259855   6.107   0.228   0.786  1.6237  0.7326 -0.0437
12814TIP3   OH259856   5.045   1.396  13.143  0.1000  0.0252  0.0466
12814TIP3    H159857   4.959   1.414  13.106 -0.0595 -0.1649  0.3127
12814TIP3    H259858   5.037   1.308  13.179  0.2287  0.2269  0.5785
12815TIP3   OH259859   5.711   2.455   1.108  0.1207  0.4578  0.1117
12815TIP3    H159860   5.770   2.425   1.177  0.6427 -1.7673 -1.2140
12815TIP3    H259861   5.768   2.477   1.035 -0.5724 -0.2112 -0.6545
12816TIP3   OH259862   6.243   6.144  11.323 -0.1104 -0.6162  0.1440
12816TIP3    H159863   6.302   6.079  11.359 -0.1559 -0.6079  0.2333
12816TIP3    H259864   6.193   6.097  11.256  0.5501 -0.4325 -0.5007
12817TIP3   OH259865   2.037   3.716  12.888  0.0162  0.1486 -0.3783
12817TIP3    H159866   1.949   3.753  12.896  0.1721  0.1251  2.5860
12817TIP3    H259867   2.083   3.775  12.828 -0.9351  2.4199  1.0226
12818TIP3   OH259868   6.631   5.303  12.957  0.0679 -0.2651  0.5461
12818TIP3    H159869   6.577   5.350  12.893 -0.5056 -1.3574  0.2068
12818TIP3    H259870   6.721   5.318  12.928 -0.1903 -1.0274 -0.7496
12819TIP3   OH259871   0.055   1.798  13.245  0.1750  0.3402 -0.2261
12819TIP3    H159872   0.009   1.715  13.248  0.5266  0.1650  0.4566
12819TIP3    H259873   0.108   1.793  13.165  0.6090 -0.3159  0.0986
12820TIP3   OH259874   3.807   4.896  14.339  0.4337  0.0048 -0.8628
12820TIP3    H159875   3.877   4.901  14.274  2.0131 -2.4858  0.4526
12820TIP3    H259876   3.732   4.863  14.290 -0.0371  2.9178 -2.3480
12821TIP3   OH259877   2.624   0.751   0.730  0.4823 -0.0689 -0.4738
12821TIP3    H159878   2.624   0.837   0.688 -0.8416 -0.5222 -1.4644
12821TIP3    H259879   2.667   0.765   0.814  1.1693  1.3421 -1.0384
12822TIP3   OH259880   3.961   5.861  13.055  0.0539  0.1707 -0.1462
12822TIP3    H159881   3.945   5.768  13.070  1.5204 -0.2741 -1.0952
12822TIP3    H259882   3.894   5.888  12.992  0.4681 -0.6060 -0.9358
12823TIP3   OH259883   4.504   2.768   1.050 -0.2566  0.0982  0.2239
12823TIP3    H159884   4.520   2.801   0.961  1.3131  1.0045  0.8072
12823TIP3    H259885   4.575   2.707   1.067 -1.4596 -1.3433  0.2924
12824TIP3   OH259886   6.434   6.492  16.642 -0.0546 -0.0683 -0.8196
12824TIP3    H159887   6.519   6.536  16.635  0.1180 -0.3244 -0.3412
12824TIP3    H259888   6.423   6.447  16.558  0.7756 -0.9301 -0.4758
12825TIP3   OH259889   0.013   3.262  16.155  0.1186  0.4034  0.1848
12825TIP3    H159890   0.085   3.324  16.163 -0.1407  0.6124  1.0416
12825TIP3    H259891  -0.021   3.275  16.066  0.3879  1.1317  0.1873
12826TIP3   OH259892   0.183   2.829   1.502  0.0964 -0.0361 -0.6088
12826TIP3    H159893   0.123   2.828   1.427 -0.8618 -2.0517  0.0888
12826TIP3    H259894   0.245   2.758   1.483  0.1698 -0.2070  0.2238
12827TIP3   OH259895   3.491   6.664  14.289 -0.2031 -0.6297  0.8122
12827TIP3    H159896   3.546   6.692  14.216 -1.8864 -1.1806 -0.7312
12827TIP3    H259897   3.420   6.614  14.248 -0.6347 -1.8692  2.9221
12828TIP3   OH259898   2.205   1.990   5.338  0.0945 -0.7270  0.3949
12828TIP3    H159899   2.182   1.905   5.301  0.6508 -0.7797  0.1658
12828TIP3    H259900   2.295   2.005   5.310 -0.0070 -0.0514  0.4188
12829TIP3   OH259901   0.226   3.086  13.543  0.0659 -0.0494 -0.3619
12829TIP3    H159902   0.144   3.045  13.571 -1.4442  1.8420 -1.8118
12829TIP3    H259903   0.266   3.022  13.484  0.9068 -1.9936  2.1042
12830TIP3   OH259904   6.058   2.332  14.766 -0.3470  0.2189 -0.1448
12830TIP3    H159905   6.143   2.371  14.749 -0.8483  1.2741 -0.2794
12830TIP3    H259906   6.035   2.360  14.855 -0.2204 -0.7082  0.2009
12831TIP3   OH259907   5.160   5.236   1.801 -0.1791 -0.2901 -0.8071
12831TIP3    H159908   5.154   5.291   1.723 -0.6953 -0.6979 -1.0584
12831TIP3    H259909   5.077   5.249   1.846  0.4859  0.6929  0.1982
12832TIP3   OH259910   1.981   4.015   1.021 -0.6144  0.1518 -0.4252
12832TIP3    H159911   1.987   3.965   0.939 -0.1822  1.7546 -1.4292
12832TIP3    H259912   2.000   4.105   0.995  4.0415  0.1811  2.1025
12833TIP3   OH259913   5.198   3.287  13.692  0.1756 -0.2621  0.8400
12833TIP3    H159914   5.166   3.267  13.604  0.0692  0.8338  0.6077
12833TIP3    H259915   5.174   3.211  13.745  1.1750 -1.4055 -0.2934
12834TIP3   OH259916   0.560   1.961   3.992 -0.5215  0.1187 -0.5414
12834TIP3    H159917   0.480   1.910   3.982 -1.0010  0.2769  1.8196
12834TIP3    H259918   0.550   2.006   4.076  1.4969  1.1786 -0.7871
12835TIP3   OH259919   5.753   1.602  11.617 -0.2256 -0.0261  0.0241
12835TIP3    H159920   5.752   1.564  11.529  1.8955 -2.1103  0.8031
12835TIP3    H259921   5.740   1.528  11.676 -1.1408  1.2571  1.5198
12836TIP3   OH259922   6.700   5.491  11.550 -0.3578  0.6487 -0.1075
12836TIP3    H159923   6.762   5.436  11.502  1.3009  2.8127 -0.5531
12836TIP3    H259924   6.654   5.541  11.483 -1.2684  0.4474  0.3391
12837TIP3   OH259925   3.353   0.459   2.447  0.4124  0.8018 -0.4284
12837TIP3    H159926   3.338   0.434   2.356  0.6732  2.2119 -0.8814
12837TIP3    H259927   3.273   0.504   2.473 -0.6305 -1.5729  0.8305
12838TIP3   OH259928   3.296   2.704  15.631 -0.2806 -0.1983 -0.5037
12838TIP3    H159929   3.314   2.633  15.570  0.1189 -0.4137 -0.1322
12838TIP3    H259930   3.201   2.716  15.625 -0.1621  0.2896 -1.7245
12839TIP3   OH259931   4.314   0.382   0.939  0.5635 -0.6066  0.1965
12839TIP3    H159932   4.264   0.454   0.977  0.5665  0.1113 -1.0758
12839TIP3    H259933   4.257   0.347   0.871  1.2654 -0.6256 -0.3967
12840TIP3   OH259934   0.718   5.383  16.553  0.3257 -0.0684  0.2041
12840TIP3    H159935   0.757   5.396  16.466  1.0854 -1.8393  0.2492
12840TIP3    H259936   0.746   5.296  16.579  0.5216  0.6203  2.4552
12841TIP3   OH259937   4.771   5.555   3.298 -0.1391 -0.3857 -0.2211
12841TIP3    H159938   4.688   5.586   3.334 -1.5618 -2.4053 -1.5510
12841TIP3    H259939   4.784   5.469   3.338  1.3466 -0.1031 -0.0342
12842TIP3   OH259940   6.321   1.145  15.523 -0.1575 -0.3765 -0.6958
12842TIP3    H159941   6.402   1.142  15.471  1.1347  0.5727  1.1296
12842TIP3    H259942   6.253   1.112  15.464  1.2819  0.2269 -2.8109
12843TIP3   OH259943   3.441   3.776   1.805 -0.8893 -0.4968 -0.5560
12843TIP3    H159944   3.470   3.794   1.715  2.7497 -2.1239  0.1095
12843TIP3    H259945   3.432   3.681   1.808 -0.4402 -0.5117  0.9050
12844TIP3   OH259946   0.208   2.400   5.891  0.2599  0.3037 -0.3204
12844TIP3    H159947   0.142   2.386   5.823 -0.0205 -2.7007  0.4455
12844TIP3    H259948   0.265   2.323   5.885  2.1597  1.5361  0.7903
12845TIP3   OH259949   1.337   2.104   1.460 -0.0561 -0.1492 -0.2331
12845TIP3    H159950   1.314   2.082   1.370  0.5289  0.7494 -0.6200
12845TIP3    H259951   1.419   2.154   1.452 -0.0677  0.0489  0.7851
12846TIP3   OH259952   0.665   5.364   5.360  0.1548  0.2131 -0.0142
12846TIP3    H159953   0.638   5.369   5.268  0.1348  1.4975  0.0483
12846TIP3    H259954   0.657   5.453   5.392 -0.5315 -0.3484  1.4527
12847TIP3   OH259955   1.942   1.135  11.798 -0.1439  0.2159 -0.1605
12847TIP3    H159956   1.868   1.150  11.739  0.1581  1.6689 -0.2110
12847TIP3    H259957   2.018   1.134  11.740  0.0182  0.2786  0.0518
12848TIP3   OH259958   6.269   5.926   2.410 -0.4319  0.1405 -0.4320
12848TIP3    H159959   6.317   5.999   2.370 -1.0000  1.0282  0.4364
12848TIP3    H259960   6.226   5.883   2.336 -1.0772  1.4472 -0.8604
12849TIP3   OH259961   0.351   5.288  15.964 -0.0300  0.1257 -0.3553
12849TIP3    H159962   0.394   5.357  16.015  0.4898  0.1666 -0.8299
12849TIP3    H259963   0.363   5.315  15.872 -1.2043  0.2011 -0.4914
12850TIP3   OH259964   5.626   3.285  13.390 -0.2557 -0.4470  0.7328
12850TIP3    H159965   5.718   3.260  13.379 -0.3563 -0.7690  0.6180
12850TIP3    H259966   5.599   3.241  13.470 -0.5915 -1.1591  0.2328
12851TIP3   OH259967   1.675   4.205   2.764  0.0076 -0.0081 -0.1555
12851TIP3    H159968   1.660   4.152   2.685  0.4554 -0.3396 -0.0235
12851TIP3    H259969   1.611   4.172   2.827 -0.0257 -0.0777 -0.2260
12852TIP3   OH259970   0.663   4.782   5.471 -0.1855  0.0143 -0.4785
12852TIP3    H159971   0.661   4.790   5.566  0.2834  0.3282 -0.4939
12852TIP3    H259972   0.745   4.736   5.452  2.0408  3.7749 -0.9717
12853TIP3   OH259973   5.876   2.617  12.480 -0.1783 -0.1591 -0.2435
12853TIP3    H159974   5.866   2.522  12.481  1.6611 -0.3905  1.1648
12853TIP3    H259975   5.852   2.643  12.391 -1.4891 -1.8134 -0.4333
12854TIP3   OH259976   2.325   3.178   3.013  0.0858  0.6797  0.1718
12854TIP3    H159977   2.290   3.171   3.102 -0.7991 -0.3550 -0.2482
12854TIP3    H259978   2.250   3.201   2.959  0.7393  1.9148 -0.2368
12855TIP3   OH259979   3.825   4.174   1.507 -0.5752 -0.3494 -0.3553
12855TIP3    H159980   3.916   4.157   1.533  0.2888 -0.4826 -3.0818
12855TIP3    H259981   3.821   4.269   1.496 -0.7654 -0.3437 -0.2375
12856TIP3   OH259982   6.416   6.145  14.317  0.2537 -0.2377 -0.1042
12856TIP3    H159983   6.484   6.194  14.271  1.0212  2.2510  3.3146
12856TIP3    H259984   6.465   6.082  14.371 -0.1106  0.8558  1.5809
12857TIP3   OH259985   1.648   2.933   3.242  0.0842 -0.3597  0.4346
12857TIP3    H159986   1.650   2.840   3.217 -1.3244 -0.1807 -0.4141
12857TIP3    H259987   1.563   2.945   3.283 -0.7474  1.0858 -1.6168
12858TIP3   OH259988   3.867   5.633   0.115  0.2132 -0.1759 -0.6875
12858TIP3    H159989   3.782   5.605   0.081  0.6656 -0.7400 -1.3864
12858TIP3    H259990   3.882   5.718   0.073 -0.1328  0.0639 -0.3335
12859TIP3   OH259991   4.988   2.296  11.627 -0.5048 -0.3817 -0.0291
12859TIP3    H159992   5.074   2.259  11.606  0.6651  3.1415 -2.4009
12859TIP3    H259993   4.928   2.248  11.570  0.4985 -0.5911 -0.9650
12860TIP3   OH259994   5.687   2.935  11.367  0.4679 -0.0179 -0.0484
12860TIP3    H159995   5.632   3.007  11.335 -0.2498 -0.6064 -0.1798
12860TIP3    H259996   5.693   2.875  11.292 -0.2332 -0.8377  0.5320
12861TIP3   OH259997   6.277   4.184  14.972  0.0465  0.6273 -0.3066
12861TIP3    H159998   6.189   4.214  14.995 -1.0621 -0.0911 -3.2147
12861TIP3    H259999   6.263   4.108  14.916  2.4444  1.4079 -2.1362
12862TIP3   OH260000   3.260   5.447   1.001 -0.2462 -0.1513 -0.0699
12862TIP3    H160001   3.224   5.443   1.089  0.0811  0.4474  0.0993
12862TIP3    H260002   3.254   5.540   0.976  0.6933 -0.1171 -0.2286
12863TIP3   OH260003   6.154   3.758  15.559 -0.1926  0.4864 -0.0617
12863TIP3    H160004   6.100   3.834  15.538  2.2460  2.4813  0.5148
12863TIP3    H260005   6.097   3.702  15.613 -1.9926  1.9561 -0.3556
12864TIP3   OH260006   3.488   3.062  12.568  0.3360 -0.2433 -0.2980
12864TIP3    H160007   3.522   3.122  12.502 -0.3221  1.4077  0.8146
12864TIP3    H260008   3.394   3.057  12.551  0.1534  0.2370  0.5325
12865TIP3   OH260009   2.245   0.664   5.377 -0.2608  0.3252  0.0388
12865TIP3    H160010   2.241   0.630   5.287 -0.4633 -1.0585  0.5556
12865TIP3    H260011   2.236   0.759   5.367 -1.0310  0.1243 -1.3425
12866TIP3   OH260012   0.020   5.110  13.971  0.2390  0.1736 -0.4301
12866TIP3    H160013  -0.066   5.098  14.013 -0.2516  2.5496 -0.5881
12866TIP3    H260014   0.071   5.160  14.035  1.3747 -0.8179 -0.5313
12867TIP3   OH260015   4.703   3.102  12.146 -0.0494  0.2614  0.9153
12867TIP3    H160016   4.662   3.161  12.082  0.4451  1.0637  1.3154
12867TIP3    H260017   4.796   3.102  12.122  0.0911  0.3301  1.4406
12868TIP3   OH260018   3.162   6.347   2.750  0.2174 -0.1747  0.3787
12868TIP3    H160019   3.233   6.286   2.733  0.3116  0.1599 -0.4553
12868TIP3    H260020   3.100   6.298   2.804  0.1205 -1.1213 -0.5822
12869TIP3   OH260021   3.436   1.535   5.628 -0.0435  0.3368 -0.2001
12869TIP3    H160022   3.475   1.588   5.558 -0.8176  3.7898  1.7274
12869TIP3    H260023   3.347   1.570   5.638 -0.4090 -0.9645  1.5899
12870TIP3   OH260024   1.202   2.695   0.002 -0.1234  0.1781  0.1419
12870TIP3    H160025   1.257   2.665  -0.071 -2.9007  0.6965 -2.3544
12870TIP3    H260026   1.218   2.632   0.071  0.2288 -2.3594 -2.0830
12871TIP3   OH260027   1.056   5.278  12.718  0.4199 -0.7792 -0.2284
12871TIP3    H160028   1.132   5.270  12.777 -0.0945 -1.6923  0.3321
12871TIP3    H260029   0.984   5.237  12.766 -0.5306  0.4057 -0.6065
12872TIP3   OH260030   1.443   4.421   0.149  0.1975 -0.1295 -0.0559
12872TIP3    H160031   1.530   4.390   0.174 -0.7592 -2.7290  0.4368
12872TIP3    H260032   1.435   4.396   0.057 -0.2181 -0.4179  0.0566
12873TIP3   OH260033   6.127   0.088   6.158 -0.2485 -0.3369  0.1491
12873TIP3    H160034   6.125   0.011   6.214  0.0482 -2.3045 -2.3427
12873TIP3    H260035   6.035   0.109   6.141 -0.4780 -2.6793 -2.2049
12874TIP3   OH260036   1.084   0.534  16.738 -0.2813 -0.3344 -0.5512
12874TIP3    H160037   1.082   0.494  16.651 -0.1082  0.5761 -0.9906
12874TIP3    H260038   1.011   0.596  16.738  0.0329  0.0430 -0.2429
12875TIP3   OH260039   3.160   6.703  11.728 -0.0640 -0.1196  0.1146
12875TIP3    H160040   3.219   6.729  11.658 -1.6822 -0.6318 -1.5168
12875TIP3    H260041   3.207   6.725  11.809  1.0955  2.2526 -1.1070
12876TIP3   OH260042   1.673   1.419   3.538 -1.0640  0.0746 -0.4729
12876TIP3    H160043   1.706   1.378   3.457 -0.5127  0.5318 -0.4816
12876TIP3    H260044   1.732   1.387   3.606 -1.1258  0.2165 -0.3542
12877TIP3   OH260045   4.551   3.276   4.506 -0.1833  0.3519 -0.8621
12877TIP3    H160046   4.510   3.362   4.510 -2.2881 -0.6269  0.0261
12877TIP3    H260047   4.498   3.226   4.444  0.2632 -0.6647 -0.4609
12878TIP3   OH260048   4.212   0.955  13.276  0.6113 -0.6194  0.6174
12878TIP3    H160049   4.172   1.028  13.228  0.0184 -1.5769 -0.4052
12878TIP3    H260050   4.235   0.992  13.361 -0.7636  0.4625  0.5596
12879TIP3   OH260051   6.159   1.183  13.059 -0.3908  0.2968 -0.2957
12879TIP3    H160052   6.086   1.195  13.120  0.8084 -0.9674  1.4918
12879TIP3    H260053   6.167   1.268  13.015 -2.3109  0.7594  0.1569
12880TIP3   OH260054   0.591   0.245   2.393  0.0401  0.0112  0.2089
12880TIP3    H160055   0.618   0.336   2.400 -1.2559  0.4496 -0.1361
12880TIP3    H260056   0.538   0.230   2.472 -2.6301  0.6474 -1.3366
12881TIP3   OH260057   3.309   6.142   0.406  0.5938 -0.0446  0.1452
12881TIP3    H160058   3.278   6.104   0.488  2.8875  0.8656  1.5213
12881TIP3    H260059   3.404   6.133   0.409  0.7749  0.3656 -2.2642
12882TIP3   OH260060   0.612   5.957   5.568  0.6419 -0.1783 -0.1819
12882TIP3    H160061   0.563   5.906   5.503 -0.6914  0.5255  0.2588
12882TIP3    H260062   0.605   5.906   5.648 -1.0503  0.8446  0.3673
12883TIP3   OH260063   3.222   5.966   2.824 -0.5949 -0.5853 -0.4748
12883TIP3    H160064   3.270   6.034   2.777  0.3389 -0.0040  1.2557
12883TIP3    H260065   3.289   5.913   2.866 -1.3639 -1.9131 -0.8649
12884TIP3   OH260066   4.734   6.349   3.855 -0.0579  0.1798 -0.4316
12884TIP3    H160067   4.733   6.382   3.766  2.9748 -0.5302 -0.8434
12884TIP3    H260068   4.758   6.256   3.846  1.5637  0.3918  1.1042
12885TIP3   OH260069   6.373   1.345   1.034 -0.0770 -0.4342  0.4676
12885TIP3    H160070   6.425   1.278   0.989 -1.0421  0.3682 -2.0077
12885TIP3    H260071   6.313   1.295   1.089  0.1011 -1.5508 -0.3100
12886TIP3   OH260072   6.538   5.624  16.030  0.2778 -0.1540 -0.1795
12886TIP3    H160073   6.621   5.667  16.051 -0.9489  1.8697  0.7558
12886TIP3    H260074   6.545   5.605  15.936  1.8589 -0.2315 -0.0874
12887TIP3   OH260075   1.003   3.417  12.438 -0.1298  0.1076 -0.4487
12887TIP3    H160076   1.068   3.481  12.469  2.1074 -1.8738 -0.7594
12887TIP3    H260077   0.958   3.388  12.517  1.3242 -0.5054  0.1870
12888TIP3   OH260078   3.235   1.864   1.598  0.1289 -0.1775 -0.4184
12888TIP3    H160079   3.171   1.830   1.536 -0.0668 -1.2101  0.3166
12888TIP3    H260080   3.302   1.905   1.544  0.3859 -1.7694 -1.3800
12889TIP3   OH260081   2.649   4.701  16.959  0.7279  0.5571 -0.1594
12889TIP3    H160082   2.650   4.768  16.891 -3.1147  2.1771  1.1108
12889TIP3    H260083   2.639   4.618  16.912  3.3883  0.9697 -1.6506
12890TIP3   OH260084   0.526   3.883   0.630  0.5581 -0.1178  0.4004
12890TIP3    H160085   0.586   3.925   0.692  0.4462 -0.3774  0.6867
12890TIP3    H260086   0.439   3.904   0.665  0.5065 -0.9363  0.7773
12891TIP3   OH260087   2.991   4.436  17.181  0.3364  0.1196  0.3287
12891TIP3    H160088   2.897   4.448  17.171  0.2496  0.8534  1.7828
12891TIP3    H260089   3.011   4.357  17.131 -1.2910 -0.8426  1.1367
12892TIP3   OH260090   0.447   2.714   2.488 -0.3427 -0.3579  0.1873
12892TIP3    H160091   0.439   2.733   2.394 -0.1824 -2.1773 -0.2334
12892TIP3    H260092   0.360   2.685   2.514  0.3123 -2.8839 -0.1866
12893TIP3   OH260093   0.318   0.435  16.988  0.3624  0.4011 -0.6582
12893TIP3    H160094   0.222   0.440  16.991  0.4001  1.7278 -1.1857
12893TIP3    H260095   0.347   0.495  17.056  0.8290 -0.4535 -0.0900
12894TIP3   OH260096   2.375   1.918  12.952 -0.0866  0.3423 -0.2383
12894TIP3    H160097   2.356   2.010  12.970  0.9569  0.3615  0.9103
12894TIP3    H260098   2.466   1.918  12.921 -0.5451 -0.1646 -1.6389
12895TIP3   OH260099   3.846   1.476  12.325 -0.0252 -0.2161  0.3977
12895TIP3    H160100   3.793   1.410  12.370  0.8591  0.2015  2.1403
12895TIP3    H260101   3.902   1.512  12.393  1.6286  0.2332 -1.1258
12896TIP3   OH260102   6.418   0.350   1.586 -0.0007  1.1083  0.1883
12896TIP3    H160103   6.453   0.421   1.532  1.5334 -0.6941 -1.3521
12896TIP3    H260104   6.344   0.316   1.536  1.4497 -0.5950 -0.9474
12897TIP3   OH260105   2.410   5.465  11.344 -0.1707 -0.7143  0.8104
12897TIP3    H160106   2.329   5.502  11.308  0.6512 -1.3190 -1.8901
12897TIP3    H260107   2.432   5.523  11.417 -1.5213  1.1833 -0.1914
12898TIP3   OH260108   4.290   4.708   5.282 -0.0347 -0.1989  0.1490
12898TIP3    H160109   4.361   4.708   5.218 -0.7259 -0.0292 -0.6478
12898TIP3    H260110   4.294   4.621   5.322 -1.4117 -1.5048 -2.2827
12899TIP3   OH260111   5.442   4.220  15.624 -1.0151  0.2604 -0.0593
12899TIP3    H160112   5.401   4.234  15.709  2.6850  1.6415  1.7205
12899TIP3    H260113   5.506   4.151  15.639  0.8181  1.6203 -1.2471
12900TIP3   OH260114   5.073   6.275   4.038 -0.7286 -0.4337 -1.0537
12900TIP3    H160115   5.118   6.309   3.961  1.3206  0.2042  0.3491
12900TIP3    H260116   5.059   6.183   4.019 -1.6018 -0.0018 -2.7517
12901TIP3   OH260117   1.863   6.318   4.371 -0.2190 -0.1251  0.7613
12901TIP3    H160118   1.834   6.261   4.300 -2.4462  1.6832  0.0965
12901TIP3    H260119   1.784   6.335   4.422  0.3589  2.1730  1.0215
12902TIP3   OH260120   0.663   3.512  15.362  0.0160 -0.0625 -0.2791
12902TIP3    H160121   0.672   3.517  15.267 -0.4050  0.3180 -0.3047
12902TIP3    H260122   0.732   3.568  15.397  0.5349 -0.6601 -0.3450
12903TIP3   OH260123   4.782   0.973  13.775  0.0556  0.5959  0.2110
12903TIP3    H160124   4.720   1.045  13.782  0.4318  0.8669  0.9763
12903TIP3    H260125   4.735   0.904  13.729 -1.2121  0.3717  1.7505
12904TIP3   OH260126   1.953   0.953   3.204 -0.1314  0.0795  0.0320
12904TIP3    H160127   1.882   0.937   3.141  0.4491 -1.7961 -0.2148
12904TIP3    H260128   2.026   0.901   3.171  1.7046  2.6562 -0.1992
12905TIP3   OH260129   4.275   5.260  16.206 -0.0195 -0.6913 -0.1736
12905TIP3    H160130   4.307   5.320  16.274 -0.4939 -0.4015 -0.2034
12905TIP3    H260131   4.234   5.317  16.141 -0.4052 -1.0440 -0.2437
12906TIP3   OH260132   1.420   5.079  14.142  0.1214 -0.2676 -0.0090
12906TIP3    H160133   1.442   5.069  14.050  2.6893 -0.1669  0.5023
12906TIP3    H260134   1.383   5.167  14.149 -0.6552 -0.5035 -1.0135
12907TIP3   OH260135   2.324   2.511   4.862 -0.0718  0.2239  0.7358
12907TIP3    H160136   2.405   2.465   4.883 -0.8825 -1.9463 -0.5785
12907TIP3    H260137   2.276   2.513   4.945 -0.0877 -1.5728  0.8188
12908TIP3   OH260138   3.269   4.095   5.039 -0.0670  0.2049 -0.2824
12908TIP3    H160139   3.303   4.040   4.968 -1.3173 -0.6470 -0.2609
12908TIP3    H260140   3.277   4.040   5.117  0.3760  0.7596  0.0645
12909TIP3   OH260141   1.101   0.204   2.635 -0.6014 -0.2918 -0.3866
12909TIP3    H160142   1.166   0.271   2.658 -0.6755 -0.5976  0.7848
12909TIP3    H260143   1.141   0.121   2.664 -1.0035 -0.6167 -0.7544
12910TIP3   OH260144   3.308   3.480   3.095  0.2463 -0.1163 -0.1904
12910TIP3    H160145   3.281   3.399   3.053  0.3134 -0.4937  0.4716
12910TIP3    H260146   3.264   3.479   3.180  0.3639  0.4685 -0.1173
12911TIP3   OH260147   4.527   6.651   5.761 -0.2176 -0.3868  0.2916
12911TIP3    H160148   4.606   6.695   5.793 -1.3460  1.5016  0.6119
12911TIP3    H260149   4.556   6.608   5.680  0.6170  2.5111 -1.1197
12912TIP3   OH260150   4.184   5.374  10.716 -0.1733  0.8845 -0.5141
12912TIP3    H160151   4.216   5.417  10.637 -0.0094 -0.0494 -0.9734
12912TIP3    H260152   4.089   5.387  10.714 -0.2262  0.4445 -1.1360
12913TIP3   OH260153   0.469   2.500   4.257 -0.4662 -0.0074 -0.2958
12913TIP3    H160154   0.423   2.574   4.297 -0.2084 -0.0022 -0.0068
12913TIP3    H260155   0.422   2.484   4.176  0.6835  1.8275 -1.4145
12914TIP3   OH260156   0.918   0.635  14.527  0.1671 -0.4497  0.8054
12914TIP3    H160157   1.009   0.667  14.522  0.1330 -0.4164  0.3209
12914TIP3    H260158   0.879   0.685  14.598  0.4838 -0.3375  0.9024
12915TIP3   OH260159   2.367   3.564   4.575  0.5135 -0.0785 -0.1957
12915TIP3    H160160   2.428   3.532   4.642  2.4678  3.6354  0.1086
12915TIP3    H260161   2.280   3.549   4.611  1.2881 -2.8422  0.7466
12916TIP3   OH260162   3.363   1.240  10.824 -0.2479 -0.1356 -0.3707
12916TIP3    H160163   3.405   1.318  10.786 -0.7045 -0.3196 -1.3027
12916TIP3    H260164   3.420   1.168  10.799 -0.7388 -0.3029 -1.0660
12917TIP3   OH260165   5.424   5.055  14.784  0.0519  0.3586 -0.1594
12917TIP3    H160166   5.452   5.042  14.694 -1.9069  0.2950 -0.8120
12917TIP3    H260167   5.468   5.136  14.812  0.8561  0.2491 -1.0818
12918TIP3   OH260168   0.777   3.599  13.505 -0.1488 -0.2027  0.3300
12918TIP3    H160169   0.708   3.647  13.551  0.1133  0.3388  0.1757
12918TIP3    H260170   0.859   3.631  13.544  0.1352  1.0548 -1.1836
12919TIP3   OH260171   1.461   3.294   3.656 -0.5656 -0.0235 -1.3274
12919TIP3    H160172   1.430   3.363   3.597 -2.6044  0.5264  0.2835
12919TIP3    H260173   1.423   3.316   3.741  1.9165 -1.0258  0.1408
12920TIP3   OH260174   5.570   5.550  16.158  0.4264 -0.3182  0.6001
12920TIP3    H160175   5.642   5.611  16.147 -0.4585  0.7992  0.8555
12920TIP3    H260176   5.592   5.476  16.101  1.7399  0.0044  0.6498
12921TIP3   OH260177   2.385   4.843   3.922  0.4802  0.6099  0.5884
12921TIP3    H160178   2.372   4.791   4.001 -2.3274 -1.2417 -0.8892
12921TIP3    H260179   2.450   4.793   3.871 -1.2154 -0.8912 -0.2335
12922TIP3   OH260180   1.620   0.786  16.675  0.0604  0.9378 -0.5580
12922TIP3    H160181   1.540   0.741  16.704  0.3709  0.6392 -0.1478
12922TIP3    H260182   1.607   0.877  16.701 -0.3063  0.9633 -0.8280
12923TIP3   OH260183   5.772   2.888  15.856 -0.4911  0.8465  0.1124
12923TIP3    H160184   5.783   2.980  15.832  1.0739  0.8276  0.6649
12923TIP3    H260185   5.783   2.887  15.951 -1.4815  0.2109  0.2299
12924TIP3   OH260186   4.747   1.483   4.840  0.6239  0.2746 -0.0554
12924TIP3    H160187   4.693   1.538   4.898 -0.8621 -1.8778  0.7605
12924TIP3    H260188   4.695   1.403   4.829  3.1815 -1.4771 -0.1791
12925TIP3   OH260189   3.385   3.830  14.017 -0.4888 -0.0858  0.6424
12925TIP3    H160190   3.325   3.769  13.973 -0.4421  1.2729 -1.4500
12925TIP3    H260191   3.463   3.777  14.036  0.5642 -0.3000 -3.3390
12926TIP3   OH260192   3.513   0.289  11.720  0.5361  0.0723  0.3245
12926TIP3    H160193   3.453   0.219  11.696  0.2389 -1.2589  4.1360
12926TIP3    H260194   3.460   0.369  11.717 -0.7231 -0.7021  1.1277
12927TIP3   OH260195   0.230   4.431  14.583 -0.1448  0.1864 -0.1528
12927TIP3    H160196   0.284   4.358  14.551 -1.4140 -0.5470 -0.6676
12927TIP3    H260197   0.280   4.466  14.656 -0.5808 -2.7622  1.7493
12928TIP3   OH260198   5.473   1.640  11.140 -0.0544 -0.5591 -0.2830
12928TIP3    H160199   5.558   1.643  11.096  0.3751  0.2757  0.5732
12928TIP3    H260200   5.414   1.687  11.082  0.0548 -1.1209 -0.8720
12929TIP3   OH260201   0.210   4.051  16.449  0.6369  0.4123 -0.0917
12929TIP3    H160202   0.298   4.080  16.470  1.5108  0.4729 -3.3531
12929TIP3    H260203   0.176   4.116  16.388 -0.3343 -1.3403 -1.5390
12930TIP3   OH260204   4.512   0.877  12.738  0.1206 -0.9902 -0.2515
12930TIP3    H160205   4.597   0.920  12.737 -0.0752 -0.6086 -0.6877
12930TIP3    H260206   4.531   0.785  12.720  0.4742 -0.9684  0.0065
12931TIP3   OH260207   5.245   3.522   4.740 -0.0930 -0.1372 -0.3653
12931TIP3    H160208   5.312   3.507   4.674  3.2370  0.6199  2.5137
12931TIP3    H260209   5.204   3.605   4.715 -1.2805 -1.4097 -3.0599
12932TIP3   OH260210   4.742   1.418   3.885  0.3486  0.0784 -0.8573
12932TIP3    H160211   4.738   1.386   3.975 -0.6929 -0.6160 -1.1212
12932TIP3    H260212   4.688   1.497   3.885  1.3709  0.7967 -0.6187
12933TIP3   OH260213   4.072   5.040   2.371  0.2504  0.3358 -0.4941
12933TIP3    H160214   4.101   5.090   2.447 -3.7678  0.9909  0.8552
12933TIP3    H260215   4.132   4.965   2.367  0.7122  0.3324  3.2642
12934TIP3   OH260216   3.735   2.120  16.206 -0.1274 -0.4221 -0.0363
12934TIP3    H160217   3.646   2.130  16.171 -0.2996  0.9017  0.7377
12934TIP3    H260218   3.776   2.205  16.192  1.0592 -1.0383 -0.4397
12935TIP3   OH260219   5.848   6.337  17.094  0.3415 -0.2521 -0.2240
12935TIP3    H160220   5.883   6.288  17.019  1.4498  0.0080  0.1034
12935TIP3    H260221   5.918   6.399  17.116 -0.3791  0.3448  0.4042
12936TIP3   OH260222   1.891   5.271   6.453 -0.6278 -0.2003  0.0230
12936TIP3    H160223   1.804   5.279   6.414 -1.3768  1.8995  1.8796
12936TIP3    H260224   1.915   5.179   6.440 -3.8260 -1.2878  0.8700
12937TIP3   OH260225   6.304   5.180   3.778  0.6098 -0.5236 -0.0762
12937TIP3    H160226   6.373   5.149   3.720  0.3605  0.6820 -1.0772
12937TIP3    H260227   6.223   5.166   3.729  0.2789 -0.5586  0.4641
12938TIP3   OH260228   3.271   0.601  11.617 -0.4270  0.3947 -0.3130
12938TIP3    H160229   3.299   0.526  11.564  0.2265  0.8757 -0.6709
12938TIP3    H260230   3.313   0.588  11.702  0.7175  0.9633 -0.7563
12939TIP3   OH260231   5.578   3.559   6.480  0.0517  0.3298  0.3308
12939TIP3    H160232   5.660   3.582   6.524 -0.7375  0.0937  1.9897
12939TIP3    H260233   5.554   3.639   6.431  1.6852  0.1090 -0.9132
12940TIP3   OH260234   0.473   4.997  14.807  0.3030 -0.3830  0.3232
12940TIP3    H160235   0.488   5.090  14.791 -0.8062 -0.4297 -1.0752
12940TIP3    H260236   0.495   4.954  14.725  1.3103 -1.4427  1.1121
12941TIP3   OH260237   1.624   4.664   2.079  0.6303  0.4207 -0.2798
12941TIP3    H160238   1.567   4.724   2.030 -0.3118 -0.4895 -0.3418
12941TIP3    H260239   1.585   4.660   2.166  1.2063  0.5784 -0.0135
12942TIP3   OH260240   6.048   2.822  11.347 -0.1815 -0.2228  0.7107
12942TIP3    H160241   6.057   2.769  11.267 -1.4410  0.2449  0.2295
12942TIP3    H260242   5.973   2.879  11.329 -0.5629 -0.1957  2.2891
12943TIP3   OH260243   1.445   5.535   3.298 -0.0714  0.2924 -0.6322
12943TIP3    H160244   1.377   5.522   3.233 -1.2736 -0.1850  0.6802
12943TIP3    H260245   1.416   5.612   3.348  0.6429  0.4270 -0.4102
12944TIP3   OH260246   0.397   2.191  12.488 -0.0156 -0.3871  0.1668
12944TIP3    H160247   0.361   2.162  12.404  1.0145 -0.1285 -0.3726
12944TIP3    H260248   0.460   2.123  12.512  1.8313  0.9300 -0.7139
12945TIP3   OH260249   4.678   6.184   4.805 -0.1834 -0.0885 -0.3329
12945TIP3    H160250   4.695   6.091   4.818 -1.7160 -0.2921  0.4281
12945TIP3    H260251   4.736   6.228   4.867 -1.0986 -0.6637  0.9687
12946TIP3   OH260252   5.079   0.652   3.087 -0.1887  0.0274  0.8208
12946TIP3    H160253   5.077   0.680   3.179  2.5118 -1.6375  1.4931
12946TIP3    H260254   5.158   0.693   3.051 -1.1401  0.5574 -0.7649
12947TIP3   OH260255   3.053   2.246   1.746 -0.0770  0.1575 -0.2936
12947TIP3    H160256   2.968   2.287   1.730 -0.4876 -1.0861 -1.4496
12947TIP3    H260257   3.054   2.169   1.690  2.2204  0.6664 -1.0731
12948TIP3   OH260258   6.238   6.553  13.983  0.7821  0.0998 -0.3280
12948TIP3    H160259   6.224   6.466  13.944  0.0483 -0.3573  0.8847
12948TIP3    H260260   6.296   6.598  13.922 -1.7940  0.1428 -3.0155
12949TIP3   OH260261   5.998   1.863   0.444 -0.0920  0.2716  0.5904
12949TIP3    H160262   6.062   1.830   0.507 -1.3129 -1.4287  0.9906
12949TIP3    H260263   6.033   1.837   0.358  0.3168  0.3514  0.7327
12950TIP3   OH260264   6.363   6.006  17.121  0.0449 -0.3397 -0.3959
12950TIP3    H160265   6.295   5.979  17.059 -0.7050 -0.9828  0.6712
12950TIP3    H260266   6.443   6.007  17.068 -0.3802 -1.9276 -1.1678
12951TIP3   OH260267   3.572   3.610  13.917  0.0440 -0.1593 -0.2531
12951TIP3    H160268   3.634   3.538  13.919 -2.0007 -2.0279  0.8817
12951TIP3    H260269   3.590   3.660  13.997 -0.9749 -1.7347  1.0220
12952TIP3   OH260270   6.101   6.622   2.188 -0.0178  0.0851 -0.2750
12952TIP3    H160271   6.077   6.687   2.254  0.1284 -0.2477  0.1130
12952TIP3    H260272   6.157   6.669   2.127 -0.7691  0.5878 -0.5833
12953TIP3   OH260273   0.376   2.607  16.017  0.4291  0.3704 -0.2790
12953TIP3    H160274   0.429   2.624  15.939 -0.6674  2.5564 -0.6493
12953TIP3    H260275   0.343   2.693  16.042 -1.1174 -0.5957  1.2408
12954TIP3   OH260276   0.061   5.533   4.804 -0.3169 -0.1667 -0.0329
12954TIP3    H160277  -0.005   5.601   4.817  1.6172  1.8380 -0.0539
12954TIP3    H260278   0.128   5.551   4.870  0.6326 -1.5773 -0.5571
12955TIP3   OH260279   0.040   2.779   1.094 -0.8489 -0.0383  0.4022
12955TIP3    H160280   0.041   2.745   1.183  2.4731  1.1074  0.9491
12955TIP3    H260281   0.017   2.872   1.104 -2.2424 -0.3017 -0.1782
12956TIP3   OH260282   1.552   4.410   3.357  0.1212  0.1285 -0.1981
12956TIP3    H160283   1.501   4.392   3.278 -0.5613  0.0908  0.2360
12956TIP3    H260284   1.637   4.370   3.341 -0.2844 -0.6068 -0.5845
12957TIP3   OH260285   5.888   4.476   6.517 -0.0842  0.3520 -0.1861
12957TIP3    H160286   5.973   4.520   6.526  0.3669  0.5510 -3.8489
12957TIP3    H260287   5.829   4.546   6.490 -1.2035 -0.0122  1.2049
12958TIP3   OH260288   2.171   4.326  17.292  0.3800  0.7433 -0.0491
12958TIP3    H160289   2.239   4.384  17.325 -1.1310  1.4964  1.9816
12958TIP3    H260290   2.165   4.256  17.358 -0.5211  0.4851 -0.3938
12959TIP3   OH260291   4.600   0.628  15.283 -0.0688  0.4072  0.0799
12959TIP3    H160292   4.673   0.566  15.276 -0.0971  0.5340 -1.8846
12959TIP3    H260293   4.525   0.574  15.309  0.1419 -0.2108 -0.5522
12960TIP3   OH260294   0.851   2.281   4.559 -0.3184  0.3026 -0.6381
12960TIP3    H160295   0.758   2.295   4.575 -0.0805  1.6935 -0.3091
12960TIP3    H260296   0.855   2.202   4.505 -1.5803 -0.6424  0.5871
12961TIP3   OH260297   0.165   3.290  14.116  0.1266  0.1830 -0.5506
12961TIP3    H160298   0.092   3.259  14.171  0.5017  2.1370  1.1507
12961TIP3    H260299   0.122   3.326  14.038 -0.6145  0.0037 -0.2427
12962TIP3   OH260300   2.174   4.000  12.906  0.4381 -0.7345 -0.6049
12962TIP3    H160301   2.255   3.949  12.908  1.2533  0.4974 -0.7940
12962TIP3    H260302   2.201   4.088  12.934 -0.9397 -0.4273 -0.1772
12963TIP3   OH260303   2.524   5.789  12.519  0.9181 -0.4128 -0.3147
12963TIP3    H160304   2.489   5.707  12.484  1.6660 -1.4794  1.3695
12963TIP3    H260305   2.476   5.803  12.600  1.7154  0.1347  0.0742
12964TIP3   OH260306   0.055   4.228   1.641 -0.2295 -0.0573  0.0859
12964TIP3    H160307  -0.002   4.294   1.600  0.2459  0.4030  0.1551
12964TIP3    H260308   0.024   4.222   1.731 -1.8977 -1.7598 -0.5359
12965TIP3   OH260309   3.068   2.811   2.563 -0.1449  0.2643 -0.5910
12965TIP3    H160310   3.066   2.716   2.547  1.8183 -0.1196  1.0132
12965TIP3    H260311   2.999   2.826   2.627  0.6962 -0.4324  0.5207
12966TIP3   OH260312   2.283   5.411   1.526  0.4197 -0.2420  0.0523
12966TIP3    H160313   2.301   5.321   1.499  3.1271  0.5786 -1.3177
12966TIP3    H260314   2.243   5.452   1.450 -0.0974 -0.0982  0.3997
12967TIP3   OH260315   2.440   0.749  12.546  0.0355  0.3123 -0.3515
12967TIP3    H160316   2.407   0.758  12.456 -2.1480 -0.7306  0.2765
12967TIP3    H260317   2.449   0.839  12.577 -0.9124  0.6573 -1.0371
12968TIP3   OH260318   4.295   6.723   4.965  0.1739 -0.2132 -0.2725
12968TIP3    H160319   4.334   6.712   5.052  0.9796  0.3699 -0.5489
12968TIP3    H260320   4.348   6.667   4.908  0.7726  0.7771 -0.6980
12969TIP3   OH260321   2.140   3.466  17.070 -0.6085 -0.8113 -0.0549
12969TIP3    H160322   2.222   3.423  17.093 -0.7888 -0.5542  1.1345
12969TIP3    H260323   2.122   3.524  17.144  0.0434  1.9512 -1.8720
12970TIP3   OH260324   2.367   2.847  16.261 -0.1075  0.3963 -0.2466
12970TIP3    H160325   2.410   2.767  16.291  0.5625  0.3443 -1.3267
12970TIP3    H260326   2.274   2.823  16.254  0.2632 -0.7002 -1.8544
12971TIP3   OH260327   1.539   0.353   3.572  0.4649  0.4951 -0.0987
12971TIP3    H160328   1.614   0.360   3.512  0.7031 -0.7098  0.0300
12971TIP3    H260329   1.572   0.388   3.655  0.9168 -0.0610 -0.0321
12972TIP3   OH260330   2.192   4.153   5.058  0.3469 -0.2420 -0.1374
12972TIP3    H160331   2.259   4.118   5.000  0.7888  0.0675  0.1784
12972TIP3    H260332   2.228   4.142   5.146 -0.3333 -0.7440  0.0904
12973TIP3   OH260333   3.467   0.340  13.145 -0.1395  0.3515 -0.1166
12973TIP3    H160334   3.488   0.412  13.086 -1.6387  1.0210  0.1145
12973TIP3    H260335   3.452   0.382  13.230 -0.7883 -0.2541  0.0786
12974TIP3   OH260336   0.181   1.357   3.905  0.0172 -0.1809 -0.2457
12974TIP3    H160337   0.125   1.424   3.867  0.1355 -0.0810 -0.2436
12974TIP3    H260338   0.258   1.356   3.848  0.3265  0.1715  0.1649
12975TIP3   OH260339   4.009   6.358   2.710  0.1012 -0.2376  0.5435
12975TIP3    H160340   3.956   6.349   2.789  0.3125 -0.6944  0.6353
12975TIP3    H260341   3.947   6.380   2.641  0.1329  2.3534  1.2159
12976TIP3   OH260342   5.451   4.919  13.541 -0.0071  0.1488  0.2297
12976TIP3    H160343   5.500   4.997  13.515 -0.7043 -0.1122 -2.1551
12976TIP3    H260344   5.514   4.847  13.531  0.2168  0.2283  1.0064
12977TIP3   OH260345   5.180   4.289  12.983  0.6330 -0.2338 -0.2350
12977TIP3    H160346   5.165   4.197  12.960  0.9364 -0.5326  0.7033
12977TIP3    H260347   5.118   4.338  12.929 -1.1076 -1.1588  0.8408
12978TIP3   OH260348   3.574   3.111   3.343  0.1569  0.1396  0.2256
12978TIP3    H160349   3.628   3.059   3.284  0.4457  0.7221 -0.0312
12978TIP3    H260350   3.630   3.184   3.370  0.1036 -0.2386  1.4117
12979TIP3   OH260351   0.230   4.920  15.305  0.0680  0.0649  0.1325
12979TIP3    H160352   0.155   4.972  15.276 -0.4109 -1.0126 -0.5813
12979TIP3    H260353   0.224   4.921  15.401 -1.4995 -0.9027  0.0770
12980TIP3   OH260354   4.478   5.725  12.498 -0.4781 -0.1703 -0.2759
12980TIP3    H160355   4.517   5.808  12.471 -0.3205 -0.1298  0.0670
12980TIP3    H260356   4.544   5.684  12.553 -0.8734 -0.1494  0.2234
12981TIP3   OH260357   6.758   2.740   1.711 -0.7500 -0.0994 -0.4792
12981TIP3    H160358   6.754   2.834   1.694  1.0353 -0.0131 -0.5580
12981TIP3    H260359   6.797   2.703   1.632 -1.7847 -0.9787 -0.6035
12982TIP3   OH260360   5.730   6.652   4.130  0.0789 -0.0964  0.0896
12982TIP3    H160361   5.810   6.705   4.137  1.6805 -2.3507  0.0942
12982TIP3    H260362   5.659   6.713   4.152  1.7898  1.9481  0.3428
12983TIP3   OH260363   3.763   0.143  10.555 -0.8486 -0.5353 -0.0580
12983TIP3    H160364   3.823   0.096  10.498  0.0182 -0.2237  0.5682
12983TIP3    H260365   3.722   0.076  10.609 -0.2637 -0.6529  0.2405
12984TIP3   OH260366   0.851   4.265  15.387  0.5184  0.0735 -0.1248
12984TIP3    H160367   0.817   4.344  15.430 -0.9309  0.0561 -1.1618
12984TIP3    H260368   0.898   4.218  15.456 -1.1367  0.3935  1.2739
12985TIP3   OH260369   4.177   2.907  13.052  0.0853  0.4383  0.5950
12985TIP3    H160370   4.183   2.954  12.969  0.1382 -1.9083 -0.8346
12985TIP3    H260371   4.262   2.864  13.061 -0.3705 -0.3819  1.1649
12986TIP3   OH260372   4.503   5.479   4.109  0.2237  0.6881  0.1730
12986TIP3    H160373   4.435   5.452   4.171  1.2650  0.5682  1.3009
12986TIP3    H260374   4.455   5.497   4.028 -0.7538 -3.0650 -0.2696
12987TIP3   OH260375   6.449   4.585  14.674  0.1555 -0.2695 -0.6257
12987TIP3    H160376   6.497   4.578  14.592  1.3745 -0.9588  0.1194
12987TIP3    H260377   6.454   4.497  14.713  1.0877  0.4445  0.9837
12988TIP3   OH260378   2.176   4.005   4.309 -0.5102  0.5282 -0.1850
12988TIP3    H160379   2.164   4.072   4.377  0.8176 -0.5665  1.2230
12988TIP3    H260380   2.238   3.943   4.348 -0.2015 -0.5019 -2.1838
12989TIP3   OH260381   1.473   0.208  16.305 -0.0376  0.0675  0.6834
12989TIP3    H160382   1.437   0.295  16.324 -1.1679 -0.5217  1.3210
12989TIP3    H260383   1.566   0.215  16.330  0.1300  1.3658 -0.2191
12990TIP3   OH260384   6.241   2.832  15.697  0.3519 -0.1924  0.0299
12990TIP3    H160385   6.292   2.813  15.775  0.5221 -0.3361 -0.1171
12990TIP3    H260386   6.277   2.915  15.664  1.8182 -1.2554 -1.1746
12991TIP3   OH260387   0.882   1.275   2.042 -0.3877 -0.1639  0.3145
12991TIP3    H160388   0.932   1.196   2.060  0.2258  0.2196  0.3367
12991TIP3    H260389   0.794   1.244   2.020  0.1646 -0.9131 -0.8790
12992TIP3   OH260390   4.156   1.406  12.412  0.7449  0.2154 -0.0331
12992TIP3    H160391   4.172   1.501  12.416 -2.7224  1.0502 -2.1308
12992TIP3    H260392   4.212   1.376  12.341  1.2237  0.8268  0.0666
12993TIP3   OH260393   3.298   1.297  17.133 -0.3642  0.3071 -0.0494
12993TIP3    H160394   3.222   1.353  17.116  0.1156  1.9534  2.6855
12993TIP3    H260395   3.329   1.271  17.046 -2.3819  1.8845 -1.3102
12994TIP3   OH260396   6.708   2.223   4.549 -0.0393 -0.0460 -0.1112
12994TIP3    H160397   6.799   2.212   4.578 -0.1358 -2.4379 -0.5756
12994TIP3    H260398   6.676   2.134   4.536 -2.2606  0.7789 -0.6118
12995TIP3   OH260399   6.726   4.974  14.265 -0.2688  0.2408  1.0236
12995TIP3    H160400   6.818   4.999  14.257 -0.0715 -1.0239 -2.8099
12995TIP3    H260401   6.723   4.883  14.233 -2.5529 -0.6272  3.3305
12996TIP3   OH260402   3.763   3.282   3.867  0.9968  0.7799 -0.1883
12996TIP3    H160403   3.779   3.230   3.946  1.2769  0.4262 -0.4764
12996TIP3    H260404   3.700   3.348   3.895 -1.0090 -0.9816 -0.3207
12997TIP3   OH260405   1.720   6.228  14.498 -0.0809  0.1832 -0.5592
12997TIP3    H160406   1.745   6.201  14.586  1.0826  2.1708 -0.2033
12997TIP3    H260407   1.801   6.222  14.447 -0.0424  1.7478 -0.7376
12998TIP3   OH260408   6.112   3.063  14.589 -0.3658  0.1084 -0.3516
12998TIP3    H160409   6.095   3.040  14.497  0.5200  2.0170 -1.0353
12998TIP3    H260410   6.191   3.014  14.611 -0.6166 -0.4099 -0.5865
12999TIP3   OH260411   4.951   4.062  15.970  0.4995  0.3314  0.7964
12999TIP3    H160412   4.982   4.117  16.043 -1.3563  0.0663  1.8681
12999TIP3    H260413   4.946   3.974  16.007 -0.0560  0.1107  0.2071
13000TIP3   OH260414   3.354   1.597   4.448 -0.4498  0.1685  0.1410
13000TIP3    H160415   3.305   1.679   4.451 -0.8879 -0.0807 -0.3197
13000TIP3    H260416   3.446   1.625   4.455 -0.5457  0.7571 -0.7690
13001TIP3   OH260417   6.703   3.050   0.895  0.0146  0.1704  0.1506
13001TIP3    H160418   6.700   3.053   0.991  0.8730  1.4108  0.1604
13001TIP3    H260419   6.615   3.024   0.869  0.1318 -1.5374  1.3030
13002TIP3   OH260420   2.992   6.215   5.360 -0.3485 -1.0091  0.1996
13002TIP3    H160421   2.919   6.261   5.401 -0.5656 -0.8367 -0.3785
13002TIP3    H260422   3.008   6.140   5.417 -0.6531 -0.7773  0.5946
13003TIP3   OH260423   2.610   1.572   5.718 -0.1097  0.3471 -0.3613
13003TIP3    H160424   2.676   1.547   5.783 -0.5570  0.4730  0.1450
13003TIP3    H260425   2.652   1.554   5.634 -0.7924 -3.3498 -0.0697
13004TIP3   OH260426   3.197   6.512  13.136  0.0459  0.4255 -0.1418
13004TIP3    H160427   3.188   6.572  13.209  0.3198  0.4694 -0.1426
13004TIP3    H260428   3.130   6.445  13.151 -0.5288  0.9509 -0.3598
13005TIP3   OH260429   3.415   2.284   5.449  0.5230 -0.3038 -0.4684
13005TIP3    H160430   3.480   2.354   5.459  0.6598  0.2535 -3.9145
13005TIP3    H260431   3.468   2.205   5.434  0.3849 -0.5189  0.1771
13006TIP3   OH260432   0.343   0.187   5.461  0.4281 -0.3354 -0.1192
13006TIP3    H160433   0.316   0.184   5.553  1.5449  1.2827  0.2993
13006TIP3    H260434   0.315   0.103   5.425 -3.7498  0.5139  0.6231
13007TIP3   OH260435   3.016   2.488   2.100  0.1598 -0.3209  0.2164
13007TIP3    H160436   3.039   2.535   2.020  1.0234  1.2606  1.3458
13007TIP3    H260437   3.021   2.396   2.076  0.7395  0.1147 -1.4613
13008TIP3   OH260438   0.465   1.781   3.270 -0.0435  0.1798  0.2300
13008TIP3    H160439   0.453   1.875   3.256  1.2324  0.5116  1.2156
13008TIP3    H260440   0.402   1.740   3.211 -1.7445  1.6790  0.9071
13009TIP3   OH260441   1.368   4.795  12.992 -0.2851 -0.9804  0.3388
13009TIP3    H160442   1.402   4.717  13.036 -3.4016 -1.7926  1.5124
13009TIP3    H260443   1.301   4.762  12.932  1.2132  0.4876 -2.3645
13010TIP3   OH260444   5.269   1.747   2.269  0.6516 -0.0838  0.2206
13010TIP3    H160445   5.260   1.657   2.301 -0.5926 -0.0152  0.1045
13010TIP3    H260446   5.183   1.768   2.232  1.3448  0.6649 -1.0308
13011TIP3   OH260447   1.213   4.329   5.054 -0.3149  0.2039  0.0537
13011TIP3    H160448   1.302   4.322   5.087 -0.3950  0.8332  0.4357
13011TIP3    H260449   1.170   4.389   5.115 -0.6364  0.9253 -0.8468
13012TIP3   OH260450   6.231   3.260   3.913  0.1088 -0.9023 -0.1538
13012TIP3    H160451   6.180   3.341   3.906 -0.0328 -1.0513 -1.0139
13012TIP3    H260452   6.219   3.217   3.829 -0.2918 -2.1103  0.5006
13013TIP3   OH260453   6.488   0.338   2.235 -0.3876  0.2651  0.0321
13013TIP3    H160454   6.496   0.338   2.330  1.7170 -0.4914 -0.0951
13013TIP3    H260455   6.565   0.387   2.205 -0.5215 -0.3143 -1.3058
13014TIP3   OH260456   2.525   4.391  15.362  0.2819  0.8993  0.1487
13014TIP3    H160457   2.542   4.474  15.405 -0.5035  0.5374  1.2069
13014TIP3    H260458   2.586   4.329  15.403  1.6109  1.1435 -1.3809
13015TIP3   OH260459   4.641   4.610   5.135 -0.2868 -0.0621 -0.4856
13015TIP3    H160460   4.603   4.697   5.124  2.4943  0.9951 -3.9113
13015TIP3    H260461   4.719   4.625   5.188 -1.3910 -1.1658  1.5842
13016TIP3   OH260462   4.809   1.573  11.414 -0.3281  0.3081  0.5072
13016TIP3    H160463   4.882   1.516  11.393  0.2695  1.4747 -0.6474
13016TIP3    H260464   4.818   1.589  11.508 -0.3627 -1.2609  0.8026
13017TIP3   OH260465   6.385   2.176  14.735 -0.2430 -0.1733  0.2276
13017TIP3    H160466   6.398   2.110  14.667 -0.5718 -0.1278  0.1165
13017TIP3    H260467   6.374   2.258  14.687  0.3626 -0.0011  0.3734
13018TIP3   OH260468   1.910   5.096  17.022 -0.4653 -0.5924  0.2049
13018TIP3    H160469   2.004   5.080  17.032 -0.1675 -0.9668 -2.3826
13018TIP3    H260470   1.905   5.186  16.989 -1.0223 -0.5683  0.3501
13019TIP3   OH260471   5.417   0.775  17.159  0.2945 -0.2405  0.0036
13019TIP3    H160472   5.471   0.812  17.229  1.3242 -1.1446 -0.2838
13019TIP3    H260473   5.327   0.787  17.189  0.7239 -1.5270  1.9810
13020TIP3   OH260474   4.894   4.999  13.626 -0.1955 -0.1075 -0.1913
13020TIP3    H160475   4.847   4.928  13.669  0.3930  0.1306  0.8803
13020TIP3    H260476   4.977   4.961  13.598  1.1825  0.6458  2.5129
13021TIP3   OH260477   4.755   0.936  11.647  0.0297 -0.5955 -0.2280
13021TIP3    H160478   4.719   0.922  11.559 -2.5887  0.3477  0.5971
13021TIP3    H260479   4.722   0.862  11.698 -0.1097 -0.1213  0.3787
13022TIP3   OH260480   1.983   3.825   5.180  0.3943  0.1466 -0.6349
13022TIP3    H160481   1.920   3.758   5.207  0.8703 -0.5200 -1.1420
13022TIP3    H260482   1.931   3.904   5.170 -0.1399 -0.0840  0.1959
13023TIP3   OH260483   0.403   6.544  11.642 -0.2348 -0.1687  0.7080
13023TIP3    H160484   0.450   6.619  11.680 -0.2559  0.0408  0.3208
13023TIP3    H260485   0.420   6.550  11.548 -2.2158  0.7748  0.3615
13024TIP3   OH260486   6.176   3.207  16.293 -0.4547  0.0618 -0.0846
13024TIP3    H160487   6.209   3.282  16.244 -1.7485 -0.2143 -1.4573
13024TIP3    H260488   6.232   3.134  16.265 -0.5581  0.1038 -0.4105
13025TIP3   OH260489   5.696   0.758   5.575  0.1653  0.4031  0.1208
13025TIP3    H160490   5.694   0.846   5.615  0.0313  0.1337  0.7182
13025TIP3    H260491   5.781   0.723   5.601 -0.3951 -0.2244  1.1703
13026TIP3   OH260492   2.015   4.103   5.256  0.2489  1.2257 -0.0518
13026TIP3    H160493   2.054   4.114   5.169  0.4795 -0.4830 -0.1991
13026TIP3    H260494   2.058   4.025   5.292  0.2160  1.9435  1.6450
13027TIP3   OH260495   2.799   6.289  14.973 -0.4111  0.0303 -0.2044
13027TIP3    H160496   2.773   6.220  15.034 -0.4335 -0.0488 -0.3045
13027TIP3    H260497   2.855   6.246  14.909  0.1724  0.2513  0.1519
13028TIP3   OH260498   1.764   5.346  11.426  0.3601  0.6611  0.0262
13028TIP3    H160499   1.812   5.345  11.343  2.4977 -0.3657  1.2151
13028TIP3    H260500   1.792   5.426  11.470  0.6187  0.3100  0.5114
13029TIP3   OH260501   2.732   0.332  17.314  0.0086 -0.0354 -0.5098
13029TIP3    H160502   2.683   0.250  17.311 -0.3748  0.2115 -1.6938
13029TIP3    H260503   2.685   0.387  17.376 -0.4202 -0.2940 -0.6041
13030TIP3   OH260504   0.372   1.752   2.956 -0.0929  0.0734  0.1833
13030TIP3    H160505   0.344   1.753   2.864  3.2710 -1.2664 -1.0204
13030TIP3    H260506   0.335   1.670   2.991  1.3374 -1.1540 -1.0509
13031TIP3   OH260507   4.308   6.170  14.367  0.2905 -0.0256  0.6489
13031TIP3    H160508   4.298   6.210  14.453 -0.8175  0.6663  0.2205
13031TIP3    H260509   4.348   6.239  14.314  1.1328 -0.5072  0.6411
13032TIP3   OH260510   4.395   2.054  14.678  0.0028 -1.1834 -0.7810
13032TIP3    H160511   4.457   2.111  14.632  1.5626 -1.4153  0.9242
13032TIP3    H260512   4.342   2.113  14.731 -0.1994 -1.1065 -1.0691
13033TIP3   OH260513   0.962   0.899  13.930 -0.1330  0.5329  0.0882
13033TIP3    H160514   0.902   0.936  13.864 -2.2993  0.9907  2.1806
13033TIP3    H260515   0.973   0.808  13.903 -2.4954  0.1834  0.0133
13034TIP3   OH260516   3.285   2.301  14.290 -0.0942 -0.1470  0.1318
13034TIP3    H160517   3.198   2.263  14.300  0.6248 -2.3445 -1.2174
13034TIP3    H260518   3.298   2.308  14.196  1.4920 -0.6917  0.2788
13035TIP3   OH260519   4.877   6.514   2.494 -0.3934 -0.2354 -0.0585
13035TIP3    H160520   4.786   6.540   2.480 -0.0414  0.8365 -0.4772
13035TIP3    H260521   4.927   6.567   2.431  0.3573 -2.1762 -1.1844
13036TIP3   OH260522   3.452   0.934   1.055 -0.8371 -0.3470  0.4627
13036TIP3    H160523   3.401   1.009   1.085 -0.4331 -0.4151  1.3552
13036TIP3    H260524   3.454   0.943   0.960 -0.4872  0.9841  0.5763
13037TIP3   OH260525   4.016   1.458  15.873  0.3943 -0.4821 -0.3825
13037TIP3    H160526   4.011   1.544  15.915  1.6768 -0.6282  0.1173
13037TIP3    H260527   3.926   1.425  15.875 -0.1800  0.9675 -0.8639
13038TIP3   OH260528   1.889   0.885  11.856  0.0323 -0.5438 -0.4540
13038TIP3    H160529   1.968   0.845  11.820  0.1546  0.2160 -1.0484
13038TIP3    H260530   1.905   0.979  11.852 -0.6713 -0.3965 -0.0408
13039TIP3   OH260531   1.241   5.542  12.844  0.3876  0.7397  0.0389
13039TIP3    H160532   1.236   5.625  12.890  1.2301  1.1076 -0.5184
13039TIP3    H260533   1.157   5.500  12.862  0.5402  1.0174  1.6104
13040TIP3   OH260534   6.458   1.419  13.791 -0.1365 -0.5166  0.3164
13040TIP3    H160535   6.478   1.439  13.882  0.3400 -0.3232  0.1703
13040TIP3    H260536   6.526   1.357  13.764  0.6174  0.5455 -0.3325
13041TIP3   OH260537   4.078   1.588   5.261 -0.3487  0.1769  0.3304
13041TIP3    H160538   4.137   1.513   5.262 -1.4328 -0.7095  0.9943
13041TIP3    H260539   4.018   1.572   5.334 -0.5598  1.7426  0.5381
13042TIP3   OH260540   2.496   6.618  11.463 -0.1139 -0.8370  0.2444
13042TIP3    H160541   2.585   6.590  11.484 -0.9857 -2.9707  1.3960
13042TIP3    H260542   2.440   6.564  11.519 -2.0934  1.8400  1.0706
13043TIP3   OH260543   1.465   2.166   3.010 -0.7543 -0.7860  0.4754
13043TIP3    H160544   1.376   2.151   2.979  0.1031 -0.0625 -2.7300
13043TIP3    H260545   1.521   2.142   2.936  1.5226  1.9405  1.0956
13044TIP3   OH260546   2.152   3.785   6.712  0.1416  0.2517 -0.0796
13044TIP3    H160547   2.157   3.867   6.662  0.6229  0.3527  0.1292
13044TIP3    H260548   2.093   3.805   6.784 -1.4402 -0.2160 -1.1991
13045TIP3   OH260549   4.445   1.052   3.749 -0.0164  0.0176  0.2188
13045TIP3    H160550   4.472   1.116   3.683  0.3401 -0.9146 -0.5800
13045TIP3    H260551   4.470   0.967   3.711  0.2537 -0.5404  1.6010
13046TIP3   OH260552   1.816   0.367   3.482 -0.7164  0.2332  0.2438
13046TIP3    H160553   1.819   0.403   3.394 -1.4477 -0.3843 -0.0514
13046TIP3    H260554   1.790   0.440   3.538 -1.8487  0.2687 -0.2925
13047TIP3   OH260555   2.589   1.983  15.555  0.0717  0.4125 -0.3719
13047TIP3    H160556   2.628   2.062  15.592 -1.0863  0.2373  1.3040
13047TIP3    H260557   2.497   2.005  15.544 -0.5813 -1.1178  1.4725
13048TIP3   OH260558   3.483   5.687  15.917  0.3897  0.2181 -0.4865
13048TIP3    H160559   3.435   5.612  15.953  0.2497  1.4710  2.2012
13048TIP3    H260560   3.573   5.673  15.945  0.1609  1.5400  1.0631
13049TIP3   OH260561   6.299   3.585   6.604  0.2589  0.1157  0.2912
13049TIP3    H160562   6.299   3.654   6.538 -0.7506 -0.3012 -0.1757
13049TIP3    H260563   6.242   3.619   6.673  1.3093  0.5485  0.9570
13050TIP3   OH260564   3.139   4.674  11.856  0.1382 -0.4005  0.5120
13050TIP3    H160565   3.077   4.601  11.850  0.8034 -0.9625  0.3788
13050TIP3    H260566   3.210   4.651  11.797  0.1326  0.5932  0.1021
13051TIP3   OH260567   0.883   3.633   5.313 -0.4327  0.1049 -0.7943
13051TIP3    H160568   0.942   3.558   5.314 -1.3565 -0.6561 -1.1486
13051TIP3    H260569   0.808   3.605   5.365 -1.0865  0.5213 -1.4882
13052TIP3   OH260570   5.425   0.087   3.930  0.0833  0.3526 -0.0009
13052TIP3    H160571   5.333   0.095   3.909 -0.1060  0.7005  0.9050
13052TIP3    H260572   5.436  -0.004   3.958 -0.1082  0.4645  0.4413
13053TIP3   OH260573   3.916   3.817  14.277  0.5512 -0.2355 -0.2386
13053TIP3    H160574   3.905   3.727  14.310  0.4470 -0.3298 -0.5307
13053TIP3    H260575   3.888   3.872  14.350  1.2749 -0.4273  0.1964
13054TIP3   OH260576   0.356   5.441  17.274 -0.2059 -0.0208  0.3218
13054TIP3    H160577   0.371   5.366  17.331  1.5103  1.9906  2.7157
13054TIP3    H260578   0.264   5.465  17.289  0.0740  0.1429  1.8469
13055TIP3   OH260579   4.818   5.302   4.159  1.0152 -0.4044  0.4983
13055TIP3    H160580   4.798   5.225   4.107  0.9510 -1.2282  1.7031
13055TIP3    H260581   4.793   5.278   4.248  0.3481  1.2562  0.7950
13056TIP3   OH260582   6.460   4.959   1.815  0.2033  0.0926  0.1891
13056TIP3    H160583   6.493   5.009   1.891  0.3930 -0.6504  0.6015
13056TIP3    H260584   6.530   4.967   1.750 -0.3336  1.4733 -0.2582
13057TIP3   OH260585   6.102   2.890   2.120 -0.0628 -0.8444 -0.0768
13057TIP3    H160586   6.107   2.903   2.215  0.1641  0.4529 -0.2383
13057TIP3    H260587   6.012   2.913   2.097 -0.7016 -3.0427  0.0462
13058TIP3   OH260588   1.928   1.936  12.555  0.4516 -0.2023 -0.1998
13058TIP3    H160589   1.958   1.878  12.625 -0.3310  1.0463  1.2345
13058TIP3    H260590   1.977   2.017  12.568  0.5125 -0.0366 -1.3052
13059TIP3   OH260591   5.152   0.717   1.458  0.0752  0.5114  0.2959
13059TIP3    H160592   5.136   0.808   1.482  0.1396  0.2046  1.6151
13059TIP3    H260593   5.247   0.710   1.454  0.1131  0.2663  1.2858
13060TIP3   OH260594   4.366   4.118  13.116 -0.3489 -0.6878  0.2045
13060TIP3    H160595   4.393   4.125  13.207 -1.7442  0.7893  0.5265
13060TIP3    H260596   4.271   4.108  13.118 -0.3783 -0.9620 -1.0845
13061TIP3   OH260597   2.039   2.099   0.162  0.5098 -0.0498  0.3305
13061TIP3    H160598   2.123   2.054   0.163  0.0930 -0.8421  0.4977
13061TIP3    H260599   2.003   2.081   0.075  1.3404  1.9065 -0.4904
13062TIP3   OH260600   5.294   1.285  12.383  0.3515 -1.0296 -0.4001
13062TIP3    H160601   5.347   1.333  12.319  3.2900 -1.7240  1.3264
13062TIP3    H260602   5.256   1.354  12.438 -0.4237 -0.5185 -1.5404
13063TIP3   OH260603   4.198   6.117   5.290  0.2022 -0.0519 -0.0334
13063TIP3    H160604   4.275   6.158   5.329 -0.3512  1.5345 -0.5589
13063TIP3    H260605   4.123   6.163   5.328 -0.4111 -0.0607 -1.1940
13064TIP3   OH260606   2.389   6.222   4.944  0.6591 -0.4914 -0.2435
13064TIP3    H160607   2.306   6.175   4.946 -0.0425  0.7061 -0.2779
13064TIP3    H260608   2.445   6.174   5.006 -0.3395 -0.7951  0.4469
13065TIP3   OH260609   2.442   2.047  15.878 -0.3458 -0.3941  0.4732
13065TIP3    H160610   2.365   2.097  15.851 -0.8040 -0.5639  1.4162
13065TIP3    H260611   2.426   2.028  15.970  0.5821 -0.8951  0.5359
13066TIP3   OH260612   3.162   2.031  13.541  0.0177 -0.2532 -0.8694
13066TIP3    H160613   3.254   2.024  13.564 -0.0574  1.1561 -0.0718
13066TIP3    H260614   3.162   2.059  13.449  0.3733 -0.3491 -0.8989
13067TIP3   OH260615   4.953   3.512   0.752 -0.2153 -0.1512  0.1658
13067TIP3    H160616   5.019   3.555   0.806  1.4182 -1.8973 -0.3312
13067TIP3    H260617   4.883   3.489   0.813 -0.0764  1.1185  0.8329
13068TIP3   OH260618   2.169   4.394   3.091 -0.0359  0.8790 -0.6940
13068TIP3    H160619   2.156   4.377   2.998 -0.2952 -0.1581 -0.4834
13068TIP3    H260620   2.102   4.341   3.134  1.7320 -0.7532  0.2090
13069TIP3   OH260621   4.120   1.413   3.503 -0.4449 -0.1485 -0.1378
13069TIP3    H160622   4.083   1.327   3.483  1.0761 -0.9750  0.4237
13069TIP3    H260623   4.116   1.419   3.598  1.8023 -0.7562  0.0475
13070TIP3   OH260624   1.865   2.130  11.820 -0.5471 -0.0426 -0.1136
13070TIP3    H160625   1.852   2.035  11.810 -0.5397 -0.2556  1.5945
13070TIP3    H260626   1.813   2.168  11.749 -1.5433 -1.2786 -0.0890
13071TIP3   OH260627   3.208   1.296   4.156  0.7295  0.3662  0.4788
13071TIP3    H160628   3.262   1.217   4.146 -1.2313 -0.8236 -1.5589
13071TIP3    H260629   3.185   1.297   4.249  0.5826 -1.6503  0.5058
13072TIP3   OH260630   3.406   0.635   5.941 -0.1348  0.2636  0.3087
13072TIP3    H160631   3.398   0.608   6.033  0.4495  1.9961  0.9189
13072TIP3    H260632   3.384   0.728   5.942 -0.6625  0.1780 -1.4187
13073TIP3   OH260633   3.482   1.373   2.690 -0.2761 -0.1850 -0.3304
13073TIP3    H160634   3.429   1.452   2.702 -2.6604 -1.9597  2.6254
13073TIP3    H260635   3.569   1.398   2.721 -0.7010  1.5055 -0.3750
13074TIP3   OH260636   4.993   4.290  16.123  0.1357 -0.0816 -0.0647
13074TIP3    H160637   5.036   4.299  16.208 -1.0062  0.7784  0.4522
13074TIP3    H260638   5.040   4.350  16.066  1.3278 -1.1388 -0.2446
13075TIP3   OH260639   6.547   4.064   5.714 -0.7835 -0.0744  0.8626
13075TIP3    H160640   6.509   4.018   5.639 -0.6851 -0.6273  1.1447
13075TIP3    H260641   6.480   4.126   5.741 -0.1487  1.3921 -0.7811
13076TIP3   OH260642   3.258   0.272   0.800  0.0910 -0.4466 -0.1872
13076TIP3    H160643   3.322   0.276   0.872 -0.4843  1.5172  0.2929
13076TIP3    H260644   3.310   0.257   0.722  0.8275 -1.7358  0.5234
13077TIP3   OH260645   4.521   4.105  16.784 -0.5374 -0.6016  0.2907
13077TIP3    H160646   4.561   4.187  16.811 -2.1902  0.7043 -0.9548
13077TIP3    H260647   4.578   4.072  16.714 -0.4855  0.1449 -0.0319
13078TIP3   OH260648   0.967   0.656  15.067  0.1221  0.2629  0.0098
13078TIP3    H160649   1.019   0.697  14.998 -1.0574  0.3576 -0.8588
13078TIP3    H260650   0.963   0.563  15.041  0.8029  0.0369  0.6895
13079TIP3   OH260651   6.418   2.893   4.839  0.2099 -0.2438 -0.3430
13079TIP3    H160652   6.418   2.805   4.803  1.1090 -0.0013 -0.9618
13079TIP3    H260653   6.510   2.920   4.838  0.4196 -0.4620  2.7388
13080TIP3   OH260654   1.596   5.865   2.168  0.2371  0.7285 -0.3773
13080TIP3    H160655   1.603   5.772   2.143  1.5164  1.1447 -1.7403
13080TIP3    H260656   1.518   5.869   2.223  0.1412 -1.1561 -0.2872
13081TIP3   OH260657   0.311   6.345   5.660  0.3658 -0.2782 -0.1835
13081TIP3    H160658   0.382   6.406   5.643 -1.3269  1.3880 -1.7970
13081TIP3    H260659   0.333   6.305   5.744  2.2334  1.5544  0.2803
13082TIP3   OH260660   1.489   2.329   5.928  0.3704 -0.6133 -0.4351
13082TIP3    H160661   1.455   2.248   5.966  1.1160 -1.1307 -0.8416
13082TIP3    H260662   1.549   2.299   5.859 -0.9652  0.2809 -2.0478
13083TIP3   OH260663   3.500   4.794  12.079 -0.4835  0.1996 -0.1560
13083TIP3    H160664   3.444   4.872  12.073 -1.8054 -0.7851 -1.2632
13083TIP3    H260665   3.440   4.721  12.070  0.9267 -0.9317 -0.7156
13084TIP3   OH260666   4.878   1.358  16.141  0.5165 -0.2377  0.0696
13084TIP3    H160667   4.830   1.334  16.062 -0.3240 -0.3907  0.6167
13084TIP3    H260668   4.959   1.398  16.109 -0.1501  0.3784 -0.8664
13085TIP3   OH260669   5.344   4.839   5.786 -0.0435 -0.2982  0.0661
13085TIP3    H160670   5.330   4.751   5.821  1.0228 -0.0468  1.1987
13085TIP3    H260671   5.425   4.833   5.736 -0.8220 -0.3186 -1.2240
13086TIP3   OH260672   2.548   1.512   1.363 -0.2127 -0.1640  0.2703
13086TIP3    H160673   2.586   1.424   1.372 -0.0120  0.1197  2.7584
13086TIP3    H260674   2.474   1.500   1.304  0.6777 -1.7084 -0.6058
13087TIP3   OH260675   0.019   0.303   0.410 -0.2585 -1.0604 -0.3617
13087TIP3    H160676  -0.049   0.265   0.353 -0.3455 -1.2648 -0.1227
13087TIP3    H260677  -0.030   0.347   0.479 -0.1746 -2.6557  0.7887
13088TIP3   OH260678   5.116   6.579  14.743 -0.5841 -0.0524 -0.0655
13088TIP3    H160679   5.168   6.561  14.665 -0.7993  0.3943 -0.3171
13088TIP3    H260680   5.029   6.603  14.710 -0.4199  1.0632  0.2541
13089TIP3   OH260681   4.984   5.083   5.433  0.1234 -0.1575 -0.4515
13089TIP3    H160682   5.038   5.139   5.488  1.4764 -1.7964 -0.0461
13089TIP3    H260683   5.018   4.995   5.447 -1.7355 -1.0710 -1.3022
13090TIP3   OH260684   0.838   4.324   1.836 -0.4278 -0.1171  0.6369
13090TIP3    H160685   0.925   4.285   1.831 -0.5191 -0.2432 -0.0874
13090TIP3    H260686   0.851   4.404   1.887 -0.1533 -0.8351  1.7360
13091TIP3   OH260687   4.134   6.508   5.670 -0.0478 -0.3492 -0.2180
13091TIP3    H160688   4.163   6.597   5.691  0.7036 -0.6198 -0.0761
13091TIP3    H260689   4.140   6.502   5.575  0.0599 -0.3021 -0.2141
13092TIP3   OH260690   5.955   2.089  10.677  0.1028  0.1155 -0.3521
13092TIP3    H160691   6.023   2.038  10.634 -0.1871 -0.4008 -0.2103
13092TIP3    H260692   6.001   2.163  10.716  0.3760  0.5292 -1.4482
13093TIP3   OH260693   0.084   4.206   3.576  0.1185 -0.6766  0.3805
13093TIP3    H160694   0.044   4.180   3.659  0.9630 -0.4083  0.8821
13093TIP3    H260695   0.024   4.173   3.509 -0.3850 -1.2146  1.0835
13094TIP3   OH260696   4.329   3.370   5.181 -0.4537 -0.1256 -0.2025
13094TIP3    H160697   4.308   3.384   5.089 -0.0982  0.6249 -0.1789
13094TIP3    H260698   4.351   3.277   5.187 -0.7950 -0.2503 -0.8073
13095TIP3   OH260699   1.165   2.239   3.745  0.0374 -0.4215 -0.3483
13095TIP3    H160700   1.166   2.144   3.728  1.5060 -0.6818  0.8509
13095TIP3    H260701   1.073   2.261   3.754 -0.2856 -2.1839  1.4030
13096TIP3   OH260702   6.044   2.851  11.943 -0.2825 -0.2331 -0.2435
13096TIP3    H160703   6.035   2.869  11.850 -0.1251  0.8286 -0.0735
13096TIP3    H260704   5.962   2.884  11.981 -0.7864 -1.5827 -0.1162
13097TIP3   OH260705   3.082   0.147  14.399 -0.6949  0.1549 -0.3981
13097TIP3    H160706   3.154   0.085  14.411 -0.4275  0.5911  0.3066
13097TIP3    H260707   3.021   0.126  14.469 -0.4859  0.8462 -0.0048
13098TIP3   OH260708   1.594   0.558  16.185 -0.4187  0.4151 -0.0783
13098TIP3    H160709   1.619   0.541  16.276  3.1088 -1.3578 -1.1693
13098TIP3    H260710   1.586   0.653  16.180  0.8207  0.6841  1.8115
13099TIP3   OH260711   3.074   5.122  13.072 -0.3474  0.0039 -0.2311
13099TIP3    H160712   3.112   5.180  13.139  2.1825 -1.7788  0.0553
13099TIP3    H260713   3.108   5.035  13.095 -0.6894 -0.9258 -2.9499
13100TIP3   OH260714   0.273   6.680  13.122  0.3157  0.5238  0.1114
13100TIP3    H160715   0.325   6.711  13.196  1.2361 -0.5193 -0.0681
13100TIP3    H260716   0.275   6.584  13.130 -0.5631  0.4281 -0.6070
13101TIP3   OH260717   3.848   3.639   0.732 -0.1980  0.0014  0.1448
13101TIP3    H160718   3.923   3.665   0.678 -0.4938 -1.1959 -0.8901
13101TIP3    H260719   3.857   3.691   0.811  2.2541 -0.7650  0.4561
13102TIP3   OH260720   0.989   0.543  16.459 -0.4499 -0.5001 -0.1547
13102TIP3    H160721   0.937   0.617  16.490 -1.5776 -1.4698  0.3303
13102TIP3    H260722   0.975   0.542  16.365 -0.7059 -0.2939 -0.1218
13103TIP3   OH260723   6.472   6.174   4.782  0.2194 -0.2734 -0.1792
13103TIP3    H160724   6.495   6.150   4.692  1.1386 -1.4789  0.3411
13103TIP3    H260725   6.393   6.124   4.801  0.5813 -0.7929 -0.0080
13104TIP3   OH260726   6.348   3.595   0.725 -0.0405  0.0579  0.2795
13104TIP3    H160727   6.380   3.650   0.796 -0.1488 -0.1498  0.4879
13104TIP3    H260728   6.425   3.544   0.699  0.2420  0.7747 -0.3641
13105TIP3   OH260729   2.612   1.789  13.238  0.6037 -0.4271  0.2492
13105TIP3    H160730   2.617   1.864  13.298  0.9044 -0.0465 -0.2374
13105TIP3    H260731   2.703   1.762  13.227  0.3837 -1.9182  1.6970
13106TIP3   OH260732   5.751   5.679  17.116  0.3604  0.0842 -0.3201
13106TIP3    H160733   5.745   5.624  17.038  2.2027  0.7532 -1.0006
13106TIP3    H260734   5.842   5.669  17.145  0.0832  0.9509  0.9126
13107TIP3   OH260735   6.439   0.631   5.103 -0.1749 -0.2379 -0.0256
13107TIP3    H160736   6.409   0.704   5.157 -0.0874 -1.6568  2.0929
13107TIP3    H260737   6.531   0.649   5.087  0.1679 -0.4301  1.5326
13108TIP3   OH260738   4.148   2.724   5.257 -0.8389 -0.3272 -0.1362
13108TIP3    H160739   4.238   2.707   5.284 -0.2759  2.2719 -0.1179
13108TIP3    H260740   4.108   2.769   5.331 -1.2954  0.9324 -1.0931
13109TIP3   OH260741   2.450   5.378   3.571  0.6879  0.2844  0.0412
13109TIP3    H160742   2.396   5.327   3.631  0.4092  0.1545 -0.3203
13109TIP3    H260743   2.391   5.444   3.535  0.6530 -0.1261 -0.6819
13110TIP3   OH260744   1.050   6.529   2.574  0.3029 -0.1909 -0.0893
13110TIP3    H160745   1.013   6.570   2.652  2.6038  1.5814  0.2110
13110TIP3    H260746   1.140   6.507   2.600 -0.0486 -3.1887 -1.0971
13111TIP3   OH260747   2.902   0.951  14.350 -0.0278 -0.2309 -0.3807
13111TIP3    H160748   2.827   0.897  14.377  0.3089 -0.1701  0.7339
13111TIP3    H260749   2.869   1.003  14.277 -1.1799  0.0371  0.3089
13112TIP3   OH260750   2.074   3.741   4.888 -0.0704  0.1376  0.0616
13112TIP3    H160751   2.131   3.791   4.947  0.9786  0.8703 -1.4959
13112TIP3    H260752   2.045   3.667   4.941  1.7552  0.1245  1.1595
13113TIP3   OH260753   4.816   0.256  14.308 -0.5510  0.7406  0.7491
13113TIP3    H160754   4.829   0.348  14.284 -0.6096  0.6226  0.2549
13113TIP3    H260755   4.736   0.257  14.361 -0.2195  1.0519  1.2524
13114TIP3   OH260756   2.605   2.547  12.167  0.2143  0.3966  0.3977
13114TIP3    H160757   2.622   2.561  12.074 -2.3943  2.2951  0.0693
13114TIP3    H260758   2.527   2.491  12.169 -0.0569  0.7810  1.3989
13115TIP3   OH260759   4.685   6.219  12.310 -0.1536  0.1495 -0.2210
13115TIP3    H160760   4.612   6.252  12.258 -0.1706 -0.7748 -0.8015
13115TIP3    H260761   4.751   6.193  12.246 -0.4032 -1.5596  0.1656
13116TIP3   OH260762   0.937   3.389  11.226 -0.2586  0.1554 -0.1338
13116TIP3    H160763   0.974   3.462  11.176  1.0263  0.2486  0.8878
13116TIP3    H260764   0.944   3.313  11.169  0.1593  0.4643 -0.4932
13117TIP3   OH260765   0.657   3.877  16.648  1.3430  0.2187 -0.0215
13117TIP3    H160766   0.598   3.952  16.655  0.6361 -0.0510 -2.2751
13117TIP3    H260767   0.599   3.801  16.655  1.7640 -0.0895  0.1323
13118TIP3   OH260768   4.132   1.108  14.199  0.2444 -0.0983  0.0722
13118TIP3    H160769   4.043   1.077  14.218 -0.1834  1.4824  0.8655
13118TIP3    H260770   4.119   1.186  14.145  1.1659  0.0495  0.0444
13119TIP3   OH260771   1.029   4.515   5.907 -0.0910  0.7052  0.4741
13119TIP3    H160772   0.993   4.486   5.991 -1.5815 -0.6198 -0.5767
13119TIP3    H260773   1.109   4.464   5.896  0.9717  1.9873  1.7387
13120TIP3   OH260774   5.171   1.482   0.277 -0.2288 -0.1878 -0.3633
13120TIP3    H160775   5.201   1.519   0.194  0.3350 -0.3251 -0.2228
13120TIP3    H260776   5.220   1.530   0.344 -0.4973 -0.2497 -0.1186
13121TIP3   OH260777   5.871   6.050  16.607  0.1608 -0.1486 -0.0082
13121TIP3    H160778   5.812   6.105  16.556  0.5277  1.2091  0.9741
13121TIP3    H260779   5.839   6.057  16.697  1.5878  0.3507  0.4887
13122TIP3   OH260780   0.663   4.941   5.715 -0.7776 -0.0778 -0.2332
13122TIP3    H160781   0.651   5.027   5.675  0.3642  1.3177  2.2599
13122TIP3    H260782   0.575   4.915   5.743 -1.1055  0.3259 -0.8706
13123TIP3   OH260783   6.500   2.469  16.352  0.0211  0.1658 -0.5329
13123TIP3    H160784   6.506   2.456  16.257  1.2773  0.5064 -0.5190
13123TIP3    H260785   6.589   2.493  16.378  0.0213 -1.3253  0.9572
13124TIP3   OH260786   5.029   0.021   6.013 -0.7868 -0.2635  0.2565
13124TIP3    H160787   4.959   0.044   6.074 -2.4692 -0.9439 -1.3504
13124TIP3    H260788   4.999   0.053   5.928  1.9779  1.5981 -0.1522
13125TIP3   OH260789   3.193   3.396   5.197 -0.9614  0.1140  0.1970
13125TIP3    H160790   3.118   3.444   5.162 -1.7571 -0.8078  0.5839
13125TIP3    H260791   3.190   3.413   5.291 -0.1223  0.8224  0.1039
13126TIP3   OH260792   3.577   2.903   5.823 -0.0182  0.7534 -0.3053
13126TIP3    H160793   3.660   2.949   5.813 -0.3608  1.4049 -0.2355
13126TIP3    H260794   3.554   2.874   5.734  0.3567  0.4289 -0.2984
13127TIP3   OH260795   4.124   5.750   3.658 -0.6358 -0.0382  0.4105
13127TIP3    H160796   4.135   5.812   3.586 -2.2190 -0.7697 -0.5104
13127TIP3    H260797   4.200   5.692   3.650  0.2297  1.0283  0.5609
13128TIP3   OH260798   5.706   3.056  12.852 -0.1036  0.3595 -0.5681
13128TIP3    H160799   5.706   3.001  12.930  1.5950  0.7076 -0.2830
13128TIP3    H260800   5.734   3.142  12.883  4.7275 -0.3877 -1.9969
13129TIP3   OH260801   1.621   2.226  15.843  0.6680  0.5907  0.0648
13129TIP3    H160802   1.711   2.239  15.873  1.1975 -0.1996 -1.0898
13129TIP3    H260803   1.595   2.143  15.882  1.5698 -0.7473 -1.9728
13130TIP3   OH260804   5.774   5.035  17.056 -0.2239  0.5581 -0.5041
13130TIP3    H160805   5.840   4.966  17.067 -1.6617 -0.7057  0.9987
13130TIP3    H260806   5.802   5.104  17.116  0.9975  1.1238 -1.6875
13131TIP3   OH260807   4.143   4.910   1.895  0.5222  0.4918 -0.6013
13131TIP3    H160808   4.103   4.925   1.809  1.1735  1.3736 -0.7668
13131TIP3    H260809   4.096   4.969   1.953 -1.2553 -1.4950  0.0852
13132TIP3   OH260810   3.325   1.105   3.945  0.3917 -0.4352  0.0805
13132TIP3    H160811   3.275   1.041   3.894  0.5294 -0.8639  0.4854
13132TIP3    H260812   3.344   1.061   4.028  0.6594  0.0561  0.2826
13133TIP3   OH260813   1.046   4.266  14.216 -0.2569  0.4025  0.1531
13133TIP3    H160814   1.070   4.355  14.188  1.8132  0.5361  2.0433
13133TIP3    H260815   1.079   4.209  14.146 -2.9090  1.0882 -1.8210
13134TIP3   OH260816   6.253   4.012   1.072 -0.0237 -0.2787  0.7338
13134TIP3    H160817   6.349   4.016   1.074 -0.0295 -0.2329  1.1512
13134TIP3    H260818   6.233   3.919   1.065  0.0536 -0.2895  0.6610
13135TIP3   OH260819   6.102   3.125   4.950 -0.2236  0.2045  0.2189
13135TIP3    H160820   6.019   3.130   4.904 -0.1916  1.4867  0.2506
13135TIP3    H260821   6.138   3.214   4.944  1.3505 -0.4273 -0.1831
13136TIP3   OH260822   1.337   6.645  11.244 -0.4382  0.7441  0.2228
13136TIP3    H160823   1.295   6.655  11.158  0.4642  1.4497 -0.1441
13136TIP3    H260824   1.405   6.712  11.246  0.5734 -0.2687  0.8826
13137TIP3   OH260825   1.264   3.643   1.720 -0.8714 -0.2368  0.7783
13137TIP3    H160826   1.179   3.683   1.701 -0.1976  1.1127  0.4521
13137TIP3    H260827   1.297   3.615   1.635  0.2767  1.9595  0.4083
13138TIP3   OH260828   1.656   4.458   4.316 -0.4528  0.4151 -0.3013
13138TIP3    H160829   1.660   4.363   4.323  0.2745  0.5554  1.5250
13138TIP3    H260830   1.593   4.485   4.383 -0.2307  1.2617 -0.4133
13139TIP3   OH260831   2.689   0.933  15.375 -0.3882  0.0308 -0.0535
13139TIP3    H160832   2.648   0.957  15.458 -1.0911  0.0176 -0.3899
13139TIP3    H260833   2.648   0.990  15.310 -0.0431 -0.1502 -0.4351
13140TIP3   OH260834   5.789   4.265  14.891  0.1792 -0.7330  0.8277
13140TIP3    H160835   5.792   4.343  14.946  0.1513 -0.3370  0.2826
13140TIP3    H260836   5.852   4.283  14.821 -0.4616 -0.8210  0.2169
13141TIP3   OH260837   3.155   5.736  16.866  0.5384  0.7167  0.4409
13141TIP3    H160838   3.138   5.749  16.959  0.1904 -2.6747  0.9611
13141TIP3    H260839   3.071   5.707  16.830  1.0054  0.6816 -0.6774
13142TIP3   OH260840   1.508   1.197   3.444 -0.0403  0.2949 -0.7535
13142TIP3    H160841   1.541   1.248   3.370  0.5519  0.0638 -0.6538
13142TIP3    H260842   1.428   1.243   3.471  0.4850  1.1760 -0.6637
13143TIP3   OH260843   3.932   5.581  11.962  0.5461 -0.4036 -0.1508
13143TIP3    H160844   3.927   5.610  11.870 -0.6203  1.0888  0.3371
13143TIP3    H260845   3.946   5.661  12.011  2.7466 -1.3710  0.9032
13144TIP3   OH260846   5.529   3.998   0.615 -0.4952  0.1246  0.7143
13144TIP3    H160847   5.599   3.951   0.568 -1.7089 -1.2007  0.1535
13144TIP3    H260848   5.515   3.946   0.694 -0.0721  1.0367  1.3968
13145TIP3   OH260849   6.559   4.714   4.196 -0.2318 -0.4118  0.2642
13145TIP3    H160850   6.483   4.709   4.254  1.0101  0.0556  2.0121
13145TIP3    H260851   6.626   4.661   4.240  1.0780  0.8038 -0.2085
13146TIP3   OH260852   5.339   0.972   5.459  0.0076 -0.1478  0.1264
13146TIP3    H160853   5.306   0.979   5.549  0.6074  1.5201  0.2406
13146TIP3    H260854   5.417   1.028   5.457 -0.3112  0.2912 -1.5762
13147TIP3   OH260855   0.870   4.685   0.325  0.4288 -0.4140 -0.2317
13147TIP3    H160856   0.920   4.741   0.267  0.7268 -0.4038  0.0308
13147TIP3    H260857   0.888   4.596   0.294  1.0035 -0.4415  0.1593
13148TIP3   OH260858   1.364   4.324   0.975  0.2242 -0.0788  0.2322
13148TIP3    H160859   1.316   4.321   1.058 -0.5096  0.2560 -0.1824
13148TIP3    H260860   1.440   4.380   0.994  0.5686 -0.7562  0.9342
13149TIP3   OH260861   1.460   5.394  13.025  0.5000  0.4903  0.2464
13149TIP3    H160862   1.402   5.455  12.979 -0.6766 -0.7032  0.1170
13149TIP3    H260863   1.472   5.321  12.965 -2.0711 -1.7016  2.1931
13150TIP3   OH260864   6.106   0.664   1.817 -0.2649  0.0216  0.0059
13150TIP3    H160865   6.200   0.656   1.799 -0.3587 -0.0648 -0.4635
13150TIP3    H260866   6.101   0.683   1.911  0.1142 -2.3676  0.5780
13151TIP3   OH260867   5.617   2.264   6.125  0.5687 -0.1858 -0.3218
13151TIP3    H160868   5.587   2.255   6.216 -2.0716 -0.0818 -1.0841
13151TIP3    H260869   5.704   2.225   6.124  0.6062 -0.3420  2.2125
13152TIP3   OH260870   5.822   3.387   4.139  0.0461  0.1798 -0.0658
13152TIP3    H160871   5.803   3.480   4.126  0.5544  0.2750 -0.1431
13152TIP3    H260872   5.881   3.384   4.214  0.1567 -0.0640 -0.1592
13153TIP3   OH260873   5.019   5.005  16.946 -0.3750  0.6769 -0.2303
13153TIP3    H160874   4.943   4.960  16.982 -0.3401  1.0327  0.2914
13153TIP3    H260875   5.077   5.019  17.021  1.2880 -1.6279 -0.9345
13154TIP3   OH260876   4.573   2.150  16.696 -0.1822 -0.0940  0.1079
13154TIP3    H160877   4.571   2.115  16.607  0.5625 -0.0428  0.0643
13154TIP3    H260878   4.654   2.200  16.700  0.2120 -0.7907  1.0785
13155TIP3   OH260879   4.171   1.969   4.501 -0.3346 -0.3549 -0.4359
13155TIP3    H160880   4.163   2.044   4.443 -0.0620  0.6826  0.8072
13155TIP3    H260881   4.107   1.906   4.468 -2.6439  1.5299  0.1315
13156TIP3   OH260882   2.728   5.755   1.962  0.4604 -0.1362 -1.1187
13156TIP3    H160883   2.820   5.751   1.987  0.6764 -2.4176 -2.0461
13156TIP3    H260884   2.728   5.740   1.867 -0.7142  2.7710 -1.6956
13157TIP3   OH260885   6.130   0.189  12.292  0.5647 -0.0731  0.3768
13157TIP3    H160886   6.170   0.157  12.210 -1.5369 -0.0673 -0.7108
13157TIP3    H260887   6.142   0.284  12.288 -2.2852  0.3151 -1.5906
13158TIP3   OH260888   3.166   3.628   0.350  0.0864 -0.4386  0.1382
13158TIP3    H160889   3.229   3.683   0.304 -0.2877 -0.2406 -0.1423
13158TIP3    H260890   3.190   3.538   0.325  0.7606 -0.4110  0.6811
13159TIP3   OH260891   4.494   3.735  11.597  0.5428 -0.1137  0.3722
13159TIP3    H160892   4.477   3.829  11.592 -1.8709 -0.4828  0.6070
13159TIP3    H260893   4.455   3.699  11.517  0.9208 -0.9761  0.5633
13160TIP3   OH260894   0.672   6.293  12.607 -0.2072  0.2426  0.2231
13160TIP3    H160895   0.676   6.215  12.662 -0.9686 -1.5318 -2.0805
13160TIP3    H260896   0.584   6.328  12.622 -0.8419 -0.9063 -0.6754
13161TIP3   OH260897   2.343   5.103  10.363 -0.1017 -0.1958  0.1166
13161TIP3    H160898   2.394   5.144  10.433  1.2315  0.1850 -1.0303
13161TIP3    H260899   2.252   5.115  10.389  0.3111 -2.4059  3.1126
13162TIP3   OH260900   6.762   0.922  14.075  0.4168 -0.4478  0.0193
13162TIP3    H160901   6.720   0.923  13.989  1.1694  0.8566 -0.3618
13162TIP3    H260902   6.703   0.970  14.132  0.5305 -0.1809 -0.0861
13163TIP3   OH260903   1.892   5.127  13.854 -0.6116 -0.2239 -0.0717
13163TIP3    H160904   1.825   5.065  13.883 -0.3875  0.1686  1.3876
13163TIP3    H260905   1.973   5.076  13.852 -0.8881 -0.6476 -1.6380
13164TIP3   OH260906   0.231   6.119  11.057  0.6577  0.5979  0.4403
13164TIP3    H160907   0.155   6.087  11.007  0.9370  1.1082 -0.3309
13164TIP3    H260908   0.193   6.149  11.140  0.1358  0.0450  0.4114
13165TIP3   OH260909   1.511   1.545   5.977  0.4503  0.1708 -0.0168
13165TIP3    H160910   1.542   1.616   6.034 -1.5818  0.4587  0.8000
13165TIP3    H260911   1.456   1.491   6.033  0.2789 -0.8872 -1.1606
13166TIP3   OH260912   6.287   2.022   6.046 -0.4261  0.3034 -0.3232
13166TIP3    H160913   6.250   2.008   5.959 -2.2259 -0.5033  0.5341
13166TIP3    H260914   6.212   2.042   6.102  0.8140  2.0978  0.8307
13167TIP3   OH260915   5.397   6.129  15.690  0.2423  0.0323  0.1101
13167TIP3    H160916   5.324   6.166  15.740  0.6155 -0.5641  1.1219
13167TIP3    H260917   5.415   6.195  15.623 -1.4196  0.0576 -0.3586
13168TIP3   OH260918   6.688   6.393   2.624 -0.4166 -0.9219  0.2497
13168TIP3    H160919   6.681   6.482   2.591  0.4932 -1.5422 -1.8030
13168TIP3    H260920   6.751   6.398   2.695 -0.9419  0.1680  0.6604
13169TIP3   OH260921   3.275   6.623   3.649 -0.5931  0.5092 -0.3710
13169TIP3    H160922   3.185   6.654   3.643 -0.4350  0.7928 -1.3690
13169TIP3    H260923   3.307   6.659   3.731 -1.5017  0.0960  0.1836
13170TIP3   OH260924   5.131   2.875   3.960 -0.2506  0.1244  0.1226
13170TIP3    H160925   5.134   2.971   3.965 -2.8783  0.4388 -1.9365
13170TIP3    H260926   5.193   2.853   3.890 -0.4802  0.4272 -0.1765
13171TIP3   OH260927   6.130   3.001   6.585 -0.0519  0.2547 -0.2045
13171TIP3    H160928   6.122   3.093   6.558 -0.2503  0.4987  0.6408
13171TIP3    H260929   6.107   3.002   6.678  0.1943 -0.6170 -0.1289
13172TIP3   OH260930   3.069   4.989  16.459  0.0737  0.3858 -0.1203
13172TIP3    H160931   3.150   5.039  16.468 -0.9813  2.2445 -0.4566
13172TIP3    H260932   3.007   5.050  16.419 -1.6035 -0.8645  0.4385
13173TIP3   OH260933   2.251   6.239  11.360  0.6546 -0.4797  0.0302
13173TIP3    H160934   2.330   6.248  11.413 -2.3137  3.1824  4.5569
13173TIP3    H260935   2.213   6.156  11.387  1.2850 -0.7021  0.2636
13174TIP3   OH260936   4.575   2.063  16.419  0.2346  0.0120 -0.4577
13174TIP3    H160937   4.589   1.974  16.453 -0.1428  0.2340  0.2929
13174TIP3    H260938   4.632   2.068  16.342  1.3249 -0.4125  0.2982
13175TIP3   OH260939   5.258   3.252  15.584  0.2628  0.4025  0.4024
13175TIP3    H160940   5.282   3.238  15.675 -0.8388 -3.8767  0.2413
13175TIP3    H260941   5.334   3.220  15.534 -0.5530 -0.7459 -0.1292
13176TIP3   OH260942   3.671   0.374  15.447  0.1412 -0.0487 -0.4535
13176TIP3    H160943   3.688   0.455  15.495 -0.6006  0.1189 -0.4545
13176TIP3    H260944   3.751   0.358  15.397  0.7138  0.0703  0.4201
13177TIP3   OH260945   2.340   0.512  13.613  0.0911 -0.3812 -0.3332
13177TIP3    H160946   2.337   0.476  13.701  0.8665  0.3396 -0.0016
13177TIP3    H260947   2.405   0.458  13.567  0.4283 -0.1194 -0.1657
13178TIP3   OH260948   3.938   3.756   0.037  0.4674 -0.2919  0.1721
13178TIP3    H160949   3.937   3.698  -0.039  0.0713 -0.7698  0.5355
13178TIP3    H260950   4.018   3.733   0.084  1.9267  1.5543 -1.2524
13179TIP3   OH260951   0.801   1.917   3.884 -0.0367 -1.1826 -0.7710
13179TIP3    H160952   0.793   1.932   3.790 -0.5886 -0.8640 -0.6832
13179TIP3    H260953   0.713   1.933   3.918  0.4967  0.3236  0.0157
13180TIP3   OH260954   4.654   5.496  16.282  0.4273  0.3377  0.0657
13180TIP3    H160955   4.650   5.499  16.186  2.3496  2.1172 -0.0185
13180TIP3    H260956   4.738   5.455  16.301  0.6832  1.2551  0.9746
13181TIP3   OH260957   6.434   0.139   2.831  0.8261  0.5214  0.4559
13181TIP3    H160958   6.523   0.173   2.842  1.1092  0.3625 -1.1374
13181TIP3    H260959   6.421   0.082   2.906  2.4860 -0.3070  0.1550
13182TIP3   OH260960   1.516   2.279  13.563  0.1314 -0.3165 -0.2391
13182TIP3    H160961   1.470   2.220  13.502 -2.1506  0.1830  0.8667
13182TIP3    H260962   1.501   2.366  13.527  0.5814 -0.1719 -0.0760
13183TIP3   OH260963   2.412   5.052  16.239 -0.2792 -0.3675 -0.3969
13183TIP3    H160964   2.392   5.045  16.146 -0.8072 -0.5447 -0.2781
13183TIP3    H260965   2.327   5.069  16.280  0.0319  0.3021 -0.0072
13184TIP3   OH260966   0.625   1.069   3.856 -0.4480 -0.3753 -0.2708
13184TIP3    H160967   0.565   1.026   3.795  0.4640 -0.6386 -1.0021
13184TIP3    H260968   0.570   1.091   3.932 -1.3660 -1.0052 -0.7312
13185TIP3   OH260969   3.485   5.299  12.105  0.7174  0.9100  0.7697
13185TIP3    H160970   3.533   5.218  12.121  0.7550  0.6728 -0.3980
13185TIP3    H260971   3.553   5.367  12.102  0.7837  0.8477  0.8625
13186TIP3   OH260972   2.580   3.451  11.388 -0.9432 -0.5646  0.0484
13186TIP3    H160973   2.533   3.369  11.371 -0.8830 -0.8244  1.1000
13186TIP3    H260974   2.598   3.486  11.300 -1.7183 -1.2399 -0.4005
13187TIP3   OH260975   2.547   5.286  13.971  0.2109 -0.1335  0.0186
13187TIP3    H160976   2.549   5.328  14.056  0.7729 -0.9301  0.4142
13187TIP3    H260977   2.466   5.317  13.930  0.1743  0.6195  0.6434
13188TIP3   OH260978   0.992   0.434  12.493 -0.1594 -0.0369 -0.1308
13188TIP3    H160979   1.019   0.362  12.550  0.8948  0.7462  0.3936
13188TIP3    H260980   0.908   0.463  12.529  0.2636  0.1363  0.7350
13189TIP3   OH260981   1.262   6.595  15.643 -0.1482  0.1147 -0.5111
13189TIP3    H160982   1.320   6.667  15.667 -0.7677  0.4609 -0.0313
13189TIP3    H260983   1.258   6.598  15.547 -0.4353  0.9327 -0.4764
13190TIP3   OH260984   6.207   4.981   2.265 -0.2810  0.0325  0.1938
13190TIP3    H160985   6.121   4.965   2.225 -0.9331  1.3669  0.9733
13190TIP3    H260986   6.249   5.044   2.207  1.0148 -2.0277 -1.2263
13191TIP3   OH260987   1.913   1.102  14.427  0.1852 -0.0036  0.2511
13191TIP3    H160988   1.963   1.064  14.355 -0.4350  0.6323 -0.5248
13191TIP3    H260989   1.826   1.118  14.391 -0.4240 -0.5519  1.4170
13192TIP3   OH260990   2.656   5.639  13.346 -0.4237  0.1858 -0.3821
13192TIP3    H160991   2.642   5.586  13.268 -0.8586 -0.2812  0.0107
13192TIP3    H260992   2.635   5.581  13.419  0.8738  0.3373  0.1247
13193TIP3   OH260993   4.142   2.561   4.094  0.1269 -0.1744 -0.0581
13193TIP3    H160994   4.145   2.650   4.060 -1.0800 -0.6249 -1.4589
13193TIP3    H260995   4.068   2.520   4.048  0.7573 -1.9454  0.4164
13194TIP3   OH260996   3.730   1.732  12.349 -0.6316 -0.7033  0.4358
13194TIP3    H160997   3.759   1.649  12.310 -1.2086 -0.9003  0.4234
13194TIP3    H260998   3.635   1.729  12.345 -0.7410  1.5285 -2.9997
13195TIP3   OH260999   4.323   3.025  11.576  0.0222  0.0139 -0.2548
13195TIP3    H161000   4.346   2.968  11.503 -1.7604  0.4672 -1.2343
13195TIP3    H261001   4.336   3.114  11.541  0.3828  0.2261  0.4147
13196TIP3   OH261002   2.479   4.924   3.526  0.1349 -0.2309  0.2268
13196TIP3    H161003   2.534   4.971   3.588 -0.1525 -0.7811  0.9153
13196TIP3    H261004   2.404   4.895   3.578 -0.4263 -0.1563 -0.5246
13197TIP3   OH261005   0.791   2.898   6.415  0.2369  0.1137 -0.3294
13197TIP3    H161006   0.874   2.852   6.426 -0.5972 -2.0109 -2.2787
13197TIP3    H261007   0.738   2.870   6.490  0.7019  0.2042  0.0388
13198TIP3   OH261008   4.648   3.528   6.535  0.1093 -0.2655 -0.8868
13198TIP3    H161009   4.584   3.544   6.605  0.8871  1.7520 -0.5761
13198TIP3    H261010   4.724   3.492   6.580  0.4959  0.7367 -0.7358
13199TIP3   OH261011   2.568   6.261  11.125  0.2543  0.2207  0.1194
13199TIP3    H161012   2.512   6.186  11.106 -0.0038  0.0640  1.4004
13199TIP3    H261013   2.528   6.302  11.202  0.2902  1.7820 -0.6421
13200TIP3   OH261014   5.186   4.959   5.059 -0.6662 -0.5448 -0.4923
13200TIP3    H161015   5.090   4.960   5.064 -0.6609 -0.2481 -0.4578
13200TIP3    H261016   5.215   4.997   5.142 -0.5209 -0.5372 -0.5465
13201TIP3   OH261017   2.521   3.723   2.230 -0.0952  0.0707 -0.6188
13201TIP3    H161018   2.571   3.712   2.311 -0.7608  2.2122  0.1563
13201TIP3    H261019   2.518   3.817   2.216  0.3972 -0.2524 -3.4447
13202TIP3   OH261020   6.131   3.145  16.604 -0.1169  0.1446  0.5007
13202TIP3    H161021   6.131   3.124  16.510  2.0284 -0.7971  0.6455
13202TIP3    H261022   6.041   3.171  16.622 -1.0448 -1.3639 -1.4563
13203TIP3   OH261023   1.201   2.128  17.201  0.2717 -0.4578 -1.0131
13203TIP3    H161024   1.109   2.147  17.218  0.4496  0.0500 -0.5964
13203TIP3    H261025   1.244   2.140  17.285  0.4537 -2.4804 -0.7807
13204TIP3   OH261026   0.596   0.709   0.314 -0.3210 -0.7132  0.0065
13204TIP3    H161027   0.549   0.779   0.359  1.7989  1.2711 -0.6322
13204TIP3    H261028   0.583   0.727   0.221 -0.0101 -1.3772 -0.1768
13205TIP3   OH261029   3.618   2.169   4.259 -0.4043 -0.4733 -0.6618
13205TIP3    H161030   3.532   2.197   4.229  0.2140  0.5562 -1.5675
13205TIP3    H261031   3.616   2.183   4.354 -1.0500  0.0736 -0.7499
13206TIP3   OH261032   5.679   5.415   3.736  0.2667 -0.3177 -0.3679
13206TIP3    H161033   5.728   5.335   3.718  0.1520  0.0393 -2.5632
13206TIP3    H261034   5.600   5.407   3.681  0.1168  1.1571 -0.3950
13207TIP3   OH261035   6.245   3.533  15.426  0.1835 -0.7342  0.1972
13207TIP3    H161036   6.163   3.525  15.378  0.7481  2.8135 -1.7045
13207TIP3    H261037   6.235   3.613  15.478  2.6012  0.2761 -0.7127
13208TIP3   OH261038   4.036   0.419  14.058 -0.1928 -0.6275 -0.1174
13208TIP3    H161039   4.040   0.485  14.128 -1.9371 -1.4446  0.8029
13208TIP3    H261040   3.968   0.358  14.086  0.1573 -1.8600 -1.8024
13209TIP3   OH261041   2.225   4.740  14.804 -0.0411  0.0823 -0.3255
13209TIP3    H161042   2.293   4.797  14.767  0.1513 -1.0725 -1.8595
13209TIP3    H261043   2.241   4.655  14.764 -1.9383 -0.3963 -0.1527
13210TIP3   OH261044   1.969   2.126  13.684 -0.2272  0.0181  0.2858
13210TIP3    H161045   1.906   2.117  13.756  0.1514 -0.4862  0.5589
13210TIP3    H261046   1.944   2.057  13.621 -0.2760  0.1631  0.1460
13211TIP3   OH261047   2.742   1.442  12.928 -0.1728 -0.0268 -0.3947
13211TIP3    H161048   2.833   1.455  12.956 -0.7882  1.9865  0.8242
13211TIP3    H261049   2.724   1.350  12.948  1.1818 -0.1192  0.5645
13212TIP3   OH261050   4.894   4.351   6.672 -0.6858 -0.5420  0.4485
13212TIP3    H161051   4.979   4.365   6.714 -0.9463 -0.7724  1.0658
13212TIP3    H261052   4.883   4.427   6.614 -0.6254  0.1425  1.3138
13213TIP3   OH261053   4.953   0.221   5.263  0.0828  0.1556  0.0638
13213TIP3    H161054   4.895   0.146   5.247 -0.0497  0.4172 -0.7497
13213TIP3    H261055   5.023   0.210   5.199 -1.5915  2.4220 -2.3676
13214TIP3   OH261056   3.089   5.024   2.897 -0.2472 -0.3257  0.1244
13214TIP3    H161057   3.038   5.006   2.817  0.3608 -3.2031  0.2802
13214TIP3    H261058   3.026   5.062   2.957 -0.9390  1.0583 -1.3860
13215TIP3   OH261059   1.726   0.598   3.615 -0.4837 -0.3009 -0.7347
13215TIP3    H161060   1.658   0.660   3.590  0.0946  0.4393 -0.5076
13215TIP3    H261061   1.704   0.572   3.704  0.7038  1.6018  0.1503
13216TIP3   OH261062   3.237   6.232  15.343 -0.0768  0.1757  0.2392
13216TIP3    H161063   3.215   6.324  15.361  1.1660  0.4212  0.6012
13216TIP3    H261064   3.322   6.219  15.385 -0.7149 -1.4578  1.1135
13217TIP3   OH261065   4.427   4.382   1.629 -0.1799 -0.2600 -0.2163
13217TIP3    H161066   4.415   4.301   1.580  0.1857  1.1681 -2.8547
13217TIP3    H261067   4.520   4.383   1.652  0.0404 -0.1456 -1.0798
13218TIP3   OH261068   5.902   5.867  12.286  0.1998  0.2843  0.0878
13218TIP3    H161069   5.828   5.919  12.254  0.2206 -0.6199 -1.5436
13218TIP3    H261070   5.979   5.907  12.247  0.2579 -0.6451 -0.8088
13219TIP3   OH261071   5.538   2.009  13.902 -0.0985 -0.5960 -0.3223
13219TIP3    H161072   5.578   1.960  13.831  1.0714 -0.6099  0.3243
13219TIP3    H261073   5.610   2.030  13.961 -0.7939  0.7231  0.1111
13220TIP3   OH261074   6.053   5.530   6.192  0.3013 -0.2352 -0.2443
13220TIP3    H161075   6.002   5.610   6.177  0.6265 -0.0753 -0.5154
13220TIP3    H261076   6.030   5.503   6.281  3.4945  2.6588  1.7126
13221TIP3   OH261077   6.464   0.085  15.395 -0.5151 -0.0864  0.6558
13221TIP3    H161078   6.553   0.087  15.429 -0.2896 -0.7865  0.1376
13221TIP3    H261079   6.419   0.155  15.441  1.2333  2.7902 -1.6966
13222TIP3   OH261080   0.109   4.343  12.584  0.4607 -0.7240  0.0762
13222TIP3    H161081   0.111   4.345  12.489 -0.0093  1.0962  0.0770
13222TIP3    H261082   0.048   4.273  12.605 -2.9935  1.6548 -1.0956
13223TIP3   OH261083   3.694   3.632   4.006  0.6985  0.2687  0.7630
13223TIP3    H161084   3.645   3.558   3.969 -0.1545  1.4088 -0.4483
13223TIP3    H261085   3.765   3.648   3.944 -0.1731  1.5801  0.0689
13224TIP3   OH261086   3.653   5.647   3.510  0.7509 -0.0591 -0.6533
13224TIP3    H161087   3.652   5.687   3.597 -0.7192 -1.2067 -0.0911
13224TIP3    H261088   3.722   5.581   3.515  0.1166 -0.7066 -0.0346
13225TIP3   OH261089   3.733   5.605  15.979 -0.6189 -0.1364  0.4701
13225TIP3    H161090   3.744   5.524  16.030  0.1547 -0.4739 -0.2156
13225TIP3    H261091   3.822   5.641  15.973 -0.8118  0.2511 -0.0730
13226TIP3   OH261092   3.797   5.847  16.327  0.0730  0.3646 -0.1505
13226TIP3    H161093   3.779   5.880  16.415  0.6889 -0.3066  0.2414
13226TIP3    H261094   3.871   5.901  16.296  0.2289  0.2244 -0.0253
13227TIP3   OH261095   4.256   2.141   4.120  0.3779  0.0651 -0.1789
13227TIP3    H161096   4.197   2.067   4.108  0.9967 -0.5826  0.6324
13227TIP3    H261097   4.343   2.102   4.127  0.9723  1.0338 -1.7186
13228TIP3   OH261098   1.202   6.428  10.107  0.2990  0.5241  0.9051
13228TIP3    H161099   1.184   6.335  10.098  0.8193  0.2058  2.6878
13228TIP3    H261100   1.137   6.471  10.052 -2.1933 -0.7791  2.6359
13229TIP3   OH261101   5.459   2.874   1.834 -0.2677  0.0637 -0.4784
13229TIP3    H161102   5.469   2.853   1.741 -1.2089  1.7802 -1.0123
13229TIP3    H261103   5.407   2.803   1.870 -1.2362  0.1611 -1.6410
13230TIP3   OH261104   6.460   3.014  14.813 -0.8613 -0.8732 -0.2418
13230TIP3    H161105   6.392   3.061  14.862  0.2070  2.3722 -1.6300
13230TIP3    H261106   6.526   2.993  14.878 -1.2107 -0.1022  0.3858
13231TIP3   OH261107   0.292   4.882  12.450  0.0590  0.7926 -0.0014
13231TIP3    H161108   0.346   4.926  12.385  0.7472  1.7440  1.1837
13231TIP3    H261109   0.338   4.799  12.467  1.3685  1.7208  1.2141
13232TIP3   OH261110   1.664   3.658  14.469 -0.3748 -0.1474 -0.4657
13232TIP3    H161111   1.661   3.565  14.448 -0.7681 -0.7305  1.9080
13232TIP3    H261112   1.580   3.676  14.511  0.0946  1.0260  0.0177
13233TIP3   OH261113   3.512   5.371  10.849 -0.1770 -0.0229  0.3831
13233TIP3    H161114   3.496   5.379  10.755 -0.4530 -0.2554  0.4119
13233TIP3    H261115   3.495   5.279  10.869  0.1440 -0.0324  0.6119
13234TIP3   OH261116   5.610   2.193  17.186 -0.1468 -0.3330  0.5684
13234TIP3    H161117   5.624   2.210  17.093 -1.1793 -1.0717  0.2560
13234TIP3    H261118   5.514   2.189  17.195 -0.1604  1.8107  2.0596
13235TIP3   OH261119   4.963   3.453  14.163  0.1189 -0.2097  0.7348
13235TIP3    H161120   5.052   3.475  14.136 -1.1075  3.0328 -1.2211
13235TIP3    H261121   4.952   3.361  14.136  2.4355 -0.2987 -0.1355
13236TIP3   OH261122   6.346   4.642   2.957  0.5339  0.4121  0.1687
13236TIP3    H161123   6.319   4.565   3.007 -1.0344 -0.1766 -1.4722
13236TIP3    H261124   6.279   4.707   2.976  1.7444  1.3745  1.3849
13237TIP3   OH261125   3.458   3.143   5.815 -0.3424  0.0799 -0.1476
13237TIP3    H161126   3.531   3.193   5.853  0.5709  0.2906 -2.0292
13237TIP3    H261127   3.485   3.051   5.822 -0.1217  0.1262 -0.3669
13238TIP3   OH261128   5.680   4.928   1.340  0.3816 -0.5212  0.6241
13238TIP3    H161129   5.672   4.837   1.312  0.2661 -0.9465  1.9693
13238TIP3    H261130   5.774   4.945   1.340  0.5058 -1.0879  1.6399
13239TIP3   OH261131   3.832   3.883   1.001 -0.2195  0.4545  0.1018
13239TIP3    H161132   3.899   3.859   1.066 -2.1160  1.2552  2.5049
13239TIP3    H261133   3.804   3.971   1.028 -0.3387  1.2993 -2.5258
13240TIP3   OH261134   3.151   0.874  15.876  0.0594  0.0401 -0.0884
13240TIP3    H161135   3.229   0.870  15.821  0.1429  2.8087 -0.2913
13240TIP3    H261136   3.171   0.817  15.950  1.8538 -0.1010 -0.6356
13241TIP3   OH261137   5.528   6.468   1.574  0.1885 -0.4580  0.2772
13241TIP3    H161138   5.495   6.495   1.489 -1.0630  1.3774  1.2718
13241TIP3    H261139   5.619   6.498   1.575  0.1630 -0.3485 -0.3473
13242TIP3   OH261140   4.468   3.626  11.006 -0.3206 -0.4593  0.2970
13242TIP3    H161141   4.420   3.658  10.930  0.6783 -0.5127 -0.3805
13242TIP3    H261142   4.445   3.533  11.013 -2.5816  0.1319  1.7694
13243TIP3   OH261143   5.073   0.508   0.398 -0.4480 -0.1657  0.5685
13243TIP3    H161144   5.121   0.473   0.323  0.0761 -1.1757  1.3668
13243TIP3    H261145   5.027   0.585   0.362  0.2480 -0.2856 -0.6442
13244TIP3   OH261146   2.258   5.810  13.343 -0.3441  0.0851  0.1939
13244TIP3    H161147   2.276   5.821  13.249 -0.7260  3.3840  0.3666
13244TIP3    H261148   2.341   5.834  13.386  0.1037 -2.2651  0.7531
13245TIP3   OH261149   0.189   5.753  16.263 -0.4144 -0.8683 -0.6417
13245TIP3    H161150   0.195   5.706  16.180  1.3988  0.2429 -1.2000
13245TIP3    H261151   0.231   5.694  16.327 -1.3483 -1.5027 -0.5981
13246TIP3   OH261152   2.968   1.276  17.260  1.0980 -0.4357 -0.1310
13246TIP3    H161153   2.889   1.326  17.281  0.7932 -0.8934 -0.1766
13246TIP3    H261154   3.032   1.304  17.325  0.9886  0.1436 -0.2638
13247TIP3   OH261155   4.895   5.467  16.832  0.0385  0.0795 -0.1812
13247TIP3    H161156   4.964   5.522  16.795  0.6940 -0.1346  0.6856
13247TIP3    H261157   4.912   5.379  16.797  0.6282 -0.1121  0.5470
13248TIP3   OH261158   1.534   3.436   0.800 -0.3110  0.3187 -0.4669
13248TIP3    H161159   1.591   3.477   0.735  0.2588  0.6261  0.2061
13248TIP3    H261160   1.519   3.348   0.767  3.0141 -0.8656  0.7238
13249TIP3   OH261161   4.373   0.963   2.044 -1.2222  0.2150  0.2565
13249TIP3    H161162   4.314   1.035   2.065  1.6052  3.2119 -1.2325
13249TIP3    H261163   4.415   0.941   2.127 -1.4099  0.9749  0.5585
13250TIP3   OH261164   3.458   3.488  12.325  0.0119  0.2242  1.0553
13250TIP3    H161165   3.424   3.571  12.360  2.5489  1.4868  0.6950
13250TIP3    H261166   3.380   3.443  12.293 -1.4919  2.3654  1.4650
13251TIP3   OH261167   2.306   1.818   3.686  0.1542 -0.2513 -0.3409
13251TIP3    H161168   2.367   1.888   3.711  0.3326 -0.5920  0.1992
13251TIP3    H261169   2.335   1.792   3.598  0.8298 -0.4524 -0.0653
13252TIP3   OH261170   3.391   6.740   4.236 -0.3479  0.2774  0.2093
13252TIP3    H161171   3.368   6.655   4.273  0.2591 -0.8079 -1.7531
13252TIP3    H261172   3.322   6.757   4.171  1.1503 -0.2793 -1.6371
13253TIP3   OH261173   1.986   1.487   5.277  0.0315 -0.2859 -0.2508
13253TIP3    H161174   1.943   1.524   5.200 -2.7296 -3.0307 -0.2118
13253TIP3    H261175   2.037   1.414   5.242 -1.9408 -2.1097  0.4622
13254TIP3   OH261176   4.080   1.199  13.691 -0.3913 -0.4605  0.1993
13254TIP3    H161177   4.172   1.226  13.693 -1.0736  2.0787  0.5031
13254TIP3    H261178   4.054   1.195  13.783 -1.1193  0.9798  0.0770
13255TIP3   OH261179   4.386   2.655  14.685  0.2475  0.0235  0.5028
13255TIP3    H161180   4.420   2.713  14.754  1.9106 -1.2239  0.8011
13255TIP3    H261181   4.450   2.663  14.614 -2.2909  2.5919 -1.7375
13256TIP3   OH261182   6.007   5.158  11.240  0.2996 -0.3739  0.7574
13256TIP3    H161183   6.025   5.237  11.292 -0.2196 -0.3555  0.9150
13256TIP3    H261184   5.962   5.191  11.162 -3.1400 -0.7659  2.3914
13257TIP3   OH261185   2.744   0.015  14.377 -0.4525 -0.2431 -0.0028
13257TIP3    H161186   2.773   0.077  14.443 -1.6458 -0.5842  0.8797
13257TIP3    H261187   2.686   0.065  14.320  4.9346  1.8155 -4.6918
13258TIP3   OH261188   3.692   4.049  12.400 -0.0599 -0.3191  0.0581
13258TIP3    H161189   3.630   4.106  12.445  1.9676  0.4299  2.0858
13258TIP3    H261190   3.674   3.961  12.435  0.2661 -0.0413  0.9400
13259TIP3   OH261191   2.742   6.665  11.186 -0.5420 -0.1831 -0.1277
13259TIP3    H161192   2.653   6.633  11.171 -0.9842  0.5085  0.8668
13259TIP3    H261193   2.797   6.610  11.131 -1.5678 -0.7410 -0.6280
13260TIP3   OH261194   4.624   4.867  14.640  0.0968 -0.0081  0.0516
13260TIP3    H161195   4.637   4.944  14.694  1.5773 -1.2162  1.5122
13260TIP3    H261196   4.683   4.879  14.566 -1.8700  1.6050 -1.3775
13261TIP3   OH261197   3.435   4.702   1.265  0.2519  0.4409 -0.7185
13261TIP3    H161198   3.421   4.685   1.172 -0.5404  0.5382 -0.6199
13261TIP3    H261199   3.377   4.641   1.310 -0.3194  1.2547 -0.3172
13262TIP3   OH261200   5.281   3.597  15.981 -0.8012  0.1043  0.1499
13262TIP3    H161201   5.370   3.573  15.957 -0.9641 -0.1575 -0.2016
13262TIP3    H261202   5.226   3.526  15.946 -1.3189  1.0834 -1.0789
13263TIP3   OH261203   0.670   6.567  10.452  0.0499 -0.0079 -0.2442
13263TIP3    H161204   0.640   6.547  10.541 -0.2203  1.8771  0.1269
13263TIP3    H261205   0.739   6.503  10.436  0.0812 -0.4152  1.3118
13264TIP3   OH261206   6.242   5.665   4.707 -0.5366 -0.6289 -0.3934
13264TIP3    H161207   6.309   5.694   4.645 -1.2653 -0.5338 -1.1570
13264TIP3    H261208   6.269   5.577   4.733 -0.4148 -0.8116 -1.1296
13265TIP3   OH261209   4.696   4.102   1.655  0.4871  0.3289  0.1875
13265TIP3    H161210   4.726   4.078   1.743  0.4147 -1.3335 -0.1963
13265TIP3    H261211   4.721   4.027   1.601 -1.8783  0.1060 -0.6935
13266TIP3   OH261212   1.916   2.966   5.866  0.1017 -0.0738 -0.0027
13266TIP3    H161213   1.983   2.967   5.935 -0.3451 -1.5462  0.4935
13266TIP3    H261214   1.874   3.051   5.873  0.3898 -0.0032  1.2473
13267TIP3   OH261215   0.331   2.999   2.707 -0.6697 -0.0153 -0.3055
13267TIP3    H161216   0.296   2.917   2.670 -1.1964  1.0430 -2.2952
13267TIP3    H261217   0.294   3.068   2.651  1.5664  1.4334 -0.1232
13268TIP3   OH261218   4.031   5.883   3.390 -0.0970  0.3780  0.0827
13268TIP3    H161219   4.034   5.953   3.325 -0.3239 -0.4080 -0.7958
13268TIP3    H261220   3.949   5.837   3.373 -1.1749  1.3763  2.2588
13269TIP3   OH261221   2.335   6.295  10.919  0.2631 -0.3657 -0.1371
13269TIP3    H161222   2.412   6.343  10.891  1.3816 -1.6639  0.6036
13269TIP3    H261223   2.332   6.219  10.860 -0.6560 -0.1698 -0.3687
13270TIP3   OH261224   1.636   5.365  14.071  0.3953 -0.2499  0.4903
13270TIP3    H161225   1.649   5.274  14.100  0.4762 -0.7545 -1.0393
13270TIP3    H261226   1.620   5.414  14.152  1.7161 -1.3777  1.4711
13271TIP3   OH261227   3.505   2.567  16.027  0.9752  0.3058  0.3393
13271TIP3    H161228   3.563   2.610  16.090  3.5041 -0.6060 -1.2228
13271TIP3    H261229   3.483   2.636  15.965  1.5574  0.3293  0.1569
13272TIP3   OH261230   2.353   0.119  13.591  0.6479 -0.3462 -0.6988
13272TIP3    H161231   2.386   0.204  13.560 -0.8474 -0.1388 -1.8620
13272TIP3    H261232   2.431   0.073  13.622  1.4907  1.4677  0.0202
13273TIP3   OH261233   2.463   0.855   0.421  0.0944  0.4515 -0.1630
13273TIP3    H161234   2.490   0.763   0.432 -0.5787  0.2411 -0.2283
13273TIP3    H261235   2.534   0.906   0.460  0.6966 -0.0841 -0.5351
13274TIP3   OH261236   4.343   0.638   2.195  0.1605 -0.3334 -0.2593
13274TIP3    H161237   4.377   0.602   2.114  0.1279  0.8041 -0.7870
13274TIP3    H261238   4.248   0.631   2.187  0.1777 -1.5387  0.3104
13275TIP3   OH261239   4.564   5.461   4.674 -0.1378  0.4596 -0.4727
13275TIP3    H161240   4.560   5.398   4.601  1.6924 -1.8195  1.2569
13275TIP3    H261241   4.554   5.407   4.752  0.9818  2.4368  1.1083
13276TIP3   OH261242   5.806   1.195  13.500 -0.6119 -0.2517  0.4300
13276TIP3    H161243   5.773   1.113  13.536  0.0236 -0.0779  1.4801
13276TIP3    H261244   5.900   1.180  13.490 -0.2343  0.7797  2.0075
13277TIP3   OH261245   4.703   2.852  13.273  0.2525  0.8164  0.5837
13277TIP3    H161246   4.779   2.820  13.223  1.0339  0.0041  2.2373
13277TIP3    H261247   4.685   2.783  13.337 -0.5100  1.9702  1.6604
13278TIP3   OH261248   4.792   6.512  12.206 -0.1746 -0.2022  0.3008
13278TIP3    H161249   4.720   6.551  12.158  2.2633  3.2972 -0.9164
13278TIP3    H261250   4.840   6.461  12.141  1.7069  2.4844 -0.5962
13279TIP3   OH261251   1.096   4.419   4.834 -0.1960 -0.2498  0.1852
13279TIP3    H161252   1.125   4.401   4.924 -0.4476 -1.6884 -0.0003
13279TIP3    H261253   1.156   4.369   4.779  0.1582  0.8758 -0.4909
13280TIP3   OH261254   6.456   5.871   3.302 -0.1108 -0.1510  0.0647
13280TIP3    H161255   6.435   5.843   3.391  1.2678 -2.2349 -0.1900
13280TIP3    H261256   6.372   5.897   3.264 -0.9074 -0.4199  1.5602
13281TIP3   OH261257   2.432   1.189  11.215  0.3186 -0.3694  0.1724
13281TIP3    H161258   2.428   1.142  11.131 -0.5861 -0.3259  0.1835
13281TIP3    H261259   2.460   1.277  11.191  0.1681 -0.3869 -0.0745
13282TIP3   OH261260   0.383   0.632   1.082  0.1653  0.2725  0.1524
13282TIP3    H161261   0.346   0.550   1.050  1.6181  0.0680 -1.1139
13282TIP3    H261262   0.476   0.614   1.095  0.2940  1.3957  1.0348
13283TIP3   OH261263   0.293   2.622  11.371  0.1560 -0.2952  0.1290
13283TIP3    H161264   0.284   2.532  11.341 -0.3248 -0.8327  1.8267
13283TIP3    H261265   0.229   2.632  11.441 -0.1145  1.5131 -0.3038
13284TIP3   OH261266   0.981   2.586  12.471 -0.0947  0.4747  0.1531
13284TIP3    H161267   0.919   2.521  12.502 -0.0307 -0.2300 -1.1238
13284TIP3    H261268   1.058   2.535  12.444  0.2766  1.1456 -0.0945
13285TIP3   OH261269   2.815   2.602  12.931  0.0304 -0.5020  0.6526
13285TIP3    H161270   2.890   2.562  12.887  0.1393  2.2659 -1.9739
13285TIP3    H261271   2.739   2.574  12.880  0.1009  2.2608 -1.1810
13286TIP3   OH261272   1.180   1.053   3.747  0.4659 -0.0749  0.6399
13286TIP3    H161273   1.265   1.095   3.757  0.4419  0.4037 -0.8752
13286TIP3    H261274   1.176   1.027   3.654 -1.2867  0.5291  0.4894
13287TIP3   OH261275   5.011   1.246   0.271  0.2091  0.1704 -0.4599
13287TIP3    H161276   5.066   1.226   0.347  1.0954 -1.4985 -1.4739
13287TIP3    H261277   5.061   1.309   0.220 -0.2949  1.1356  0.2245
13288TIP3   OH261278   3.991   3.486   2.280  0.2032  0.1277  0.3710
13288TIP3    H161279   3.950   3.519   2.200 -0.5918 -0.1671  0.6487
13288TIP3    H261280   4.041   3.561   2.313  2.2546 -0.3373 -1.4757
13289TIP3   OH261281   2.247   5.985   3.632 -0.1175 -0.2033 -0.0194
13289TIP3    H161282   2.223   5.892   3.632  0.9036 -0.5183  2.4269
13289TIP3    H261283   2.227   6.014   3.542 -0.8521 -2.6492 -0.7314
13290TIP3   OH261284   2.545   4.956  13.354 -0.0986 -0.3172  0.2058
13290TIP3    H161285   2.566   4.904  13.432  0.9162  1.2896  1.0631
13290TIP3    H261286   2.456   4.988  13.369 -0.2316 -0.7109  0.2781
13291TIP3   OH261287   0.485   4.082  16.449 -0.4897  0.0764  0.4748
13291TIP3    H161288   0.545   4.139  16.497 -0.6086 -0.0523  0.7795
13291TIP3    H261289   0.504   4.099  16.357 -0.4935  0.5834  0.5611
13292TIP3   OH261290   6.674   3.855   5.284 -0.4390 -0.1487 -0.1445
13292TIP3    H161291   6.690   3.932   5.340 -0.0201 -0.0729 -0.3664
13292TIP3    H261292   6.753   3.802   5.294 -1.0036 -0.8793  0.5303
13293TIP3   OH261293   0.741   0.320  12.334 -0.4688  0.1548 -0.3080
13293TIP3    H161294   0.835   0.324  12.318 -0.1811 -1.4586  0.7735
13293TIP3    H261295   0.707   0.260  12.267 -0.5739 -0.0467 -0.0747
13294TIP3   OH261296   4.717   4.922   0.574 -0.1744 -0.6413  0.1237
13294TIP3    H161297   4.657   4.964   0.512 -0.3532 -0.8270  0.1678
13294TIP3    H261298   4.707   4.828   0.556  2.2435 -0.6304 -1.8824
13295TIP3   OH261299   0.072   6.047   4.352 -0.0322 -0.4858 -0.3670
13295TIP3    H161300   0.133   6.043   4.278 -1.0946  0.4070 -1.3228
13295TIP3    H261301  -0.013   6.065   4.312 -0.8803 -1.3890  0.9711
13296TIP3   OH261302   1.381   2.683  17.129  0.0305  0.1935 -0.4374
13296TIP3    H161303   1.322   2.702  17.057  0.7010  0.1619 -1.0028
13296TIP3    H261304   1.432   2.763  17.141  0.6264 -0.1470 -0.6806
13297TIP3   OH261305   2.254   2.332  14.201 -0.0313  0.5395 -0.4661
13297TIP3    H161306   2.321   2.307  14.138  0.7138  1.3425 -0.0133
13297TIP3    H261307   2.221   2.416  14.169  1.2460  1.5988  0.8490
13298TIP3   OH261308   0.166   0.166   3.539 -0.2190  0.0331 -0.1860
13298TIP3    H161309   0.195   0.109   3.610 -0.9646 -1.0979 -0.7627
13298TIP3    H261310   0.247   0.191   3.493  0.4522  1.9897  1.8694
13299TIP3   OH261311   2.034   3.298   1.417 -0.0313 -0.3288  0.2866
13299TIP3    H161312   1.975   3.224   1.428  0.1759 -0.6484 -0.6843
13299TIP3    H261313   2.071   3.287   1.330 -0.0396  0.9522  0.1051
13300TIP3   OH261314   2.392   2.715  11.253 -0.0793 -0.4533  0.1454
13300TIP3    H161315   2.369   2.679  11.338  1.6152  1.6390  1.6032
13300TIP3    H261316   2.374   2.809  11.260  3.0327  0.3371 -0.5845
13301TIP3   OH261317   6.677   6.521   2.248 -0.4284  0.2436 -0.0236
13301TIP3    H161318   6.735   6.574   2.193 -0.2555 -0.1699 -0.2372
13301TIP3    H261319   6.676   6.568   2.332 -0.1159  0.4778 -0.1467
13302TIP3   OH261320   6.485   0.791  15.908 -0.1198 -0.5372 -0.2697
13302TIP3    H161321   6.462   0.702  15.933 -0.6976 -0.4833 -0.5979
13302TIP3    H261322   6.468   0.794  15.814 -0.3891  0.0072 -0.2059
13303TIP3   OH261323   4.188   6.727  16.497 -0.6101 -0.0114  0.2763
13303TIP3    H161324   4.160   6.776  16.419  1.5121 -0.5561 -0.9351
13303TIP3    H261325   4.126   6.655  16.504 -2.6327  1.7006  0.9470
13304TIP3   OH261326   1.827   3.057   4.849  0.0752  0.0213  0.6360
13304TIP3    H161327   1.890   2.997   4.887  1.6595  1.2802  0.1033
13304TIP3    H261328   1.831   3.042   4.755  0.6758  1.0920  0.4716
13305TIP3   OH261329   4.165   0.769  15.839  0.1506 -0.4122  0.2925
13305TIP3    H161330   4.085   0.807  15.874  0.4434 -0.3386  0.8814
13305TIP3    H261331   4.195   0.708  15.906 -0.0777 -1.3775 -0.4509
13306TIP3   OH261332   3.539   3.786  14.975  0.2238 -0.1484 -0.0130
13306TIP3    H161333   3.557   3.879  14.960  0.1074 -0.3315 -1.3815
13306TIP3    H261334   3.617   3.741  14.943 -1.2752 -0.7453 -3.1371
13307TIP3   OH261335   0.145   5.300   4.388 -0.8835  0.4188 -0.3637
13307TIP3    H161336   0.108   5.329   4.471  0.3246  1.7866 -0.2598
13307TIP3    H261337   0.143   5.204   4.394  0.4928  0.4474  1.8915
13308TIP3   OH261338   5.344   3.824  13.736  0.0131  0.4303 -0.5269
13308TIP3    H161339   5.374   3.861  13.819  0.3385  3.1440 -1.7631
13308TIP3    H261340   5.248   3.829  13.741  0.0475  1.1796 -0.5530
13309TIP3   OH261341   1.265   3.053  14.967  0.1794  0.9014  0.0578
13309TIP3    H161342   1.291   3.062  15.058 -0.7666 -0.1213  0.4541
13309TIP3    H261343   1.189   3.111  14.958  0.0320  0.7081  0.0362
13310TIP3   OH261344   6.774   0.431  11.990 -0.0614  0.2044 -0.3678
13310TIP3    H161345   6.754   0.521  11.965  0.0555  0.8659  1.7767
13310TIP3    H261346   6.866   0.420  11.966 -0.2173  0.4598 -1.1209
13311TIP3   OH261347   0.820   5.223  14.339  0.1609 -0.5005  0.4747
13311TIP3    H161348   0.856   5.256  14.421  1.3651  2.9763 -1.2621
13311TIP3    H261349   0.893   5.225  14.278 -1.1324 -1.1987 -1.1924
13312TIP3   OH261350   2.584   2.795   3.566 -0.2528  0.5799  0.5881
13312TIP3    H161351   2.512   2.733   3.558 -0.7092  0.9337  1.7580
13312TIP3    H261352   2.663   2.742   3.551 -0.7377  0.7311 -3.8915
13313TIP3   OH261353   3.577   1.222  11.906  0.3228  0.4646  0.3493
13313TIP3    H161354   3.540   1.249  11.991  0.2940  0.5953  0.2956
13313TIP3    H261355   3.651   1.167  11.929  0.3015  0.4812  0.4607
13314TIP3   OH261356   5.942   1.488  11.163  0.7557 -0.0794  0.8398
13314TIP3    H161357   5.958   1.546  11.088  1.6856 -1.1881  0.1437
13314TIP3    H261358   6.029   1.457  11.187  0.4737  0.3018  2.4492
13315TIP3   OH261359   0.057   4.226   0.175 -0.0650 -0.0539  0.2901
13315TIP3    H161360  -0.012   4.184   0.123  0.0338  0.6477 -0.4288
13315TIP3    H261361   0.050   4.185   0.262  1.0615 -2.7206 -0.7634
13316TIP3   OH261362   6.682   2.328  12.646 -0.3018  0.0183 -0.0303
13316TIP3    H161363   6.652   2.323  12.737  0.0046 -1.8214 -0.0104
13316TIP3    H261364   6.759   2.272  12.643  0.5633  1.2034 -1.1193
13317TIP3   OH261365   0.250   6.627   1.198 -0.1062  0.1600 -0.6444
13317TIP3    H161366   0.209   6.552   1.157 -0.5497  0.4689 -0.7699
13317TIP3    H261367   0.181   6.693   1.204  0.0379  0.2501  0.2613
13318TIP3   OH261368   4.446   1.237   1.662  0.4115 -0.7099 -0.6586
13318TIP3    H161369   4.439   1.153   1.707  2.9435 -0.9826 -0.5935
13318TIP3    H261370   4.390   1.297   1.711  1.0598 -1.6229  1.2898
13319TIP3   OH261371   1.834   4.743   3.920 -0.4139 -0.6279 -0.0896
13319TIP3    H161372   1.770   4.682   3.956 -1.0880 -0.3486 -0.8053
13319TIP3    H261373   1.789   4.827   3.914  0.0342 -0.4064 -0.5232
13320TIP3   OH261374   3.128   6.140  10.484 -0.2119 -0.8133 -0.2194
13320TIP3    H161375   3.055   6.199  10.464 -0.7300 -0.8120  1.5374
13320TIP3    H261376   3.089   6.071  10.537  1.3049 -0.0280  2.0589
13321TIP3   OH261377   0.122   6.268  15.577  0.2806 -0.6053  0.1093
13321TIP3    H161378   0.201   6.230  15.614  0.3573 -0.3372  0.2225
13321TIP3    H261379   0.085   6.321  15.648  0.7062  0.3322 -0.3483
13322TIP3   OH261380   6.354   3.195   6.099  0.1334 -0.4843  0.0003
13322TIP3    H161381   6.426   3.138   6.126  0.0171 -0.0780  1.2622
13322TIP3    H261382   6.276   3.140   6.103  0.2373 -0.6523 -0.3292
13323TIP3   OH261383   2.756   5.866   3.240 -0.2102  0.4481 -0.4630
13323TIP3    H161384   2.696   5.924   3.194  0.2574  0.7393 -0.7066
13323TIP3    H261385   2.790   5.919   3.312 -1.0381 -0.0445  0.3146
13324TIP3   OH261386   5.118   5.139   6.334 -0.7833 -0.1747 -0.3008
13324TIP3    H161387   5.167   5.218   6.359  1.4371 -1.7870  0.7679
13324TIP3    H261388   5.029   5.155   6.367  0.4259  0.5380  2.9751
13325TIP3   OH261389   6.678   1.174  12.772 -0.8768  0.2320 -0.0976
13325TIP3    H161390   6.588   1.197  12.795 -0.5365  0.2536  1.2991
13325TIP3    H261391   6.706   1.114  12.841 -0.0854 -0.4325 -0.9692
13326TIP3   OH261392   2.149   2.571  15.056 -0.4365 -0.7260  0.0238
13326TIP3    H161393   2.139   2.499  14.994 -2.1522 -1.8308  1.4914
13326TIP3    H261394   2.069   2.570  15.108  0.4277  0.8989  1.5101
13327TIP3   OH261395   1.707   6.603   3.794  0.0545 -0.3972  0.0422
13327TIP3    H161396   1.718   6.697   3.779  2.7082 -0.4401  1.1315
13327TIP3    H261397   1.791   6.575   3.831 -0.3853 -3.3600 -0.9612
13328TIP3   OH261398   1.204   0.959   3.470 -0.1875  0.2354  0.2436
13328TIP3    H161399   1.242   1.001   3.393 -1.2999 -0.1554 -0.5513
13328TIP3    H261400   1.260   0.883   3.486  0.4392  0.6915  0.2337
13329TIP3   OH261401   5.515   4.237  12.882 -0.4505  0.5339  0.1343
13329TIP3    H161402   5.441   4.241  12.821  1.0461 -0.1009 -1.8221
13329TIP3    H261403   5.581   4.294  12.844  0.9628 -0.7774  0.5308
13330TIP3   OH261404   4.779   0.670  14.682  0.1088 -0.2317 -0.3715
13330TIP3    H161405   4.823   0.669  14.596  1.3564  1.9842  0.1605
13330TIP3    H261406   4.725   0.749  14.680 -0.7588 -0.7823  0.4973
13331TIP3   OH261407   6.461   5.116  10.793  0.2004  0.5768  0.1305
13331TIP3    H161408   6.537   5.172  10.808  1.6568 -1.0440 -0.8683
13331TIP3    H261409   6.420   5.151  10.715  0.8238  0.5630 -0.2102
13332TIP3   OH261410   2.475   1.997   5.312  0.5322 -0.8731  0.6777
13332TIP3    H161411   2.531   2.072   5.291 -0.0337  0.0349  2.2547
13332TIP3    H261412   2.514   1.958   5.390  0.4062 -1.7853  0.2945
13333TIP3   OH261413   6.018   4.482   1.855  0.4626  0.6367 -0.1747
13333TIP3    H161414   5.941   4.461   1.802  0.0642  0.5324  0.4383
13333TIP3    H261415   6.085   4.420   1.826 -0.2639 -0.5430  0.6014
13334TIP3   OH261416   5.375   5.977   5.503 -0.1681  0.6465  0.2360
13334TIP3    H161417   5.445   5.946   5.445 -1.2081  0.8591 -1.1776
13334TIP3    H261418   5.388   5.927   5.584  0.2619 -1.0076 -0.7923
13335TIP3   OH261419   3.771   4.011   3.218  0.8614 -0.5676  0.0000
13335TIP3    H161420   3.766   3.919   3.193  1.5581 -0.1535 -1.8381
13335TIP3    H261421   3.687   4.048   3.190  0.3160 -0.7293  1.3181
13336TIP3   OH261422   1.435   5.264  14.488 -0.5008  0.3107  0.0842
13336TIP3    H161423   1.474   5.261  14.576 -0.9435 -0.9606  0.2516
13336TIP3    H261424   1.347   5.297  14.502 -0.5066  0.2930  0.0889
13337TIP3   OH261425   2.528   0.926   2.010  0.3630  0.4005  0.1809
13337TIP3    H161426   2.511   0.979   2.089  0.3774  0.1668  0.3416
13337TIP3    H261427   2.619   0.945   1.988 -0.5350  3.0861 -1.7512
13338TIP3   OH261428   4.563   5.205   1.670 -0.2482  1.0456 -0.1425
13338TIP3    H161429   4.655   5.218   1.695 -0.0166  1.0892 -0.9595
13338TIP3    H261430   4.562   5.118   1.630 -0.7541  0.6645  0.6862
13339TIP3   OH261431   1.845   1.121   5.182  0.1498  0.1979  0.3477
13339TIP3    H161432   1.856   1.027   5.188  0.8932  0.3218  1.1768
13339TIP3    H261433   1.933   1.157   5.195 -0.0183  0.9849 -0.5839
13340TIP3   OH261434   4.060   2.380  14.349  0.1484  0.1602 -0.2079
13340TIP3    H161435   4.061   2.374  14.253  0.6239  0.0658 -0.1982
13340TIP3    H261436   4.119   2.311  14.378 -2.1032 -1.6829  0.2577
13341TIP3   OH261437   0.830   3.590  16.130  0.1373  0.4207 -0.0269
13341TIP3    H161438   0.897   3.605  16.196 -0.0052  0.7802  0.0418
13341TIP3    H261439   0.779   3.516  16.163 -0.8318  1.5001  1.0018
13342TIP3   OH261440   6.722   3.108  17.230  0.3179  0.4389  0.0505
13342TIP3    H161441   6.660   3.088  17.160 -0.3388  3.1671 -0.2375
13342TIP3    H261442   6.802   3.136  17.185  1.2649 -1.4636  0.4365
13343TIP3   OH261443   4.507   0.101   0.236  0.8803 -0.1834  0.3084
13343TIP3    H161444   4.473   0.176   0.284 -0.2943 -1.0979  0.9604
13343TIP3    H261445   4.591   0.082   0.279  1.3487  0.9241 -0.0731
13344TIP3   OH261446   1.702   2.201   5.810  0.3466 -0.1959  0.7225
13344TIP3    H161447   1.677   2.132   5.871 -2.0177 -0.5475 -0.4890
13344TIP3    H261448   1.692   2.161   5.723  1.3531  0.9448  0.0556
13345TIP3   OH261449   1.283   3.939   1.574 -0.2292 -0.2864  0.0871
13345TIP3    H161450   1.365   3.902   1.608 -1.3569 -3.9461 -0.7376
13345TIP3    H261451   1.242   3.979   1.651  0.6856 -1.6933  1.3785
13346TIP3   OH261452   6.540   3.204   1.636  0.3190 -0.3393 -0.2161
13346TIP3    H161453   6.547   3.221   1.542 -2.9237 -0.1305 -0.5057
13346TIP3    H261454   6.525   3.290   1.675 -0.6497 -0.6976  0.2062
13347TIP3   OH261455   6.183   1.070   3.079  0.3394  1.1009 -0.5273
13347TIP3    H161456   6.153   1.104   3.164 -0.8218  3.2017 -1.6857
13347TIP3    H261457   6.272   1.104   3.070  1.2052 -0.7137  0.6118
13348TIP3   OH261458   4.104   2.567   2.982  0.5900 -0.2151  0.2577
13348TIP3    H161459   4.049   2.581   3.059  0.6927 -0.6987  0.4234
13348TIP3    H261460   4.041   2.549   2.912  0.5090 -0.0657  0.2899
13349TIP3   OH261461   1.199   6.660   3.097 -0.2081  0.3268  0.1961
13349TIP3    H161462   1.168   6.624   3.180  1.1467  0.8260  0.9515
13349TIP3    H261463   1.160   6.747   3.092 -1.9010 -0.4493 -0.6822
13350TIP3   OH261464   2.097   5.644  15.318  1.1484  1.0784  0.2636
13350TIP3    H161465   2.076   5.736  15.299 -0.8552  1.2758  2.8440
13350TIP3    H261466   2.043   5.623  15.394  1.3460 -2.3575 -0.4092
13351TIP3   OH261467   3.325   0.005  16.294  0.9910 -0.3017  0.8175
13351TIP3    H161468   3.338  -0.049  16.216 -0.2849  0.1315  0.2788
13351TIP3    H261469   3.254  -0.039  16.342  0.0709  0.7510  0.4701
13352TIP3   OH261470   5.879   3.308  16.378  0.2870  0.3310  0.1093
13352TIP3    H161471   5.944   3.254  16.333  0.3317  0.8188 -0.4240
13352TIP3    H261472   5.915   3.396  16.375  1.2761  0.1235  2.8897
13353TIP3   OH261473   6.474   3.273   4.855  0.5587  0.3489 -0.0306
13353TIP3    H161474   6.418   3.298   4.782 -0.1472  1.2001  0.7641
13353TIP3    H261475   6.534   3.209   4.819 -1.5108 -1.3134 -0.7228
13354TIP3   OH261476   0.885   0.824   3.206  0.3638 -0.0792 -0.3082
13354TIP3    H161477   0.948   0.874   3.154 -1.2932  1.1503 -1.2310
13354TIP3    H261478   0.878   0.871   3.288 -0.4106  0.6438 -0.7724
13355TIP3   OH261479   3.715   1.433   2.792  0.1731 -0.0019  0.0254
13355TIP3    H161480   3.739   1.499   2.727  0.0448  0.1455  0.1272
13355TIP3    H261481   3.792   1.427   2.849  0.7498 -0.9751 -0.8172
13356TIP3   OH261482   0.311   4.475  11.454  0.1066  0.5504  0.0586
13356TIP3    H161483   0.316   4.414  11.381  1.2476 -2.2136  2.2773
13356TIP3    H261484   0.218   4.475  11.480 -0.3232  1.6311 -1.3506
13357TIP3   OH261485   5.692   2.865  10.868 -0.4722 -0.1331  0.6835
13357TIP3    H161486   5.729   2.794  10.816 -0.6541 -1.5558  2.4116
13357TIP3    H261487   5.608   2.883  10.826 -0.6227 -1.2594  0.4549
13358TIP3   OH261488   0.619   6.555  14.803 -0.2688 -0.2358  0.5290
13358TIP3    H161489   0.663   6.471  14.816  2.1043  0.7908 -0.3694
13358TIP3    H261490   0.604   6.559  14.708 -0.4170  0.3403  0.5742
13359TIP3   OH261491   1.910   1.309  13.268  0.5786 -0.2379  0.3357
13359TIP3    H161492   1.836   1.314  13.208  1.3185 -3.0197 -0.9159
13359TIP3    H261493   1.869   1.304  13.355 -0.6283  0.0171 -0.1893
13360TIP3   OH261494   5.442   6.620  17.120 -0.3919 -0.4477 -0.1292
13360TIP3    H161495   5.462   6.621  17.026 -0.7312  1.4240 -0.2193
13360TIP3    H261496   5.348   6.603  17.125 -0.2809 -1.0780 -0.0889
13361TIP3   OH261497   4.058   2.736   1.596  0.6449  0.2103  0.1559
13361TIP3    H161498   4.109   2.716   1.518  0.7253  0.8444  0.0367
13361TIP3    H261499   4.085   2.671   1.660  1.6384  0.5493  0.1028
13362TIP3   OH261500   1.968   3.552   3.137 -0.1407  0.4016  0.2500
13362TIP3    H161501   2.045   3.497   3.151 -1.0109 -0.4857  1.8559
13362TIP3    H261502   1.924   3.513   3.061 -1.0462 -1.5591  1.6944
13363TIP3   OH261503   3.671   4.187  15.667 -0.0774 -0.0261  0.3213
13363TIP3    H161504   3.581   4.203  15.641 -0.2706  0.3144  1.1878
13363TIP3    H261505   3.716   4.270  15.651  0.9075 -1.0861 -3.3428
13364TIP3   OH261506   3.796   0.038  13.438  0.3920  0.1848  0.2129
13364TIP3    H161507   3.807   0.007  13.348  1.4092 -0.0819  0.4188
13364TIP3    H261508   3.701   0.046  13.449  0.2159 -0.6237 -0.5952
13365TIP3   OH261509   5.676   0.070  11.632  0.2761 -0.1755  0.4807
13365TIP3    H161510   5.744   0.116  11.583  0.1724 -1.2687 -0.7215
13365TIP3    H261511   5.627   0.140  11.675  2.0958  0.6405  1.3375
13366TIP3   OH261512   6.013   0.092  11.827  0.1286 -0.2722 -0.4630
13366TIP3    H161513   6.036   0.082  11.735 -1.1417  0.0604 -0.8450
13366TIP3    H261514   5.932   0.144  11.825  1.0267  1.2474  0.9284
13367TIP3   OH261515   2.032   4.809   4.111  0.0033  0.3093 -0.1717
13367TIP3    H161516   1.973   4.805   4.036  0.3845 -0.5315 -0.4441
13367TIP3    H261517   1.983   4.766   4.182 -0.1677  0.6661 -0.0741
13368TIP3   OH261518   0.725   5.056  11.998 -0.2311 -0.1562  0.0331
13368TIP3    H161519   0.687   5.077  12.083 -3.4998  1.2887 -1.6039
13368TIP3    H261520   0.679   4.976  11.971 -0.9229  0.6423 -1.2593
13369TIP3   OH261521   2.952   5.722   4.409 -0.1262  0.3022 -0.1931
13369TIP3    H161522   2.953   5.710   4.314 -0.5930 -0.3344 -0.1194
13369TIP3    H261523   2.945   5.634   4.445 -1.6421  0.6117  0.3864
13370TIP3   OH261524   4.989   1.085  15.909  0.4487 -0.2079 -0.0832
13370TIP3    H161525   5.076   1.124  15.895  1.6854 -2.7971 -0.1853
13370TIP3    H261526   4.948   1.086  15.823  0.9451 -0.1834 -0.3253
13371TIP3   OH261527   0.547   0.505  11.242  0.4826 -0.1089 -0.2256
13371TIP3    H161528   0.610   0.570  11.272 -0.1373  0.0779  0.7348
13371TIP3    H261529   0.463   0.533  11.279 -0.1551 -0.4094 -1.3855
13372TIP3   OH261530   5.911   4.170  12.358  0.0982  0.4063 -0.3470
13372TIP3    H161531   5.948   4.142  12.442  0.4575  3.4771  0.6402
13372TIP3    H261532   5.973   4.139  12.292  2.3691  1.9578  0.9520
13373TIP3   OH261533   5.848   0.809   2.401  0.3120  0.3936  0.2980
13373TIP3    H161534   5.888   0.732   2.362 -0.6581  0.8288 -1.6823
13373TIP3    H261535   5.805   0.777   2.480  0.4286 -0.9843 -0.1802
13374TIP3   OH261536   4.307   4.359   2.371 -0.7710 -0.8151 -0.4333
13374TIP3    H161537   4.370   4.289   2.384 -0.9163 -1.0679 -1.0360
13374TIP3    H261538   4.336   4.403   2.290 -1.0468 -0.5889 -0.4132
13375TIP3   OH261539   5.734   2.977   4.171 -0.6941  0.0603  0.1806
13375TIP3    H161540   5.770   2.951   4.086  0.9776  1.6746  0.3282
13375TIP3    H261541   5.715   2.894   4.215 -0.2205 -0.8297 -1.2078
13376TIP3   OH261542   0.998   3.946   5.037  0.9061 -0.0616  0.7736
13376TIP3    H161543   1.048   3.948   5.119  0.3759  0.8478  1.0926
13376TIP3    H261544   0.936   3.875   5.049  2.1884 -1.3215  0.3054
13377TIP3   OH261545   5.057   4.889   4.754  0.3853  0.4037  0.2409
13377TIP3    H161546   5.056   4.825   4.825  2.4894  2.2452  2.0483
13377TIP3    H261547   5.148   4.891   4.724  0.2037  2.0328 -0.2732
13378TIP3   OH261548   0.994   6.285  13.987 -0.0959  0.1405 -0.0918
13378TIP3    H161549   1.014   6.191  13.990  0.6619  0.2778 -0.6127
13378TIP3    H261550   0.919   6.292  13.929 -0.1234 -0.1379 -0.0907
13379TIP3   OH261551   6.353   5.275   4.525  0.0309 -0.1800  0.2158
13379TIP3    H161552   6.429   5.218   4.530  2.0995  2.2094 -1.5853
13379TIP3    H261553   6.279   5.215   4.515  1.8734 -2.5545 -0.1224
13380TIP3   OH261554   6.772   1.519   4.104 -0.1166  0.1254  0.0621
13380TIP3    H161555   6.859   1.537   4.139  0.8715 -0.8114 -1.8162
13380TIP3    H261556   6.773   1.426   4.081 -2.2022 -0.3312  1.5324
13381TIP3   OH261557   3.625   0.904   6.478 -0.0818 -0.2821 -0.0435
13381TIP3    H161558   3.606   0.856   6.397 -0.1750  0.7010 -0.6292
13381TIP3    H261559   3.616   0.840   6.547 -1.1640 -0.8772 -0.7128
13382TIP3   OH261560   3.572   6.206   2.137 -0.2812 -0.3794  0.1589
13382TIP3    H161561   3.568   6.268   2.064  3.5099 -0.7735 -0.5830
13382TIP3    H261562   3.544   6.258   2.213 -3.7973  0.1962 -1.3076
13383TIP3   OH261563   3.529   5.965   2.417  0.4813  0.0861  0.7348
13383TIP3    H161564   3.562   5.957   2.327 -0.3482  1.5994  0.2565
13383TIP3    H261565   3.581   6.035   2.455  0.9423 -0.6679  1.5023
13384TIP3   OH261566   3.504   5.172   0.429 -0.3079  0.1142  0.2022
13384TIP3    H161567   3.490   5.212   0.343 -0.1847  0.6853  0.4401
13384TIP3    H261568   3.599   5.173   0.441 -0.2768 -0.6175  0.0454
13385TIP3   OH261569   1.337   1.573   4.479  0.7506  0.3728 -0.2338
13385TIP3    H161570   1.311   1.659   4.447 -1.8233  0.1131  0.8460
13385TIP3    H261571   1.366   1.589   4.569 -1.2820  0.0277  0.5555
13386TIP3   OH261572   4.635   5.313  11.862 -0.3558  0.0625  0.8210
13386TIP3    H161573   4.552   5.275  11.832 -0.0947 -1.2733  1.6786
13386TIP3    H261574   4.686   5.325  11.781 -0.6177 -1.0555  0.4677
13387TIP3   OH261575   0.483   4.949  16.947  0.3274  0.1100  0.2300
13387TIP3    H161576   0.537   4.981  16.875  0.8952  1.5651  1.2639
13387TIP3    H261577   0.518   4.992  17.025 -1.5602  0.1599  1.1070
13388TIP3   OH261578   6.770   3.528  11.514  0.3062 -0.4619 -0.4422
13388TIP3    H161579   6.786   3.497  11.425 -1.0790  0.1180 -0.9217
13388TIP3    H261580   6.725   3.611  11.502  1.9559  0.6779  0.8125
13389TIP3   OH261581   6.363   2.060  13.604 -0.2846  0.6830 -0.7180
13389TIP3    H161582   6.423   2.112  13.657 -0.1644  0.0696 -0.2399
13389TIP3    H261583   6.277   2.078  13.641 -0.3116  0.9829 -0.9224
13390TIP3   OH261584   4.030   5.883  11.228 -0.1919  0.1752  0.3439
13390TIP3    H161585   3.941   5.848  11.229 -0.0355 -0.2342  0.8324
13390TIP3    H261586   4.043   5.917  11.317 -0.5610  2.0878 -0.2959
13391TIP3   OH261587   1.597   5.467  14.340  0.9582  0.7452 -0.1217
13391TIP3    H161588   1.541   5.399  14.378  1.4203  0.3106 -0.2090
13391TIP3    H261589   1.613   5.527  14.412  0.5945  0.7361 -0.0277
13392TIP3   OH261590   2.191   4.513   2.796 -0.0528  0.1688  0.4744
13392TIP3    H161591   2.235   4.534   2.713 -0.3893  0.7187  0.4285
13392TIP3    H261592   2.148   4.429   2.780  0.1499  0.1165  0.1971
13393TIP3   OH261593   6.678   3.984   4.803 -0.1133 -0.4012  0.0537
13393TIP3    H161594   6.672   3.889   4.801 -1.3575 -0.3347 -0.2645
13393TIP3    H261595   6.614   4.014   4.739  1.5942  0.6285 -1.2541
13394TIP3   OH261596   3.171   1.847   5.280 -0.2425  0.0387 -0.2143
13394TIP3    H161597   3.089   1.817   5.320 -0.6451  2.0872  0.6025
13394TIP3    H261598   3.231   1.858   5.353  0.6955 -1.0979 -0.7726
13395TIP3   OH261599   4.532   2.087   5.381 -0.4090  0.1269 -0.3492
13395TIP3    H161600   4.568   2.001   5.360 -1.1771 -0.0265 -1.1035
13395TIP3    H261601   4.579   2.147   5.323 -1.7703 -0.1602 -1.8430
13396TIP3   OH261602   1.205   6.466   6.017 -0.1463  0.0224  0.0502
13396TIP3    H161603   1.129   6.444   5.963  0.5641 -1.9425 -0.2504
13396TIP3    H261604   1.169   6.509   6.094 -1.5053 -0.3463 -0.3568
13397TIP3   OH261605   3.340   5.608  13.764 -0.1940 -0.2232 -0.3420
13397TIP3    H161606   3.318   5.677  13.826 -1.3890  0.4811 -1.4870
13397TIP3    H261607   3.259   5.593  13.715  0.8578 -0.2425 -2.1990
13398TIP3   OH261608   1.523   4.182  15.411  0.5832  0.8796 -0.4419
13398TIP3    H161609   1.569   4.215  15.489  1.7851  1.0414 -1.1860
13398TIP3    H261610   1.552   4.240  15.340 -1.2541  1.3539 -0.8600
13399TIP3   OH261611   3.695   6.307   5.748  0.1922  0.0456  0.2452
13399TIP3    H161612   3.767   6.248   5.770  0.9158  0.1501 -1.6245
13399TIP3    H261613   3.616   6.258   5.767  0.7792 -1.2598 -0.5400
13400TIP3   OH261614   5.096   1.933   2.085  0.4338  0.1270  0.4769
13400TIP3    H161615   5.036   2.006   2.072  1.9059  1.3344  0.2138
13400TIP3    H261616   5.040   1.855   2.082 -1.1674  1.2157  0.7082
13401TIP3   OH261617   2.895   4.216   0.829 -0.5030  0.2195  0.1394
13401TIP3    H161618   2.833   4.248   0.764 -1.0133 -0.1638  0.4347
13401TIP3    H261619   2.975   4.197   0.779 -1.8823 -3.2674 -1.0592
13402TIP3   OH261620   0.163   3.996   1.558 -0.0402  0.1243  0.0536
13402TIP3    H161621   0.247   4.032   1.531 -0.7889  1.8352 -0.1081
13402TIP3    H261622   0.115   4.070   1.594 -1.8963 -0.5517 -0.8759
13403TIP3   OH261623   6.299   0.929   0.498  0.5316  0.0238 -0.0601
13403TIP3    H161624   6.224   0.966   0.450 -1.0122 -0.3262  1.9367
13403TIP3    H261625   6.325   0.853   0.446 -0.1359  0.4697 -1.0839
13404TIP3   OH261626   0.506   4.302  16.238 -0.1262 -0.2276 -0.5952
13404TIP3    H161627   0.592   4.342  16.224 -0.4476  1.1370  0.9436
13404TIP3    H261628   0.474   4.344  16.318 -1.5080 -1.9431 -0.2053
13405TIP3   OH261629   1.374   6.325   0.780  0.7007  0.3118  0.2794
13405TIP3    H161630   1.408   6.302   0.866  0.6495 -0.6985  0.0456
13405TIP3    H261631   1.358   6.419   0.784  1.7632  0.4719  0.9916
13406TIP3   OH261632   0.030   6.383   3.112  0.1272  0.2049 -0.0247
13406TIP3    H161633   0.048   6.451   3.047 -0.7946  0.9804  0.4893
13406TIP3    H261634   0.035   6.301   3.063 -0.6991  0.7775 -1.1281
13407TIP3   OH261635   4.459   4.045  14.136  0.1096 -0.3036  0.2996
13407TIP3    H161636   4.395   3.974  14.141  0.6496 -0.7255  3.1300
13407TIP3    H261637   4.473   4.071  14.227  0.1270  3.3156 -0.5599
13408TIP3   OH261638   5.787   4.991   0.369 -0.8117 -0.3330 -0.0296
13408TIP3    H161639   5.751   5.075   0.342  0.4755  0.2132 -0.1140
13408TIP3    H261640   5.882   5.004   0.369 -0.5436 -1.9845 -0.7243
13409TIP3   OH261641   2.766   3.850   4.592 -0.9668  0.7761  0.2894
13409TIP3    H161642   2.812   3.919   4.639 -0.6863  0.0215  1.1556
13409TIP3    H261643   2.835   3.799   4.550 -1.0066 -0.0860  1.2155
13410TIP3   OH261644   5.586   0.442   1.045  0.6324  0.1458  0.9339
13410TIP3    H161645   5.539   0.383   1.103  1.1883  0.0462  1.2875
13410TIP3    H261646   5.671   0.455   1.087  0.7572  0.6793  0.5311
13411TIP3   OH261647   0.257   2.170  13.611 -0.2049 -0.3841 -0.0964
13411TIP3    H161648   0.177   2.186  13.660  0.5183 -1.5121  1.5778
13411TIP3    H261649   0.319   2.136  13.676  1.2683 -0.6582 -1.5438
13412TIP3   OH261650   2.316   5.691   2.075  0.1947 -0.1038 -0.4017
13412TIP3    H161651   2.328   5.659   1.986 -1.5161 -1.4061 -0.2139
13412TIP3    H261652   2.242   5.751   2.070  0.2155 -0.0229  0.1222
13413TIP3   OH261653   6.045   3.476  11.668 -0.4777  0.2847 -1.1490
13413TIP3    H161654   6.007   3.403  11.620  0.2046  1.0634 -2.9508
13413TIP3    H261655   6.092   3.435  11.741 -0.9936 -0.9744 -1.4981
13414TIP3   OH261656   1.067   0.341   4.266  0.3999 -0.0483  0.1037
13414TIP3    H161657   1.116   0.422   4.253 -1.2769  1.0005 -0.0157
13414TIP3    H261658   1.039   0.345   4.358 -0.5294  0.0257 -0.1726
13415TIP3   OH261659   5.134   4.245   1.558 -0.1707  0.5272  0.2870
13415TIP3    H161660   5.131   4.340   1.547 -0.0973  0.3796 -1.1902
13415TIP3    H261661   5.086   4.229   1.639 -1.1046  1.7381 -0.0010
13416TIP3   OH261662   3.734   2.204   2.672 -0.4928 -0.1571  0.2104
13416TIP3    H161663   3.730   2.254   2.590 -1.1452  0.5965  0.6956
13416TIP3    H261664   3.659   2.235   2.723  0.3253 -0.0819  1.4021
13417TIP3   OH261665   3.656   1.637   2.450  0.2353 -0.4607  0.1797
13417TIP3    H161666   3.688   1.629   2.539  1.1399 -1.6255 -0.2308
13417TIP3    H261667   3.615   1.724   2.447 -0.2191 -0.5861  1.8318
13418TIP3   OH261668   3.785   4.540  11.586  0.1011  0.1681 -0.5055
13418TIP3    H161669   3.806   4.477  11.517  1.3096  2.2153 -2.1450
13418TIP3    H261670   3.732   4.607  11.542 -0.1756  0.8819  0.8638
13419TIP3   OH261671   0.120   3.355   1.558 -0.1343 -0.3010 -0.7681
13419TIP3    H161672   0.172   3.418   1.606  1.0101 -2.1827  0.5913
13419TIP3    H261673   0.071   3.407   1.494  0.8879  1.8855  0.1559
13420TIP3   OH261674   6.147   2.345   1.414  0.6587 -0.1193  0.2606
13420TIP3    H161675   6.129   2.252   1.429  1.9625 -0.2046  1.5070
13420TIP3    H261676   6.169   2.379   1.500 -2.0951  1.9387  0.2724
13421TIP3   OH261677   0.080   5.668  15.806 -0.4165 -0.6271  0.0823
13421TIP3    H161678  -0.006   5.702  15.784  0.5835  0.2315 -2.8668
13421TIP3    H261679   0.140   5.741  15.789  1.2716 -2.3436 -1.7791
13422TIP3   OH261680   5.860   3.445  13.170  0.9294 -0.0916  0.8035
13422TIP3    H161681   5.772   3.460  13.136  1.4648  0.7409 -0.2490
13422TIP3    H261682   5.894   3.532  13.188  0.1690 -0.4207  4.9599
13423TIP3   OH261683   4.267   2.054   1.836 -0.2067 -0.0773  0.3022
13423TIP3    H161684   4.343   2.083   1.885  0.7093 -3.2150  0.9517
13423TIP3    H261685   4.272   1.958   1.836 -3.8122 -0.4397 -0.1856
13424TIP3   OH261686   4.060   1.941   4.170  0.5442  0.5908  0.2407
13424TIP3    H161687   4.066   1.876   4.241 -2.1053 -1.1292 -0.9420
13424TIP3    H261688   3.975   1.984   4.184  0.5090  1.0369 -1.2222
13425TIP3   OH261689   4.681   5.383   5.299  0.7056  0.1427 -0.0042
13425TIP3    H161690   4.695   5.309   5.359  2.5292 -0.3656 -0.9916
13425TIP3    H261691   4.620   5.348   5.233 -1.9513  0.9461  1.8566
13426TIP3   OH261692   4.424   1.347  12.350  0.6507  0.5277 -0.0015
13426TIP3    H161693   4.448   1.401  12.275  3.0585  1.8895  1.6159
13426TIP3    H261694   4.403   1.410  12.419 -0.1733 -0.6747  0.8863
13427TIP3   OH261695   5.249   4.504  13.990  0.0304  0.6871 -0.1743
13427TIP3    H161696   5.249   4.560  13.912 -0.1437 -1.7111 -2.0214
13427TIP3    H261697   5.337   4.466  13.993  0.9232  2.6725  2.4036
13428TIP3   OH261698   2.686   6.669   2.826  0.4595 -0.4434  0.0186
13428TIP3    H161699   2.684   6.727   2.749  2.9062  0.8841  0.8680
13428TIP3    H261700   2.759   6.610   2.810  0.5567 -0.6113  1.0186
13429TIP3   OH261701   1.185   1.167  15.368 -0.7646  0.0603  0.0981
13429TIP3    H161702   1.153   1.113  15.441 -0.2076 -0.2448  0.1205
13429TIP3    H261703   1.139   1.250  15.378 -2.1397 -0.6127 -0.3183
13430TIP3   OH261704   2.919   6.146  15.299 -0.1673  0.1210  0.1195
13430TIP3    H161705   3.012   6.168  15.301 -0.8049  3.4636  0.2509
13430TIP3    H261706   2.909   6.086  15.226  2.0014  0.2184 -0.3177
13431TIP3   OH261707   1.565   1.219  10.728 -0.0826  0.1118  0.9826
13431TIP3    H161708   1.617   1.284  10.680 -0.8171  0.0472  0.0783
13431TIP3    H261709   1.492   1.269  10.765 -0.5160 -0.1488  0.4897
13432TIP3   OH261710   1.286   4.939  16.802  0.5788  0.2944 -0.2749
13432TIP3    H161711   1.240   4.865  16.842  1.4468  0.5588  1.3391
13432TIP3    H261712   1.219   5.007  16.792  0.1946 -0.0133  0.1734
13433TIP3   OH261713   0.013   0.766  14.591 -0.1725  0.0104 -0.4100
13433TIP3    H161714  -0.047   0.800  14.658 -0.4720 -0.4949 -0.4184
13433TIP3    H261715  -0.007   0.672  14.586 -0.8799  0.2133 -1.9492
13434TIP3   OH261716   1.922   4.503   3.685  0.1665 -0.4639 -0.1558
13434TIP3    H161717   1.833   4.481   3.657 -1.8485  2.0034  3.4773
13434TIP3    H261718   1.963   4.540   3.607 -3.9968  3.4483 -0.9114
13435TIP3   OH261719   3.831   3.786  12.654 -0.2693 -0.3851  0.3607
13435TIP3    H161720   3.820   3.775  12.560 -2.2372 -3.0085  0.8057
13435TIP3    H261721   3.903   3.728  12.677  0.4226  0.4952  0.4554
13436TIP3   OH261722   2.463   1.607   3.841  0.0224  0.6721  0.5201
13436TIP3    H161723   2.529   1.665   3.802 -0.4980  0.7697 -0.2371
13436TIP3    H261724   2.413   1.664   3.899  0.4062  0.6633  0.8674
13437TIP3   OH261725   4.073   5.561   4.893  0.3582  0.0540 -0.2102
13437TIP3    H161726   4.156   5.586   4.853  1.5279 -0.3610  1.8372
13437TIP3    H261727   4.042   5.640   4.936  0.6450 -0.2622  0.5885
13438TIP3   OH261728   5.150   1.986  11.955 -0.2516  0.2881  0.2511
13438TIP3    H161729   5.103   2.053  12.004 -1.8154  0.6185 -1.5926
13438TIP3    H261730   5.107   1.904  11.980  1.0905  0.0059  1.8342
13439TIP3   OH261731   3.064   4.197   4.544  0.3008 -0.2471 -0.2496
13439TIP3    H161732   3.087   4.280   4.586 -1.1355 -0.0105  0.1195
13439TIP3    H261733   3.038   4.221   4.456  0.5768 -0.4081 -0.3785
13440TIP3   OH261734   6.422   5.639   6.479 -0.1666  0.0203 -0.3075
13440TIP3    H161735   6.397   5.547   6.481  0.2151 -0.1046 -1.1298
13440TIP3    H261736   6.502   5.643   6.532 -0.6353  0.0345  0.4212
13441TIP3   OH261737   0.903   3.870   0.354 -0.6874 -0.0464  0.3777
13441TIP3    H161738   0.851   3.927   0.410  0.4790 -0.0890  1.5571
13441TIP3    H261739   0.857   3.869   0.270 -0.6574  2.7381  0.2635
13442TIP3   OH261740   2.220   4.025  11.845 -0.5209 -0.2393  0.4230
13442TIP3    H161741   2.199   4.024  11.751  0.5654 -0.4155  0.1686
13442TIP3    H261742   2.143   3.987  11.887 -2.3735  2.6177 -0.0992
13443TIP3   OH261743   0.268   0.133   1.777  0.5627  0.2559 -0.3833
13443TIP3    H161744   0.245   0.221   1.748  1.3955  0.0972 -1.5807
13443TIP3    H261745   0.191   0.080   1.755  0.1607  0.6309  0.1097
13444TIP3   OH261746   4.853   3.269  13.345  0.2779 -0.6716 -0.1597
13444TIP3    H161747   4.815   3.221  13.272 -1.7012  0.5814 -0.0294
13444TIP3    H261748   4.844   3.361  13.320  0.9823 -0.2660  1.0088
13445TIP3   OH261749   6.669   1.222  14.592 -0.1415 -0.4857  0.1243
13445TIP3    H161750   6.738   1.203  14.529  3.4505  0.3302  3.4042
13445TIP3    H261751   6.683   1.160  14.663 -2.5288  0.0654  1.1805
13446TIP3   OH261752   3.397   3.987  14.669 -0.9373  0.1358 -0.0153
13446TIP3    H161753   3.492   3.979  14.671 -0.8843  0.7001  2.2020
13446TIP3    H261754   3.373   3.968  14.578  1.3296  0.6104 -0.7725
13447TIP3   OH261755   1.180   1.029  14.035  0.4590 -0.1845  0.1432
13447TIP3    H161756   1.103   0.977  14.011  2.0150 -4.4767  3.2626
13447TIP3    H261757   1.246   1.005  13.971  0.2093  0.9706 -0.5877
13448TIP3   OH261758   2.917   5.906   0.231  0.3418  0.2696 -0.6677
13448TIP3    H161759   2.879   5.912   0.319 -0.7124  1.0704 -1.1526
13448TIP3    H261760   3.007   5.878   0.246  0.1844  0.3979  0.6706
13449TIP3   OH261761   3.016   0.963  12.658  0.0890 -0.3517  0.0656
13449TIP3    H161762   3.086   0.927  12.603  1.2662  0.5959  0.8810
13449TIP3    H261763   2.974   0.886  12.697  0.4847 -0.9518 -0.6718
13450TIP3   OH261764   3.351   3.234   0.599  0.7628 -0.3562 -0.1192
13450TIP3    H161765   3.299   3.173   0.651  0.3774  0.4544  0.4787
13450TIP3    H261766   3.419   3.265   0.660  0.8010 -0.0049 -0.3371
13451TIP3   OH261767   0.985   2.931   2.919 -0.2439  0.0445 -0.2929
13451TIP3    H161768   0.984   2.980   3.001 -1.4271 -0.4387  0.0083
13451TIP3    H261769   0.998   2.840   2.945 -0.4862 -0.0932 -0.6463
13452TIP3   OH261770   1.851   5.200  15.772  0.0052 -0.0356  0.3842
13452TIP3    H161771   1.777   5.260  15.763  1.2739  1.8785  1.8232
13452TIP3    H261772   1.928   5.254  15.754  1.1678 -1.4421  0.9403
13453TIP3   OH261773   0.634   1.232   5.091 -0.3342  0.5973  0.4594
13453TIP3    H161774   0.573   1.272   5.153 -0.0559 -0.7231  1.6570
13453TIP3    H261775   0.646   1.297   5.022 -0.9443  1.9790  1.6181
13454TIP3   OH261776   6.135   6.691  12.997  0.0560 -0.4562  0.3039
13454TIP3    H161777   6.144   6.785  13.015 -0.7404 -0.2396 -0.3727
13454TIP3    H261778   6.129   6.685  12.902 -3.5171 -0.7829  0.4134
13455TIP3   OH261779   6.727   5.973   5.795  0.1792  0.2173  0.1104
13455TIP3    H161780   6.766   6.046   5.843  2.1826  0.2701 -1.4613
13455TIP3    H261781   6.647   6.010   5.756  0.6535  1.3009  0.1281
13456TIP3   OH261782   3.347   2.898  11.564 -0.4621 -0.0820  0.3341
13456TIP3    H161783   3.369   2.808  11.541  1.9149  0.9254 -1.8392
13456TIP3    H261784   3.291   2.929  11.492  0.1731  0.6568  0.1409
13457TIP3   OH261785   4.984   1.938   4.538  0.6657  0.1576  0.6143
13457TIP3    H161786   5.023   1.860   4.498  2.5460  0.9346  0.7965
13457TIP3    H261787   4.948   1.908   4.621 -0.8660 -0.9527 -0.4005
13458TIP3   OH261788   3.282   2.007  14.741 -0.7676  0.4388  0.1632
13458TIP3    H161789   3.199   1.960  14.754 -1.4760  1.4527 -0.5799
13458TIP3    H261790   3.303   1.992  14.649 -0.6224  0.9724  0.1084
13459TIP3   OH261791   0.847   4.928  16.477 -0.9082 -0.7471 -0.3614
13459TIP3    H161792   0.767   4.923  16.426 -1.4226 -0.1048  0.3680
13459TIP3    H261793   0.907   4.980  16.423 -0.7530 -1.7170 -1.1703
13460TIP3   OH261794   3.022   1.497   4.029 -0.0279 -0.3353  0.2170
13460TIP3    H161795   3.106   1.475   4.067 -0.2742 -1.6097  0.0468
13460TIP3    H261796   3.020   1.451   3.945 -0.0268  1.3951 -0.7793
13461TIP3   OH261797   5.308   0.763   4.747  0.6430  0.2046  0.4624
13461TIP3    H161798   5.357   0.837   4.711  0.6228 -0.0807 -0.1674
13461TIP3    H261799   5.255   0.801   4.817  0.0161  0.9529 -0.3813
13462TIP3   OH261800   3.857   5.660   2.848 -0.2628  0.2438 -1.1122
13462TIP3    H161801   3.937   5.688   2.803  0.0251 -0.3546 -0.9837
13462TIP3    H261802   3.791   5.656   2.779 -0.2996  1.1862 -1.1389
13463TIP3   OH261803   0.688   6.533   1.739 -0.6783 -0.0282 -0.0867
13463TIP3    H161804   0.600   6.509   1.769 -0.9013  1.5137  0.6197
13463TIP3    H261805   0.674   6.606   1.678  0.0909  0.0798 -0.1458
13464TIP3   OH261806   1.437   4.467   2.628  0.1692  0.0256 -0.4561
13464TIP3    H161807   1.381   4.499   2.557 -2.6016  2.0924  2.4428
13464TIP3    H261808   1.438   4.372   2.616 -1.9943  0.1279 -1.9877
13465TIP3   OH261809   4.024   2.340  14.768 -0.0712 -0.1588  0.1647
13465TIP3    H161810   4.097   2.317  14.825 -0.1505  0.3297  0.4713
13465TIP3    H261811   4.046   2.427  14.735 -0.1664 -0.3176 -0.3212
13466TIP3   OH261812   2.647   1.430  15.972  0.5354 -0.2805  0.1411
13466TIP3    H161813   2.666   1.367  15.901 -0.5343  0.7488 -1.1058
13466TIP3    H261814   2.562   1.467  15.949  0.8513  1.1696  1.1897
13467TIP3   OH261815   2.383   2.371  13.636  0.2357  0.9229 -0.3748
13467TIP3    H161816   2.307   2.410  13.593 -0.0513 -0.1503 -0.8721
13467TIP3    H261817   2.439   2.446  13.659 -1.7663  1.9321  1.6750
13468TIP3   OH261818   3.630   3.423   0.742 -0.2129  0.1722  0.5041
13468TIP3    H161819   3.566   3.473   0.692  1.1525  1.3490 -0.1161
13468TIP3    H261820   3.673   3.487   0.798 -0.6715 -0.8787  2.1269
13469TIP3   OH261821   4.952   5.966  11.728  0.4030 -0.0896 -0.2791
13469TIP3    H161822   4.901   5.920  11.795 -0.3007 -1.2669 -1.5871
13469TIP3    H261823   4.945   5.911  11.650  1.2303  1.2354 -1.3277
13470TIP3   OH261824   0.496   3.629  14.760 -0.3365 -0.5177 -0.7250
13470TIP3    H161825   0.418   3.611  14.708 -1.2619 -0.4964  0.5922
13470TIP3    H261826   0.527   3.543  14.788 -1.2291 -0.4285  0.6053
13471TIP3   OH261827   1.460   3.839   4.429  0.1526  0.4672  0.7786
13471TIP3    H161828   1.464   3.797   4.515 -1.2706  0.7470  1.0038
13471TIP3    H261829   1.544   3.883   4.420  0.8657 -0.6945  1.4283
13472TIP3   OH261830   4.020   2.380   0.489 -0.7656  0.1315  1.1184
13472TIP3    H161831   4.107   2.360   0.453 -0.5744  0.5206  1.3532
13472TIP3    H261832   4.014   2.326   0.568 -1.1415 -0.6416  0.5623
13473TIP3   OH261833   2.309   4.515   5.395 -0.4560 -0.0528  0.6053
13473TIP3    H161834   2.293   4.530   5.488 -0.7111  0.6063  0.4574
13473TIP3    H261835   2.330   4.421   5.389 -0.3072 -0.0714  1.3401
13474TIP3   OH261836   5.893   4.999  16.231  0.1748  0.3353  0.1292
13474TIP3    H161837   5.940   4.981  16.150  0.2968  2.5152 -0.3469
13474TIP3    H261838   5.962   5.004  16.298  0.6717  2.8697 -0.4545
13475TIP3   OH261839   4.563   2.829   5.035 -0.1608 -0.0059  0.5934
13475TIP3    H161840   4.576   2.923   5.047  0.2977 -0.1933  1.7714
13475TIP3    H261841   4.581   2.813   4.943  1.8355  0.7587  0.7990
13476TIP3   OH261842   3.153   0.942   3.791  0.6392 -0.2177  0.1285
13476TIP3    H161843   3.105   0.876   3.841  0.7601 -0.5871 -0.2366
13476TIP3    H261844   3.085   1.001   3.759  0.4253 -0.7069 -0.3374
13477TIP3   OH261845   1.764   0.392   0.164 -0.4781 -0.0357 -0.3296
13477TIP3    H161846   1.766   0.365   0.072 -0.1630  1.2067 -0.7059
13477TIP3    H261847   1.725   0.318   0.210  0.7876 -1.3348 -1.2390
13478TIP3   OH261848   6.216   0.767  14.851 -0.0683  0.4532 -0.3598
13478TIP3    H161849   6.266   0.805  14.923 -0.8997 -1.1573  1.1207
13478TIP3    H261850   6.216   0.673  14.868 -2.1284  0.2414 -1.2562
13479TIP3   OH261851   2.439   0.758  13.630 -0.0205  0.0892 -0.2954
13479TIP3    H161852   2.534   0.756  13.622 -0.0038  1.7511 -0.8836
13479TIP3    H261853   2.413   0.666  13.627  1.5520 -0.3900 -0.2029
13480TIP3   OH261854   1.442   2.839   0.583 -0.0236  0.0513  0.1939
13480TIP3    H161855   1.387   2.913   0.557  1.8817  1.5470  0.2050
13480TIP3    H261856   1.456   2.851   0.677 -0.8610 -1.1879  0.5135
13481TIP3   OH261857   3.914   1.806   2.369  0.1339  0.1676  0.2633
13481TIP3    H161858   3.986   1.745   2.385 -0.5151 -0.8847 -0.6643
13481TIP3    H261859   3.838   1.765   2.411 -0.4519 -0.0263 -0.9250
13482TIP3   OH261860   5.985   4.928   5.039 -0.1771 -0.1565 -0.3553
13482TIP3    H161861   5.913   4.866   5.048 -0.5334  0.4558  1.6307
13482TIP3    H261862   5.960   4.983   4.964 -1.2725 -0.6080 -0.3416
13483TIP3   OH261863   1.927   0.552   3.005  0.4214  0.2922 -0.3868
13483TIP3    H161864   1.985   0.485   2.969 -0.4301 -0.4282 -0.4473
13483TIP3    H261865   1.947   0.631   2.955 -0.5872 -0.6221 -2.3055
13484TIP3   OH261866   2.219   3.148   2.692  0.2984  0.1390  0.5721
13484TIP3    H161867   2.223   3.232   2.647 -0.6960 -1.6393 -3.2232
13484TIP3    H261868   2.133   3.145   2.732  0.0089  0.5926 -0.0139
13485TIP3   OH261869   1.953   3.717  11.010 -0.1463 -0.1727 -0.1851
13485TIP3    H161870   1.967   3.808  10.986 -0.7636  0.0466  0.2482
13485TIP3    H261871   2.030   3.671  10.976  0.0399  0.4610 -0.6434
13486TIP3   OH261872   5.029   2.467  12.938  0.2006 -0.0188 -0.1207
13486TIP3    H161873   4.942   2.474  12.899  0.3553 -0.1981 -0.5017
13486TIP3    H261874   5.089   2.483  12.865  0.4952  2.6452  0.6030
13487TIP3   OH261875   0.857   6.706  16.438 -0.3690  0.0800 -0.0159
13487TIP3    H161876   0.944   6.691  16.476  1.2436  3.6808 -1.7394
13487TIP3    H261877   0.808   6.750  16.507  0.1717  0.5305  0.0872
13488TIP3   OH261878   1.358   5.092  15.398  0.0036  0.3471 -0.0615
13488TIP3    H161879   1.357   5.050  15.484 -1.0555  0.4951  0.0145
13488TIP3    H261880   1.285   5.154  15.401 -0.1647  0.2129 -1.1380
13489TIP3   OH261881   0.653   3.629   5.562  0.0289 -0.5561  1.1602
13489TIP3    H161882   0.576   3.682   5.582  1.2332  1.8472 -0.1277
13489TIP3    H261883   0.694   3.614   5.648 -0.1367  1.0045  1.5530
13490TIP3   OH261884   4.604   3.996  17.266 -0.1196  0.1072  0.5172
13490TIP3    H161885   4.538   4.045  17.218 -1.4737 -1.5548  0.5937
13490TIP3    H261886   4.563   3.976  17.350 -0.2922 -2.4838 -0.0872
13491TIP3   OH261887   6.512   5.331   1.222  0.2080 -0.3350 -0.0628
13491TIP3    H161888   6.423   5.362   1.242 -0.0694 -0.1981 -1.4110
13491TIP3    H261889   6.563   5.411   1.212  0.9042 -0.4099  2.2862
13492TIP3   OH261890   2.937   3.435   4.108  0.3425 -0.2653 -0.4111
13492TIP3    H161891   2.901   3.353   4.141  1.4851 -0.5628  0.1545
13492TIP3    H261892   2.869   3.500   4.126 -0.5283 -1.0638 -0.7642
13493TIP3   OH261893   0.638   1.560   1.718 -0.5236  0.0079  0.6467
13493TIP3    H161894   0.548   1.551   1.750 -0.9505  0.0999 -0.4788
13493TIP3    H261895   0.669   1.471   1.707  0.4269 -0.0927  3.3472
13494TIP3   OH261896   6.014   1.652  14.974 -0.4234  0.5845 -0.9041
13494TIP3    H161897   6.086   1.592  14.993  0.7024  1.6927 -1.5297
13494TIP3    H261898   5.936   1.596  14.974  0.6362 -0.9856 -1.9650
13495TIP3   OH261899   6.153   6.435   3.451  0.5154 -0.4434  0.2533
13495TIP3    H161900   6.077   6.488   3.478  1.6533  0.5311  1.7097
13495TIP3    H261901   6.157   6.364   3.515  0.6238 -0.7177 -0.0517
13496TIP3   OH261902   3.313   2.800   0.228 -0.3878 -0.1702 -0.1192
13496TIP3    H161903   3.334   2.891   0.249  2.8684 -1.4037  2.8631
13496TIP3    H261904   3.326   2.793   0.134  0.6418  2.1587 -0.2040
13497TIP3   OH261905   5.827   1.301  12.556  0.1419 -0.1214 -0.6928
13497TIP3    H161906   5.829   1.263  12.468 -0.8195  0.3855 -0.9493
13497TIP3    H261907   5.762   1.372  12.550  0.4288  0.2403  0.2955
13498TIP3   OH261908   5.014   0.274  10.365  0.1429 -0.2309 -0.9903
13498TIP3    H161909   4.973   0.196  10.404  0.0803 -0.1654 -0.9261
13498TIP3    H261910   4.976   0.348  10.413  2.8778 -0.2755  1.5363
13499TIP3   OH261911   1.415   2.869   4.245 -0.0406 -0.4212 -0.1408
13499TIP3    H161912   1.398   2.901   4.157  1.9518 -0.5392 -0.6254
13499TIP3    H261913   1.382   2.779   4.245 -0.2420 -0.3470 -0.6914
13500TIP3   OH261914   2.468   3.846   6.711  0.1073 -0.5281 -0.1272
13500TIP3    H161915   2.383   3.803   6.707 -0.2903  0.0977  1.1670
13500TIP3    H261916   2.473   3.897   6.629  0.6030 -2.9557 -1.7111
13501TIP3   OH261917   6.400   0.708   0.791  0.0653 -0.5194  0.2684
13501TIP3    H161918   6.366   0.636   0.844  0.4819  0.5807  2.1542
13501TIP3    H261919   6.494   0.708   0.809  0.1668  0.0584 -0.2425
13502TIP3   OH261920   2.691   3.004  14.570 -0.3882  0.2222 -0.3135
13502TIP3    H161921   2.736   3.078  14.529 -1.2783 -0.4985 -2.6982
13502TIP3    H261922   2.670   3.036  14.658 -0.9937  2.9522 -1.3400
13503TIP3   OH261923   0.894   1.957  11.907 -0.1026  0.1946  0.3393
13503TIP3    H161924   0.846   1.903  11.970 -0.3036 -2.0657 -1.6436
13503TIP3    H261925   0.856   1.935  11.822  0.3789  2.9158 -0.6729
13504TIP3   OH261926   0.691   2.986  11.403  0.4647  0.2554  0.2387
13504TIP3    H161927   0.660   2.991  11.312  2.2812  4.3234 -0.3986
13504TIP3    H261928   0.780   2.954  11.396  0.6645  0.7334  0.5250
13505TIP3   OH261929   5.168   6.374  12.514 -0.3066 -0.2787 -0.1603
13505TIP3    H161930   5.216   6.457  12.517  0.1858 -0.5133 -1.1115
13505TIP3    H261931   5.221   6.317  12.459 -1.3604 -0.7562 -0.7258
13506TIP3   OH261932   4.089   0.840  13.492  0.8060  0.4203  1.0290
13506TIP3    H161933   4.051   0.752  13.495 -1.1862  1.1253 -0.7931
13506TIP3    H261934   4.119   0.850  13.402  0.9769  1.6072  1.2054
13507TIP3   OH261935   2.354   5.151   1.454  0.0490 -0.5136 -0.7482
13507TIP3    H161936   2.391   5.143   1.366  3.8249  1.5661  0.4589
13507TIP3    H261937   2.405   5.090   1.508  0.6407  1.1648  0.6811
13508TIP3   OH261938   1.087   0.643  12.738 -0.0642  1.0252 -0.3485
13508TIP3    H161939   1.036   0.570  12.773  1.1965  1.0195  1.6520
13508TIP3    H261940   1.089   0.629  12.644 -2.3953  0.1852 -0.3307
13509TIP3   OH261941   0.276   6.305  11.627 -0.2157 -0.4180  0.2851
13509TIP3    H161942   0.318   6.392  11.626  0.1813 -0.6091 -0.0636
13509TIP3    H261943   0.348   6.245  11.645 -0.1866 -0.8260 -1.0921
13510TIP3   OH261944   0.696   5.544   3.591 -0.1457 -0.3944 -0.0383
13510TIP3    H161945   0.681   5.462   3.637 -2.7094  0.3235  0.5451
13510TIP3    H261946   0.702   5.519   3.499 -3.3581 -1.1219 -0.1657
13511TIP3   OH261947   4.835   0.072   0.947 -0.0347 -0.1233  0.6771
13511TIP3    H161948   4.918   0.072   0.899 -0.3286  0.4488  0.1529
13511TIP3    H261949   4.834  -0.012   0.993  0.7427 -0.2208  0.5346
13512TIP3   OH261950   1.393   6.262   0.354  0.9940 -0.4604 -0.5892
13512TIP3    H161951   1.411   6.344   0.401 -0.0232 -1.4304  1.6225
13512TIP3    H261952   1.317   6.282   0.299  1.6221  0.4461 -1.1585
13513TIP3   OH261953   2.204   0.748  13.141  0.5783 -0.2425  0.2865
13513TIP3    H161954   2.273   0.687  13.168  0.5988  0.0916  1.0077
13513TIP3    H261955   2.136   0.692  13.103  0.2660 -0.8025  1.6194
13514TIP3   OH261956   0.238   3.535   3.753  0.0475  0.2349  0.3008
13514TIP3    H161957   0.285   3.521   3.835 -0.1672  0.8848  0.5384
13514TIP3    H261958   0.196   3.620   3.763  2.2293  1.6466 -1.5047
13515TIP3   OH261959   3.271   3.158  16.639 -0.2379  0.0387 -0.1210
13515TIP3    H161960   3.232   3.116  16.716 -0.2314 -1.0793 -0.6972
13515TIP3    H261961   3.334   3.093  16.606  1.4995  1.4426  0.2850
13516TIP3   OH261962   3.732   0.522  13.600  0.1879 -0.5806 -0.0273
13516TIP3    H161963   3.697   0.609  13.579  0.6175 -0.2598  0.5572
13516TIP3    H261964   3.717   0.512  13.694 -0.1405 -1.2755 -0.1451
13517TIP3   OH261965   5.421   1.593   5.678 -0.1664  0.4138 -0.1914
13517TIP3    H161966   5.409   1.687   5.691  1.3504  0.3079  2.6650
13517TIP3    H261967   5.515   1.581   5.669 -0.3710 -0.8167 -0.9661
13518TIP3   OH261968   5.198   3.224   6.093 -0.2352 -0.1912  0.0759
13518TIP3    H161969   5.128   3.222   6.028  0.2121  0.4138 -0.4362
13518TIP3    H261970   5.165   3.281   6.163 -1.3235 -1.9871  1.1274
13519TIP3   OH261971   6.165   2.960  12.734  0.2181 -1.0695 -0.5958
13519TIP3    H161972   6.172   3.052  12.711 -0.6217 -0.8816 -0.1575
13519TIP3    H261973   6.169   2.914  12.650  0.2495 -0.6042 -0.8517
13520TIP3   OH261974   5.430   5.097  16.312  0.3394  0.2021  0.2490
13520TIP3    H161975   5.390   5.175  16.276 -0.7186 -0.6279 -0.4389
13520TIP3    H261976   5.357   5.036  16.324  0.9170 -0.1727  2.1617
13521TIP3   OH261977   1.551   5.354  10.781 -0.3493  0.1173 -0.1403
13521TIP3    H161978   1.460   5.375  10.800  0.0687 -0.4332  2.8583
13521TIP3    H261979   1.592   5.439  10.763 -0.7967  0.7864  1.7954
13522TIP3   OH261980   1.662   4.869  15.638  0.3342 -0.2777  0.0573
13522TIP3    H161981   1.739   4.815  15.620  0.2598 -1.0667  1.9467
13522TIP3    H261982   1.588   4.811  15.622  0.1369  0.2035 -0.8498
13523TIP3   OH261983   0.317   3.846  14.162  0.0203  0.4580  0.4299
13523TIP3    H161984   0.387   3.782  14.151 -0.8747 -0.2749 -1.2202
13523TIP3    H261985   0.323   3.872  14.254  2.6934  0.7226  0.2613
13524TIP3   OH261986   1.357   3.810  15.061  0.1654 -0.3484 -0.3956
13524TIP3    H161987   1.266   3.819  15.092  0.6144  1.7663  0.4921
13524TIP3    H261988   1.349   3.803  14.966 -0.9271  0.1887 -0.3661
13525TIP3   OH261989   1.958   6.006  17.303  0.5751  0.5809 -0.1093
13525TIP3    H161990   2.006   5.926  17.327  0.1744  0.4894  0.4178
13525TIP3    H261991   2.009   6.044  17.231  0.7557 -0.1652 -0.3894
13526TIP3   OH261992   4.744   0.480  15.063 -0.4287  0.3662 -0.0707
13526TIP3    H161993   4.665   0.502  15.014 -0.8926 -0.7950  0.1042
13526TIP3    H261994   4.751   0.385  15.054  0.7607  0.4143  0.2046
13527TIP3   OH261995   6.496   3.626   2.083 -0.2181 -0.1614 -0.2873
13527TIP3    H161996   6.412   3.583   2.068 -0.8583  1.0591 -0.3576
13527TIP3    H261997   6.511   3.618   2.177 -1.1641  0.8925 -0.0242
13528TIP3   OH261998   4.046   5.142  15.771 -0.4749  0.2540  0.4331
13528TIP3    H161999   3.964   5.114  15.730  0.9179  0.0524 -2.5061
13528TIP3    H262000   4.089   5.060  15.796 -0.1281  0.1955 -0.3169
13529TIP3   OH262001   0.765   3.161  16.011 -0.0837  0.0682 -0.4119
13529TIP3    H162002   0.836   3.121  15.961  1.6145 -0.5345  2.2457
13529TIP3    H262003   0.719   3.087  16.051  1.0887  0.5336  1.9858
13530TIP3   OH262004   5.374   4.539  11.070  0.1391 -0.0435  0.1239
13530TIP3    H162005   5.280   4.553  11.070  0.3333  1.4784  0.5262
13530TIP3    H262006   5.388   4.465  11.010 -1.1886  0.5116 -0.9159
13531TIP3   OH262007   1.712   1.576  15.730  0.2952 -0.4359  0.2787
13531TIP3    H162008   1.681   1.617  15.649 -0.5683 -1.6542 -0.0446
13531TIP3    H262009   1.771   1.507  15.700  0.3727 -0.5633  0.7185
13532TIP3   OH262010   1.609   4.449   1.014 -0.0001 -0.1055 -0.0313
13532TIP3    H162011   1.629   4.527   0.962  2.0952  0.4845  1.4985
13532TIP3    H262012   1.668   4.382   0.979 -0.3896 -0.4424 -0.0505
13533TIP3   OH262013   3.862   1.869  11.835  0.1941  0.0184  0.0278
13533TIP3    H162014   3.795   1.918  11.883  0.0489  0.0649 -0.2193
13533TIP3    H262015   3.812   1.815  11.774  0.3732 -0.1147 -0.0010
13534TIP3   OH262016   0.560   2.225  15.764  0.0272 -0.2713 -0.0357
13534TIP3    H162017   0.652   2.251  15.769  0.2143 -0.0851 -2.7655
13534TIP3    H262018   0.546   2.171  15.841  2.0566  0.7486  1.1220
13535TIP3   OH262019   6.070   0.584   0.184 -0.6177  0.5246 -0.2595
13535TIP3    H162020   6.058   0.679   0.180 -2.4313  0.3644  0.3438
13535TIP3    H262021   6.008   0.550   0.119  0.1164 -0.2562 -0.5732
13536TIP3   OH262022   4.689   5.871   3.807  0.3151  0.5476 -0.0228
13536TIP3    H162023   4.661   5.792   3.761  0.5696 -0.8750  2.1159
13536TIP3    H262024   4.612   5.928   3.807 -0.1739 -0.0915 -0.7644
13537TIP3   OH262025   4.043   0.557  16.610  1.1057  0.0962  0.0431
13537TIP3    H162026   4.085   0.473  16.629  0.3291 -0.6408 -1.3648
13537TIP3    H262027   4.073   0.615  16.680  1.4306 -1.4194  1.2072
13538TIP3   OH262028   5.749   0.231   0.846  0.0682  0.1245 -0.0432
13538TIP3    H162029   5.709   0.187   0.770  0.9555  0.6453 -0.8300
13538TIP3    H262030   5.759   0.322   0.818  1.7678  0.0248  0.1231
13539TIP3   OH262031   6.746   5.204   5.652 -0.4074  0.3148  0.5502
13539TIP3    H162032   6.801   5.217   5.729  1.0651  0.7870 -0.5486
13539TIP3    H262033   6.739   5.290   5.611 -3.6621  0.7522  1.6738
13540TIP3   OH262034   3.391   2.908  13.122 -0.2911  0.1079 -0.0738
13540TIP3    H162035   3.413   2.850  13.195 -0.5011  0.7736  0.5312
13540TIP3    H262036   3.296   2.902  13.114 -0.2939  0.2210 -0.1365
13541TIP3   OH262037   5.895   4.879   0.707 -0.2716 -0.1314 -0.0631
13541TIP3    H162038   5.830   4.814   0.679 -2.4064  2.2935 -1.1880
13541TIP3    H262039   5.887   4.882   0.802  0.7320 -2.2652  0.1502
13542TIP3   OH262040   0.860   0.816   5.995  0.3535  0.3607  0.0206
13542TIP3    H162041   0.828   0.798   5.906 -0.8179 -1.7019  0.7830
13542TIP3    H262042   0.804   0.887   6.027 -0.9982 -0.6244 -0.0297
13543TIP3   OH262043   4.742   0.042  12.268  0.1243 -0.1846 -0.3426
13543TIP3    H162044   4.731   0.113  12.332 -0.4063  0.3605 -1.0299
13543TIP3    H262045   4.782  -0.029  12.318  2.8046  1.3512 -0.1264
13544TIP3   OH262046   6.006   4.109   5.032 -0.5847  0.0019 -0.2803
13544TIP3    H162047   5.953   4.141   5.105  1.4785  0.5401  1.0716
13544TIP3    H262048   5.994   4.014   5.034  1.3139 -0.3338  2.4896
13545TIP3   OH262049   1.493   3.831   0.931  0.2928 -0.0094 -0.0744
13545TIP3    H162050   1.501   3.925   0.945  1.0808 -0.3071  1.8840
13545TIP3    H262051   1.479   3.821   0.837  0.1528  2.0496 -0.3118
13546TIP3   OH262052   4.578   1.920   5.062 -0.1067  0.4309  0.1906
13546TIP3    H162053   4.648   1.916   5.128  0.3786 -1.6817 -0.3657
13546TIP3    H262054   4.608   1.986   4.999  0.4552  0.9163  0.9470
13547TIP3   OH262055   4.125   3.794  15.442 -0.1135  0.2883 -0.5964
13547TIP3    H162056   4.155   3.855  15.509 -1.1014  0.4349 -0.2777
13547TIP3    H262057   4.159   3.830  15.360  0.6347  0.4038 -0.2417
13548TIP3   OH262058   2.911   3.365  11.835  0.2452  0.1073 -0.0018
13548TIP3    H162059   2.817   3.378  11.821  0.2300  0.1024  0.0965
13548TIP3    H262060   2.917   3.290  11.893  0.3475 -0.5260 -0.8096
13549TIP3   OH262061   3.980   6.241   0.579  0.2209  0.2893 -0.1546
13549TIP3    H162062   4.063   6.286   0.591  0.1202  0.4181  0.0709
13549TIP3    H262063   3.967   6.193   0.660  0.9142 -1.1304 -0.8471
13550TIP3   OH262064   1.273   6.582  14.097 -0.4290  0.3409 -0.0714
13550TIP3    H162065   1.345   6.520  14.104 -0.0594  0.8938  1.4755
13550TIP3    H262066   1.314   6.666  14.076 -0.8825  0.1985 -1.6721
13551TIP3   OH262067   0.327   2.094  12.226 -0.1869 -0.2508 -0.4230
13551TIP3    H162068   0.323   2.042  12.145 -1.1221 -0.8876  0.0102
13551TIP3    H262069   0.420   2.109  12.240  0.0268 -0.7111 -1.2677
13552TIP3   OH262070   0.208   2.484   3.945  0.1538  0.6390  0.3607
13552TIP3    H162071   0.186   2.451   4.032  0.3145  0.1565  0.2213
13552TIP3    H262072   0.125   2.520   3.911  0.5015  2.6028  1.4636
13553TIP3   OH262073   1.043   1.785  13.226  0.3385 -0.0832  0.7077
13553TIP3    H162074   1.029   1.839  13.147  1.7314 -2.8923 -1.6545
13553TIP3    H262075   0.976   1.815  13.287  0.3383  3.5053 -0.8114
13554TIP3   OH262076   2.790   2.778   2.069  0.3109  0.3065  0.2839
13554TIP3    H162077   2.801   2.864   2.028 -1.5297  0.0738 -0.7958
13554TIP3    H262078   2.848   2.780   2.145  2.3465  1.4858 -1.2102
13555TIP3   OH262079   0.396   5.247  16.780  0.1977  0.1143  0.2814
13555TIP3    H162080   0.469   5.186  16.786  0.6368  0.5869 -0.2190
13555TIP3    H262081   0.349   5.220  16.701 -1.3436 -1.4489  1.6334
13556TIP3   OH262082   0.256   1.934  14.851 -0.1543  0.3818 -0.2987
13556TIP3    H162083   0.228   1.969  14.935 -4.9127 -1.2182 -0.8972
13556TIP3    H262084   0.281   2.011  14.800 -1.4118  1.8833  1.2424
13557TIP3   OH262085   4.647   0.306  16.915 -0.1620 -0.4138  0.7392
13557TIP3    H162086   4.608   0.232  16.961 -0.3827  0.5831  2.2323
13557TIP3    H262087   4.575   0.343  16.863 -0.8325  0.4609  2.2422
13558TIP3   OH262088   6.763   6.339  16.107  0.1580 -0.4193 -0.1874
13558TIP3    H162089   6.781   6.432  16.121 -0.1402 -0.0053 -2.2576
13558TIP3    H262090   6.670   6.330  16.125  0.3242 -0.4612  0.6663
13559TIP3   OH262091   2.016   6.550   4.366 -0.0710 -0.3559  0.4018
13559TIP3    H162092   1.958   6.475   4.353 -0.2336 -0.5295  1.8712
13559TIP3    H262093   2.041   6.578   4.278  0.0299 -2.1592 -0.1712
13560TIP3   OH262094   3.632   3.126  10.807 -0.0280 -0.3390  0.3965
13560TIP3    H162095   3.606   3.093  10.721  1.0586  1.0374 -0.5082
13560TIP3    H262096   3.707   3.072  10.832  0.2345 -0.1442  0.0415
13561TIP3   OH262097   1.566   6.464  13.636  0.2387 -0.8440 -0.1884
13561TIP3    H162098   1.553   6.489  13.728  0.5893 -1.4351  0.0272
13561TIP3    H262099   1.578   6.547  13.590  1.1386 -0.5901  0.4681
13562TIP3   OH262100   0.589   1.387   3.108  0.3795  0.0062 -0.6422
13562TIP3    H162101   0.597   1.330   3.185  0.2969  0.2239 -0.4702
13562TIP3    H262102   0.604   1.475   3.142 -0.9230  0.2398 -0.6366
13563TIP3   OH262103   4.343   2.364   1.555  0.6601 -0.3889  0.0662
13563TIP3    H162104   4.434   2.335   1.555  1.5172  2.0121 -1.8357
13563TIP3    H262105   4.333   2.413   1.474 -1.7295  1.2125  1.2181
13564TIP3   OH262106   2.859   0.247   2.816  0.0698 -0.1147  0.2108
13564TIP3    H162107   2.814   0.244   2.901 -0.0199 -1.1121  0.1342
13564TIP3    H262108   2.888   0.338   2.808 -1.4427  0.4304  0.5178
13565TIP3   OH262109   1.982   0.279  11.073 -0.2366 -0.3402 -0.3575
13565TIP3    H162110   2.040   0.221  11.024  0.7393 -0.0996  0.4931
13565TIP3    H262111   2.019   0.366  11.061  1.6354 -0.5474  2.9191
13566TIP3   OH262112   6.757   6.119  17.118 -0.2372  0.1357  0.6372
13566TIP3    H162113   6.676   6.128  17.068  0.3873  1.6361 -0.1546
13566TIP3    H262114   6.795   6.036  17.089  0.0611  0.9131 -1.3550
13567TIP3   OH262115   4.820   3.558   6.326 -0.3144 -0.2708 -0.7277
13567TIP3    H162116   4.778   3.556   6.240  0.7249 -1.0424 -1.2349
13567TIP3    H262117   4.747   3.569   6.387 -1.1622 -0.6103 -1.6353
13568TIP3   OH262118   1.029   3.436   5.016 -0.0014  0.1710 -0.2908
13568TIP3    H162119   1.074   3.471   5.093 -0.4554  1.5825 -0.6534
13568TIP3    H262120   1.062   3.487   4.943 -0.7821 -0.0593 -0.8155
13569TIP3   OH262121   6.504   2.574  16.781  0.1463 -0.3783 -0.2076
13569TIP3    H162122   6.470   2.485  16.776  0.7057 -0.5834 -0.3553
13569TIP3    H262123   6.500   2.607  16.691 -0.2977 -0.1629 -0.1120
13570TIP3   OH262124   5.594   1.419   3.393 -0.1022  0.6237 -0.0637
13570TIP3    H162125   5.590   1.350   3.460 -1.1065 -0.7167 -1.4332
13570TIP3    H262126   5.646   1.381   3.323  0.7943  1.9506 -0.1562
13571TIP3   OH262127   0.959   0.399  15.902 -0.2737  0.2510  0.0763
13571TIP3    H162128   0.970   0.309  15.870 -2.3388  0.2795 -0.8227
13571TIP3    H262129   0.880   0.397  15.956  0.5071  1.2383  1.3249
13572TIP3   OH262130   4.127   5.139  14.281 -0.1323 -0.0880  0.0014
13572TIP3    H162131   4.137   5.090  14.363  0.0684 -1.0699 -0.5964
13572TIP3    H262132   4.211   5.130  14.236  0.1957  1.4852  0.2109
13573TIP3   OH262133   6.403   4.735   1.292 -0.3648 -0.4154  0.2907
13573TIP3    H162134   6.394   4.640   1.286 -2.1799 -0.3253  0.8760
13573TIP3    H262135   6.461   4.750   1.367 -0.7782 -1.0541  0.7466
13574TIP3   OH262136   6.448   2.386   2.138  0.0494  0.8320  0.0696
13574TIP3    H162137   6.541   2.365   2.139 -0.1348 -0.0089 -0.0736
13574TIP3    H262138   6.410   2.332   2.207 -0.5195  0.2538 -0.6766
13575TIP3   OH262139   0.874   2.887  14.094 -0.7018  0.2598 -0.4068
13575TIP3    H162140   0.801   2.949  14.093 -1.2162 -0.1932  2.0213
13575TIP3    H262141   0.952   2.942  14.087 -1.2065  1.0075 -0.3211
13576TIP3   OH262142   0.379   0.086  10.427  0.6110 -0.2387 -0.2493
13576TIP3    H162143   0.395   0.055  10.338  0.3320 -0.6112 -0.1732
13576TIP3    H262144   0.319   0.021  10.464 -1.2522  1.1860 -0.5916
13577TIP3   OH262145   4.302   0.701   0.491 -0.5423 -0.7552  0.5372
13577TIP3    H162146   4.344   0.627   0.536 -0.8997 -1.0905  0.3227
13577TIP3    H262147   4.373   0.763   0.477  0.1070 -1.7070 -0.6681
13578TIP3   OH262148   0.067   2.505   4.526 -0.1192 -0.4243 -0.1595
13578TIP3    H162149   0.014   2.546   4.594  0.1277 -0.9187  0.3441
13578TIP3    H262150   0.068   2.412   4.551  1.5045 -0.3370  0.2007
13579TIP3   OH262151   4.864   6.651  14.363  0.9208 -0.7332  0.1874
13579TIP3    H162152   4.808   6.704  14.305  1.1948 -0.8712 -0.2040
13579TIP3    H262153   4.845   6.560  14.337 -1.1037 -0.9914  2.2271
13580TIP3   OH262154   5.509   4.072   0.165 -0.1789 -0.6192  0.4719
13580TIP3    H162155   5.492   4.156   0.209 -0.8295  0.5199 -1.8163
13580TIP3    H262156   5.424   4.028   0.165 -1.0426  0.7923 -2.2958
13581TIP3   OH262157   4.998   4.994   3.254  0.7100  0.5982  0.5597
13581TIP3    H162158   4.974   5.030   3.169 -3.7344  0.1793  1.3757
13581TIP3    H262159   5.030   5.069   3.304 -0.6713  1.7431 -0.2084
13582TIP3   OH262160   1.010   5.456  14.775 -0.7017 -0.1186 -0.2248
13582TIP3    H162161   0.944   5.524  14.772  0.1597  0.7216 -0.7458
13582TIP3    H262162   1.093   5.503  14.785 -0.0842 -1.0730 -0.6786
13583TIP3   OH262163   2.364   5.114   5.359 -0.5012  0.6328 -0.3167
13583TIP3    H162164   2.304   5.040   5.358 -1.3792  1.3147  0.2012
13583TIP3    H262165   2.401   5.113   5.448  1.0814 -0.4006 -0.9403
13584TIP3   OH262166   3.280   5.540   0.248 -0.2074  0.1369 -0.5804
13584TIP3    H162167   3.326   5.461   0.278  1.6734  1.1911 -0.5725
13584TIP3    H262168   3.204   5.546   0.307 -0.5619 -1.7831 -0.7534
13585TIP3   OH262169   2.256   3.685   1.557  0.4908  0.0464 -0.1513
13585TIP3    H162170   2.208   3.603   1.566  5.3533 -3.5030 -2.3753
13585TIP3    H262171   2.262   3.719   1.646 -3.2083 -0.8290  0.5989
13586TIP3   OH262172   6.030   1.852  15.285  0.3125 -0.0161 -0.6701
13586TIP3    H162173   6.051   1.760  15.301 -1.3111  0.1032  3.3767
13586TIP3    H262174   5.934   1.855  15.285  0.3242  1.7760  0.5706
13587TIP3   OH262175   6.522   1.242  12.463 -0.0822 -0.0427 -0.1846
13587TIP3    H162176   6.512   1.149  12.443 -1.6065  0.0598 -0.0402
13587TIP3    H262177   6.482   1.287  12.388  0.5433  0.5003 -0.2016
13588TIP3   OH262178   1.875   6.288  15.034 -0.2503  0.2328 -0.0923
13588TIP3    H162179   1.893   6.322  15.121 -0.9000 -0.9014  0.5111
13588TIP3    H262180   1.904   6.197  15.038 -0.1669  0.2086 -1.1084
13589TIP3   OH262181   1.334   1.652   0.544 -0.3952  0.5733  0.2748
13589TIP3    H162182   1.420   1.632   0.580 -0.4849  0.6406  0.5242
13589TIP3    H262183   1.353   1.699   0.462 -0.1947  1.1567  0.6485
13590TIP3   OH262184   4.237   5.538  16.998  0.0525 -0.0872  0.2410
13590TIP3    H162185   4.153   5.528  17.042 -1.0515  1.2567 -1.4250
13590TIP3    H262186   4.276   5.450  17.001 -1.9282 -1.0400  0.0964
13591TIP3   OH262187   3.652   1.017  14.353  0.4314 -0.0922 -0.4663
13591TIP3    H162188   3.606   0.934  14.350 -1.4106  0.8756 -0.2728
13591TIP3    H262189   3.604   1.069  14.418  2.1838  0.7724  0.2177
13592TIP3   OH262190   2.884   0.127  16.698 -0.1505 -0.0688 -0.1354
13592TIP3    H162191   2.871   0.179  16.618  2.4145 -0.9743 -1.2089
13592TIP3    H262192   2.839   0.044  16.680 -1.5733  0.5594  0.3483
13593TIP3   OH262193   5.650   5.701   2.065 -0.3649 -0.3440 -0.2577
13593TIP3    H162194   5.666   5.794   2.048  0.0901 -0.3290  0.2443
13593TIP3    H262195   5.555   5.692   2.059 -0.8698  0.9222  3.3826
13594TIP3   OH262196   1.012   5.707   0.432  0.3783  0.2897 -0.2014
13594TIP3    H162197   1.044   5.617   0.423 -0.3296 -0.1410  1.3287
13594TIP3    H262198   1.088   5.756   0.466  0.2109 -0.1618  0.8518
13595TIP3   OH262199   6.651   1.088   2.080  0.7662  0.1191  0.1133
13595TIP3    H162200   6.736   1.131   2.074  1.0023 -0.3425  0.1285
13595TIP3    H262201   6.650   1.049   2.167  0.4934  0.2144  0.1535
13596TIP3   OH262202   0.757   0.765   0.939 -0.4515 -0.1204 -0.1107
13596TIP3    H162203   0.710   0.839   0.900 -0.6698  0.9013  1.9252
13596TIP3    H262204   0.743   0.693   0.878  0.3360  1.6406 -2.5417
13597TIP3   OH262205   5.842   1.464   0.960 -0.1364 -0.5989 -0.3576
13597TIP3    H162206   5.834   1.530   0.891  0.1348  0.2898  0.4429
13597TIP3    H262207   5.904   1.501   1.022 -0.2832 -1.4371  0.3147
13598TIP3   OH262208   5.881   2.548   4.368  0.2906  0.4092  0.3247
13598TIP3    H162209   5.895   2.620   4.307  2.6677 -1.0027 -0.9370
13598TIP3    H262210   5.821   2.488   4.323  1.8027 -0.4824 -0.5830
13599TIP3   OH262211   4.039   3.288  15.960  0.1060 -0.3635 -0.3518
13599TIP3    H162212   4.118   3.285  16.014 -0.6512  0.0805  0.8178
13599TIP3    H262213   4.025   3.381  15.943 -1.5501 -0.1624  1.6323
13600TIP3   OH262214   3.212   3.735   4.663 -0.0403 -0.6523  0.1729
13600TIP3    H162215   3.245   3.753   4.575 -0.1032  0.2148  0.3169
13600TIP3    H262216   3.229   3.816   4.712 -1.5299 -0.5083  0.5091
13601TIP3   OH262217   2.529   4.470  12.750 -0.6086  0.2631  0.3124
13601TIP3    H162218   2.459   4.483  12.685  1.2623  0.0299 -1.8827
13601TIP3    H262219   2.584   4.548  12.742  1.6478 -1.3490 -1.1141
13602TIP3   OH262220   5.132   6.266   1.499  0.0104 -0.1659  0.6920
13602TIP3    H162221   5.053   6.238   1.452  1.6799 -3.7410 -0.4171
13602TIP3    H262222   5.103   6.337   1.556 -3.2307  0.9850 -2.0682
13603TIP3   OH262223   3.583   0.574   3.378 -0.0114 -0.3497  0.5707
13603TIP3    H162224   3.522   0.513   3.420 -1.0815 -0.4527 -1.0178
13603TIP3    H262225   3.615   0.526   3.301  0.9254  0.2652  0.5612
13604TIP3   OH262226   0.085   4.576   6.095 -0.2132  0.3369  0.3705
13604TIP3    H162227   0.178   4.597   6.102 -0.2006  1.0272 -1.2562
13604TIP3    H262228   0.082   4.505   6.030 -0.8612  0.8590 -0.1839
13605TIP3   OH262229   0.218   0.390   1.461  0.1695 -0.2528 -0.3255
13605TIP3    H162230   0.176   0.375   1.546 -0.0442 -1.4146 -0.6183
13605TIP3    H262231   0.267   0.472   1.472 -1.7867  0.8968  0.1668
13606TIP3   OH262232   2.885   4.738  15.971  0.0923  0.3107 -0.2652
13606TIP3    H162233   2.957   4.749  16.033 -1.1605  1.3106  1.0662
13606TIP3    H262234   2.911   4.664  15.917  1.2286 -0.5905  1.4457
13607TIP3   OH262235   1.030   0.825   5.575  0.6418 -0.1331 -0.3678
13607TIP3    H162236   0.955   0.776   5.541  2.4640 -1.8495 -2.2292
13607TIP3    H262237   1.037   0.797   5.666 -0.1298 -1.0860 -0.5784
13608TIP3   OH262238   1.692   0.122   5.909  0.4761  0.2964  0.3680
13608TIP3    H162239   1.706   0.197   5.966 -0.0428 -0.0554  0.9783
13608TIP3    H262240   1.771   0.068   5.921  0.8542  0.7492 -0.0833
13609TIP3   OH262241   6.580   1.798  12.465  0.0038  0.1743 -0.2390
13609TIP3    H162242   6.492   1.827  12.442  0.4894  1.3891 -0.6299
13609TIP3    H262243   6.623   1.782  12.381 -0.0037 -0.9350 -0.0411
13610TIP3   OH262244   1.811   1.264  13.912 -0.3385  0.2750 -0.0037
13610TIP3    H162245   1.805   1.173  13.882  0.6603  0.2557 -0.1616
13610TIP3    H262246   1.856   1.310  13.841 -0.7260  0.8770  0.1306
13611TIP3   OH262247   3.708   1.038   0.477  0.1575 -0.1356 -0.6834
13611TIP3    H162248   3.647   1.058   0.406  1.3001  0.7720 -1.4558
13611TIP3    H262249   3.700   1.111   0.537 -1.1445 -1.1256  0.4137
13612TIP3   OH262250   4.300   6.627  13.773  0.4139 -0.1472 -0.2522
13612TIP3    H162251   4.342   6.542  13.790  0.4458  0.0425  0.6288
13612TIP3    H262252   4.359   6.670  13.711  0.4970 -0.6834 -0.5610
13613TIP3   OH262253   5.083   6.138  11.908  0.2631  0.0257 -0.1208
13613TIP3    H162254   5.058   6.103  11.823  1.2276  0.2929 -0.5161
13613TIP3    H262255   5.178   6.140  11.907  0.2838  2.7112 -0.1494
13614TIP3   OH262256   6.736   2.159  16.670 -0.4139  0.0897 -0.5419
13614TIP3    H162257   6.743   2.065  16.687 -0.0036 -0.1064 -1.6944
13614TIP3    H262258   6.761   2.168  16.578 -0.1973  1.3561 -0.3733
13615TIP3   OH262259   3.760   0.976  13.366  0.0460 -0.4934  0.6303
13615TIP3    H162260   3.786   0.959  13.456 -1.9789 -0.3330  1.3116
13615TIP3    H262261   3.674   1.019  13.374 -0.2330 -0.5866 -1.3657
13616TIP3   OH262262   6.656   0.509   0.143 -1.3366 -0.2006  0.3873
13616TIP3    H162263   6.629   0.442   0.081  0.1301  0.5280 -1.1116
13616TIP3    H262264   6.630   0.592   0.102 -0.2889  0.2962  0.6953
13617TIP3   OH262265   1.457   3.724  11.640  0.3630  0.5912 -0.3565
13617TIP3    H162266   1.479   3.650  11.697  0.9916  0.5788 -0.6077
13617TIP3    H262267   1.495   3.800  11.685  0.1565  0.6903 -0.3508
13618TIP3   OH262268   1.730   0.784  11.059  0.4580 -0.2304  0.3511
13618TIP3    H162269   1.780   0.712  11.097  1.0259  0.0171  0.0768
13618TIP3    H262270   1.790   0.826  10.998  0.2125  0.6292  0.6781
13619TIP3   OH262271   4.573   5.631   2.859 -0.7546 -0.1738 -0.1308
13619TIP3    H162272   4.586   5.559   2.797  0.5913 -0.1409  0.0626
13619TIP3    H262273   4.649   5.625   2.917 -1.6084  0.2425  1.0704
13620TIP3   OH262274   3.310   0.680  13.479  0.1479  0.1980 -0.1478
13620TIP3    H162275   3.265   0.765  13.476 -1.2591 -0.3790  2.2103
13620TIP3    H262276   3.242   0.616  13.458  0.7192 -0.4731  0.0222
13621TIP3   OH262277   4.352   4.197  12.002 -0.1294 -0.1033  0.5792
13621TIP3    H162278   4.305   4.268  11.957 -0.4037 -0.0501  0.9446
13621TIP3    H262279   4.284   4.133  12.023 -0.1050  0.1346  1.4275
13622TIP3   OH262280   5.302   2.353  15.314 -0.6247  0.0410  0.7619
13622TIP3    H162281   5.228   2.343  15.373 -0.0121 -0.4975  1.4652
13622TIP3    H262282   5.377   2.369  15.372 -0.0039 -0.5495  0.1435
13623TIP3   OH262283   2.324   1.804  16.597  0.4641  0.0565  0.0288
13623TIP3    H162284   2.303   1.837  16.684  0.8181  1.7095 -0.4758
13623TIP3    H262285   2.407   1.845  16.575  1.2975 -1.7569 -0.3831
13624TIP3   OH262286   4.562   0.813  12.349 -0.0057 -0.4138 -0.3054
13624TIP3    H162287   4.607   0.757  12.284 -0.2909 -0.7317 -0.2304
13624TIP3    H262288   4.488   0.760  12.379  1.0248 -0.9247  1.4717
13625TIP3   OH262289   4.063   5.371   5.523 -0.1305  0.8143 -0.4601
13625TIP3    H162290   4.138   5.311   5.526 -1.3006 -0.6825  0.1693
13625TIP3    H262291   4.067   5.418   5.606  0.1259  0.7841 -0.4524
13626TIP3   OH262292   3.461   1.181  14.484 -0.3476  0.3566 -0.5417
13626TIP3    H162293   3.505   1.260  14.451  0.8995  0.7338  1.8204
13626TIP3    H262294   3.388   1.214  14.537 -0.8243 -0.1470 -0.8678
13627TIP3   OH262295   1.398   0.716   5.607 -0.0414  0.4465  0.1257
13627TIP3    H162296   1.485   0.675   5.604 -0.1129  0.2409  0.7562
13627TIP3    H262297   1.410   0.802   5.567  0.1464 -0.1248 -1.1042
13628TIP3   OH262298   4.757   2.163  13.445 -0.6932 -0.0245  0.3736
13628TIP3    H162299   4.695   2.165  13.518 -1.1684 -1.4489  0.0402
13628TIP3    H262300   4.841   2.188  13.484 -1.3261  1.2867  0.9687
13629TIP3   OH262301   1.631   3.327  17.018 -0.4531  0.0755 -0.0698
13629TIP3    H162302   1.702   3.319  17.081 -0.4073 -1.7222 -0.2771
13629TIP3    H262303   1.556   3.358  17.069 -0.2147 -0.6218  0.7231
13630TIP3   OH262304   3.160   2.583  13.917 -0.0270  0.1764  0.1513
13630TIP3    H162305   3.166   2.497  13.960  0.8929  0.6410  1.0111
13630TIP3    H262306   3.190   2.645  13.984 -0.5353  1.1560 -0.5098
13631TIP3   OH262307   5.725   2.371   5.836  0.1139 -0.3903  0.1608
13631TIP3    H162308   5.772   2.442   5.881  0.1007  0.7094 -1.4746
13631TIP3    H262309   5.633   2.392   5.850  0.1021 -0.5496  0.3375
13632TIP3   OH262310   6.414   3.028  12.634 -0.0406  0.2664  0.3064
13632TIP3    H162311   6.388   2.985  12.715 -0.0400  1.1274  0.7701
13632TIP3    H262312   6.332   3.056  12.593 -0.1677 -1.5610 -0.8094
13633TIP3   OH262313   0.391   2.213   5.747  0.6381  0.3055  0.1697
13633TIP3    H162314   0.312   2.172   5.711 -0.0478  1.5017  0.2674
13633TIP3    H262315   0.403   2.293   5.695  2.4396 -0.4042 -0.5882
13634TIP3   OH262316   3.858   6.667  12.182 -0.2031 -0.7786  0.1743
13634TIP3    H162317   3.826   6.579  12.200 -1.8780 -0.4336 -0.8276
13634TIP3    H262318   3.794   6.703  12.120  0.5107  1.0891  0.4548
13635TIP3   OH262319   3.167   4.071   2.095  0.4232  0.6794  0.2842
13635TIP3    H162320   3.154   4.054   2.189 -2.9930 -0.7729 -0.3153
13635TIP3    H262321   3.177   4.166   2.089 -2.1323  1.1573  1.9493
13636TIP3   OH262322   5.902   6.270   2.589  0.7212  0.1838 -0.2669
13636TIP3    H162323   5.904   6.238   2.679 -1.1399 -0.3322 -0.3778
13636TIP3    H262324   5.862   6.200   2.539  0.0980  1.1684 -1.1888
13637TIP3   OH262325   4.208   6.190   4.710 -0.7596 -0.2174 -0.0214
13637TIP3    H162326   4.192   6.270   4.659 -0.7113  0.6096  1.2252
13637TIP3    H262327   4.206   6.219   4.801  1.4765 -1.2271  0.4079
13638TIP3   OH262328   2.349   3.635   2.033 -0.0396  0.1478  0.4957
13638TIP3    H162329   2.419   3.638   2.097 -0.4775 -0.4110  1.0111
13638TIP3    H262330   2.270   3.618   2.084 -0.5238  0.5964 -0.0940
13639TIP3   OH262331   4.540   1.140  14.791 -0.3812  0.2399 -0.6311
13639TIP3    H162332   4.605   1.210  14.779 -0.3940  0.1341 -1.3743
13639TIP3    H262333   4.468   1.165  14.734 -0.2277 -0.5704 -1.1898
13640TIP3   OH262334   0.922   5.561   4.785  0.3052 -0.4385  0.4900
13640TIP3    H162335   0.858   5.615   4.832  0.2891  0.3527 -0.3955
13640TIP3    H262336   1.007   5.592   4.817  0.3761  1.3792 -1.2169
13641TIP3   OH262337   0.254   6.283  14.145  0.3527  0.0291 -1.1483
13641TIP3    H162338   0.328   6.299  14.086  0.5079 -0.7989 -1.1861
13641TIP3    H262339   0.188   6.346  14.118  0.9808  0.6701 -1.2263
13642TIP3   OH262340   5.404   6.173   4.433  0.0788  0.1817  0.9127
13642TIP3    H162341   5.367   6.197   4.348 -1.7439  0.3339  1.6837
13642TIP3    H262342   5.447   6.089   4.418  0.8393  0.7758 -0.3954
13643TIP3   OH262343   2.273   5.339  14.766  0.0833  0.2266 -0.3204
13643TIP3    H162344   2.330   5.386  14.705 -1.5074  2.2924 -0.3083
13643TIP3    H262345   2.319   5.343  14.850 -0.0393  1.8298 -0.3144
13644TIP3   OH262346   6.738   6.037   0.828 -0.2212 -0.2860  0.0858
13644TIP3    H162347   6.792   5.966   0.793  0.0989  0.4588 -1.0024
13644TIP3    H262348   6.679   6.060   0.756 -0.9900 -0.0986  0.7614
13645TIP3   OH262349   2.681   3.457   3.938 -0.6458  0.0704  0.3642
13645TIP3    H162350   2.608   3.407   3.901  0.0613 -0.1791 -0.7505
13645TIP3    H262351   2.678   3.439   4.032 -1.2625 -0.9371  0.1605
13646TIP3   OH262352   2.269   0.667   0.262 -0.0271 -0.0965 -0.0232
13646TIP3    H162353   2.289   0.645   0.353 -0.2815  1.3549  0.4037
13646TIP3    H262354   2.177   0.695   0.263  0.3829  1.3451 -0.4473
13647TIP3   OH262355   0.221   6.259  16.152 -0.7564  1.4416  0.4866
13647TIP3    H162356   0.131   6.285  16.135 -1.4470 -0.8376  0.3466
13647TIP3    H262357   0.220   6.227  16.243 -0.3124  0.6491  0.2268
13648TIP3   OH262358   1.955   3.933   2.480  0.1061 -0.3611 -0.3936
13648TIP3    H162359   2.017   3.861   2.470  0.8128  0.4379 -2.3230
13648TIP3    H262360   1.990   3.985   2.553  1.1788 -0.4630 -0.8121
13649TIP3   OH262361   6.734   5.418  12.164 -0.2462  0.3646  0.2851
13649TIP3    H162362   6.639   5.425  12.155 -0.0202  1.5149 -2.4350
13649TIP3    H262363   6.760   5.360  12.093  1.2023  1.7193 -0.3545
13650TIP3   OH262364   4.791   1.274  14.915 -0.4057  0.3100 -0.0816
13650TIP3    H162365   4.883   1.247  14.920 -0.0330  0.7570 -2.7852
13650TIP3    H262366   4.746   1.219  14.979  1.6635 -0.2256  0.9974
13651TIP3   OH262367   2.155   0.403   4.918 -0.2822 -0.1667  0.4076
13651TIP3    H162368   2.187   0.390   5.008 -0.7439 -2.6308  0.2931
13651TIP3    H262369   2.212   0.348   4.865 -0.1743  1.0852 -0.8132
13652TIP3   OH262370   3.058   1.448  15.245  0.1330  0.1111 -0.4990
13652TIP3    H162371   2.986   1.429  15.305  0.5049  1.7264  0.5056
13652TIP3    H262372   3.015   1.464  15.161 -0.6421  0.3844 -0.0654
13653TIP3   OH262373   4.116   6.508  16.831 -0.0354 -0.3692  0.4237
13653TIP3    H162374   4.143   6.501  16.923  0.4679 -1.2692  0.2189
13653TIP3    H262375   4.197   6.496  16.781 -0.2365  0.5221 -0.1378
13654TIP3   OH262376   5.547   2.033  16.182  0.1286 -0.4798  0.2465
13654TIP3    H162377   5.481   1.972  16.214 -0.5621 -0.4946 -1.1222
13654TIP3    H262378   5.607   1.979  16.131 -0.7729 -0.0016 -1.4060
13655TIP3   OH262379   1.220   0.861  13.230  0.2172 -0.6057  0.1542
13655TIP3    H162380   1.182   0.859  13.318 -2.1810 -2.3438 -0.8125
13655TIP3    H262381   1.244   0.770  13.212 -1.9363 -0.8485 -1.9625
13656TIP3   OH262382   2.938   6.115  11.540  0.7437 -0.0655 -0.2119
13656TIP3    H162383   2.919   6.079  11.453 -2.1650 -1.5254  0.9031
13656TIP3    H262384   2.923   6.042  11.600  3.1286  0.7726  1.5665
13657TIP3   OH262385   2.890   2.388   1.155 -0.3201  0.0458 -0.6890
13657TIP3    H162386   2.837   2.346   1.223  0.3833 -0.2402 -0.2960
13657TIP3    H262387   2.867   2.481   1.161  1.2568  0.3943  1.4391
13658TIP3   OH262388   0.832   0.082   0.123  0.3149  0.2976  0.0319
13658TIP3    H162389   0.811  -0.009   0.142  0.7095  0.2594  0.3109
13658TIP3    H262390   0.852   0.120   0.209 -1.7930  1.1701  0.1828
13659TIP3   OH262391   1.570   4.153   3.790 -0.3207  0.1374 -0.1378
13659TIP3    H162392   1.599   4.083   3.849 -0.1609 -0.0866 -0.4774
13659TIP3    H262393   1.619   4.137   3.709 -0.5515  0.4318 -0.3359
13660TIP3   OH262394   2.097   6.269   5.630 -0.4132  0.1513 -0.5363
13660TIP3    H162395   2.061   6.310   5.709 -0.8647  0.0053 -0.6607
13660TIP3    H262396   2.065   6.323   5.558 -3.1296 -1.7308 -0.9256
13661TIP3   OH262397   0.917   1.083  14.147 -0.3942 -0.4324 -0.1663
13661TIP3    H162398   0.935   1.033  14.068  0.6127 -0.4403  0.0504
13661TIP3    H262399   0.979   1.156  14.144  1.7123 -1.9695  1.9834
13662TIP3   OH262400   5.454   4.863   1.851 -0.0996  0.5007  0.0334
13662TIP3    H162401   5.414   4.834   1.769  1.0529 -1.5538  0.1301
13662TIP3    H262402   5.532   4.809   1.860 -0.9484 -0.3902  3.2134
13663TIP3   OH262403   1.233   0.711   1.628  0.1270  0.0426 -0.1099
13663TIP3    H162404   1.237   0.616   1.619 -1.0316  0.0435 -0.7854
13663TIP3    H262405   1.294   0.744   1.563 -0.1204 -0.2281 -0.4842
13664TIP3   OH262406   4.213   5.359  15.395  0.3959  0.6957  0.3036
13664TIP3    H162407   4.123   5.325  15.395  0.8425 -0.5936  1.4449
13664TIP3    H262408   4.262   5.296  15.341  1.0648 -0.0608  1.7227
13665TIP3   OH262409   0.236   0.982  13.948 -0.5332 -0.1877 -0.2202
13665TIP3    H162410   0.304   0.933  13.903 -0.0136  0.0562  0.2979
13665TIP3    H262411   0.169   0.917  13.968  0.0519 -0.6435  0.2619
13666TIP3   OH262412   6.600   6.495  13.601  0.2642  0.0379  0.0832
13666TIP3    H162413   6.651   6.440  13.541  0.4666  0.8580 -0.5157
13666TIP3    H262414   6.533   6.437  13.636 -0.8622 -0.0848 -2.1578
13667TIP3   OH262415   4.621   0.297   1.931 -0.2412  0.2341  0.3535
13667TIP3    H162416   4.594   0.278   1.842 -0.4226 -0.6066  0.5811
13667TIP3    H262417   4.712   0.267   1.935 -0.1597  0.4810  0.3916
13668TIP3   OH262418   0.537   0.478   1.839  0.2445 -0.0332  0.5519
13668TIP3    H162419   0.616   0.529   1.856  0.4068  0.1191 -0.6100
13668TIP3    H262420   0.526   0.425   1.919  0.7061  0.9693  1.3025
13669TIP3   OH262421   1.906   4.490   4.532  0.2162 -0.4749 -0.0161
13669TIP3    H162422   1.827   4.486   4.585  0.5815 -0.8394  0.5093
13669TIP3    H262423   1.978   4.484   4.595  0.7204  1.9116 -0.2936
13670TIP3   OH262424   5.492   1.513   2.059 -0.5306 -0.2512  0.5064
13670TIP3    H162425   5.574   1.463   2.047 -2.3700 -2.8980 -3.9865
13670TIP3    H262426   5.450   1.472   2.134  1.7027  0.4214  2.2163
13671TIP3   OH262427   4.907   4.183  15.300 -0.0324  0.6760 -0.5194
13671TIP3    H162428   4.961   4.169  15.223 -1.2284  0.5851 -1.3713
13671TIP3    H262429   4.929   4.272  15.329 -0.7880  1.3828 -1.9969
13672TIP3   OH262430   5.078   2.539   2.125 -0.0497  0.4578 -0.1554
13672TIP3    H162431   5.037   2.488   2.195  0.0002 -0.2885 -0.6490
13672TIP3    H262432   5.031   2.511   2.046  0.2197  0.9268 -0.4820
13673TIP3   OH262433   2.269   5.309   3.789 -0.2248 -0.3057 -0.1021
13673TIP3    H162434   2.245   5.232   3.841 -0.5814  0.0467  0.2667
13673TIP3    H262435   2.186   5.339   3.752 -0.0641 -0.1836 -0.3680
13674TIP3   OH262436   4.389   1.321   0.214 -0.0042 -0.0515 -0.5512
13674TIP3    H162437   4.468   1.355   0.171 -0.4249  1.0100 -0.5157
13674TIP3    H262438   4.338   1.283   0.143  0.4405 -0.5712 -0.6039
13675TIP3   OH262439   3.137   3.310   2.307 -0.2564  0.1148  0.9411
13675TIP3    H162440   3.221   3.353   2.290  0.1050 -0.6560  0.7072
13675TIP3    H262441   3.117   3.264   2.225 -1.1770  0.7314  0.8134
13676TIP3   OH262442   3.139   5.739  12.857 -0.5939 -0.3653  0.0703
13676TIP3    H162443   3.069   5.797  12.828  1.0310  2.0532  0.6728
13676TIP3    H262444   3.199   5.733  12.783  0.1457  0.2329  0.6027
13677TIP3   OH262445   5.490   0.589   0.832 -0.0206 -0.0277  0.2162
13677TIP3    H162446   5.423   0.551   0.775 -0.2606  0.9407 -0.1767
13677TIP3    H262447   5.509   0.521   0.896  1.2495 -1.6905 -1.8097
13678TIP3   OH262448   4.460   5.855   1.323  0.3392 -0.5053 -0.1605
13678TIP3    H162449   4.368   5.879   1.308  0.3382 -1.6832 -2.3816
13678TIP3    H262450   4.493   5.923   1.382 -1.6921  0.4956 -0.0925
13679TIP3   OH262451   5.792   0.422  14.964  0.6023 -0.6397  0.3178
13679TIP3    H162452   5.720   0.460  14.914  0.2288 -1.0094  0.5645
13679TIP3    H262453   5.750   0.356  15.020  1.1278 -0.8383  0.4849
13680TIP3   OH262454   1.574   1.016   3.195 -0.1766  0.0758  0.0015
13680TIP3    H162455   1.603   1.096   3.239 -1.0739  0.8360 -0.7466
13680TIP3    H262456   1.649   0.989   3.143  0.3671  0.0379  0.7904
13681TIP3   OH262457   4.937   1.913  15.817 -0.1420 -0.6572 -0.6223
13681TIP3    H162458   4.877   1.846  15.848  0.0852  0.1067  1.6692
13681TIP3    H262459   4.885   1.994  15.817 -0.0185 -0.5602 -1.9229
13682TIP3   OH262460   5.189   4.174   0.039  0.1273  0.8746 -0.4433
13682TIP3    H162461   5.207   4.265   0.013 -1.1000  0.9626 -1.0543
13682TIP3    H262462   5.144   4.182   0.123  1.2880  0.7446  0.2075
13683TIP3   OH262463   2.795   4.157   2.963 -0.3474 -0.0957  0.3072
13683TIP3    H162464   2.850   4.122   2.892  0.1421  0.4427  0.4100
13683TIP3    H262465   2.852   4.154   3.040 -1.2280 -1.7155  0.9497
13684TIP3   OH262466   2.192   5.764   1.181 -0.2562 -0.0488  0.0090
13684TIP3    H162467   2.204   5.733   1.092  1.4568  0.9240 -0.1282
13684TIP3    H262468   2.212   5.857   1.178  1.1444 -0.2393  1.6354
13685TIP3   OH262469   1.173   0.002  14.285 -0.2417  0.0097 -0.0451
13685TIP3    H162470   1.186  -0.072  14.226 -0.9796 -1.4138  1.4972
13685TIP3    H262471   1.080   0.000  14.306 -0.1240  0.9229  0.6095
13686TIP3   OH262472   0.290   6.716   4.657  0.5106 -0.5512  0.2216
13686TIP3    H162473   0.235   6.649   4.617  0.1614 -0.1979  0.1030
13686TIP3    H262474   0.228   6.774   4.701  0.9052 -1.1868  1.6754
13687TIP3   OH262475   6.576   6.742  16.958  0.4739 -0.0503  0.4543
13687TIP3    H162476   6.502   6.788  16.918 -0.7704 -1.0043  1.5691
13687TIP3    H262477   6.617   6.807  17.015  2.0112  1.1985 -1.9071
13688TIP3   OH262478   2.719   4.072  15.028 -0.4186 -0.0983  0.0845
13688TIP3    H162479   2.697   4.154  15.073  0.1127  0.8798 -1.3639
13688TIP3    H262480   2.812   4.060  15.044  0.3024  1.4140 -2.3981
13689TIP3   OH262481   0.640   0.506   0.510 -0.6917  0.6868  0.1468
13689TIP3    H162482   0.567   0.450   0.481 -1.6055  1.0845  1.6241
13689TIP3    H262483   0.663   0.556   0.432  0.1365 -1.6633 -1.2427
13690TIP3   OH262484   1.740   0.854   3.045  0.1709  0.4708  0.0819
13690TIP3    H162485   1.804   0.845   2.974 -0.3483  1.8511 -0.6071
13690TIP3    H262486   1.656   0.834   3.004  0.1275 -1.5295  1.0288
13691TIP3   OH262487   5.013   6.484  11.671  0.2120 -0.6905  0.3966
13691TIP3    H162488   4.966   6.519  11.595  0.1240 -0.2919  0.6301
13691TIP3    H262489   4.970   6.400  11.689 -1.0623  0.0758  1.1724
13692TIP3   OH262490   4.479   0.846   4.949 -0.3239 -0.2258 -0.1086
13692TIP3    H162491   4.541   0.819   4.881 -0.4113 -0.1576 -0.2150
13692TIP3    H262492   4.426   0.914   4.908 -0.7931 -0.6301 -0.1749
13693TIP3   OH262493   3.121   0.034   1.273  0.4042 -0.2703 -0.5871
13693TIP3    H162494   3.097  -0.057   1.290 -1.4253  0.3989  0.7452
13693TIP3    H262495   3.101   0.047   1.180  0.6912 -1.2081 -0.7932
13694TIP3   OH262496   1.270   3.292  16.403  0.2426  0.7160  0.0929
13694TIP3    H162497   1.288   3.345  16.325  2.2427  0.0483  0.0224
13694TIP3    H262498   1.175   3.281  16.404  0.2524 -1.0148 -3.4586
13695TIP3   OH262499   2.372   1.083   0.669  0.6411  0.0193  0.4009
13695TIP3    H162500   2.434   1.155   0.655 -0.2577  0.9929  1.3377
13695TIP3    H262501   2.417   1.025   0.731  0.6131  0.7294  1.0924
13696TIP3   OH262502   0.443   5.925  10.401  0.2821  0.0008 -0.2871
13696TIP3    H162503   0.404   6.008  10.426 -1.1937 -1.1316  1.4509
13696TIP3    H262504   0.524   5.948  10.356  0.1924  2.3398  0.6472
13697TIP3   OH262505   4.720   4.157  15.824  0.2095 -0.5378 -0.0847
13697TIP3    H162506   4.785   4.109  15.875  0.8354 -1.1483 -1.4059
13697TIP3    H262507   4.638   4.141  15.870  0.9635  0.3124  1.6582
13698TIP3   OH262508   6.045   0.689  13.261  0.2686  0.3178 -0.5624
13698TIP3    H162509   6.062   0.779  13.289  0.6974  0.2194 -0.4937
13698TIP3    H262510   6.045   0.639  13.343  1.7271 -0.0046 -0.7320
13699TIP3   OH262511   0.891   2.797   3.203  0.2940  0.0948 -0.4247
13699TIP3    H162512   0.949   2.837   3.268  0.9170 -1.2607 -0.1095
13699TIP3    H262513   0.951   2.768   3.133  0.0602 -1.4947 -0.0094
13700TIP3   OH262514   2.030   2.536  16.843  0.1780  0.4941 -0.5125
13700TIP3    H162515   2.032   2.475  16.769  1.8616  1.1861 -1.0884
13700TIP3    H262516   1.945   2.521  16.884 -0.1774 -0.9740 -1.6866
13701TIP3   OH262517   0.992   0.336   1.630  0.4360  0.5570  0.1352
13701TIP3    H162518   0.902   0.361   1.610  0.1964 -0.7565 -0.4963
13701TIP3    H262519   1.045   0.391   1.572 -0.0943 -0.6221 -1.5210
13702TIP3   OH262520   0.194   3.497   5.529 -0.3826  0.1676 -0.1411
13702TIP3    H162521   0.270   3.468   5.479  0.1099 -0.4582  0.9373
13702TIP3    H262522   0.123   3.438   5.501 -0.2831  0.2448 -0.5669
13703TIP3   OH262523   4.472   4.610   6.090 -0.4302 -0.2143  0.5545
13703TIP3    H162524   4.486   4.694   6.134 -0.9739  0.4616 -0.5427
13703TIP3    H262525   4.482   4.545   6.160  0.0354  0.7492  1.4106
13704TIP3   OH262526   4.974   6.022   0.653  0.4706  0.2170 -0.0700
13704TIP3    H162527   4.984   5.930   0.678 -4.0274 -0.1775  1.1288
13704TIP3    H262528   5.011   6.026   0.565  3.3613 -1.9490  0.8539
13705TIP3   OH262529   2.748   4.575   0.190 -0.4857 -0.0215  0.0809
13705TIP3    H162530   2.747   4.669   0.210 -1.1437 -0.1580  0.7714
13705TIP3    H262531   2.737   4.570   0.095 -0.5669  0.5991  0.0518
13706TIP3   OH262532   4.591   1.188  13.601  0.0972 -0.0345  0.2083
13706TIP3    H162533   4.646   1.133  13.545  0.0581  0.6105 -0.4775
13706TIP3    H262534   4.595   1.275  13.561 -1.9960 -0.1209 -0.2736
13707TIP3   OH262535   1.534   5.468  12.037  0.1287 -0.3315  0.1423
13707TIP3    H162536   1.595   5.513  11.979  0.8471 -0.2607  0.9380
13707TIP3    H262537   1.481   5.413  11.978 -0.1363  0.8120 -0.7415
13708TIP3   OH262538   6.141   3.197   2.326 -0.4435 -0.2913 -0.5584
13708TIP3    H162539   6.173   3.107   2.313 -0.1212 -0.1543 -0.7122
13708TIP3    H262540   6.139   3.234   2.239  2.3271  0.8415 -0.2214
13709TIP3   OH262541   3.722   5.637   1.122  0.1484 -0.3153  0.6162
13709TIP3    H162542   3.640   5.684   1.138 -0.3616 -0.8666 -0.2647
13709TIP3    H262543   3.712   5.601   1.033  1.5011 -0.0783  0.3512
13710TIP3   OH262544   3.976   0.961   6.103  0.8269  0.0992  0.4590
13710TIP3    H162545   3.997   0.879   6.147 -2.4852 -1.6082 -0.8273
13710TIP3    H262546   4.016   0.953   6.016  0.7052 -0.0265  0.4154
13711TIP3   OH262547   0.273   1.830  13.715  0.4863 -0.5204  0.1553
13711TIP3    H162548   0.328   1.803  13.642 -1.1063 -2.0249 -0.5596
13711TIP3    H262549   0.185   1.799  13.692 -0.4194  0.5818  1.8681
13712TIP3   OH262550   1.280   5.140  10.566  0.0726 -0.0119  0.6020
13712TIP3    H162551   1.219   5.134  10.640  1.3796 -1.5937  1.6139
13712TIP3    H262552   1.301   5.233  10.560  0.6023  0.0689  2.8097
13713TIP3   OH262553   5.654   1.635  15.171  0.0262  0.3117 -0.1602
13713TIP3    H162554   5.583   1.605  15.228  0.7543  1.3087  1.3273
13713TIP3    H262555   5.646   1.580  15.093  0.5251 -2.9383  1.8897
13714TIP3   OH262556   2.255   1.506  15.241 -0.1595  0.1937  0.3865
13714TIP3    H162557   2.223   1.563  15.311 -0.7050  0.6928 -0.2561
13714TIP3    H262558   2.279   1.425  15.285  0.4426  0.8420  1.2919
13715TIP3   OH262559   1.994   3.068  11.588  1.1201  0.2783  0.0385
13715TIP3    H162560   2.070   3.014  11.564 -1.1199 -4.0085  1.4188
13715TIP3    H262561   1.945   3.079  11.507  2.7640  2.6199 -0.7532
13716TIP3   OH262562   2.521   2.405   5.291  0.9429  0.6251  0.8381
13716TIP3    H162563   2.483   2.381   5.376  0.3049 -0.1409  0.3449
13716TIP3    H262564   2.476   2.487   5.268  1.6414  1.2330  1.5615
13717TIP3   OH262565   2.293   0.606  14.450 -0.0693 -0.3494  0.3802
13717TIP3    H162566   2.361   0.629  14.388  0.1551 -1.7260  0.0687
13717TIP3    H262567   2.258   0.523  14.418 -1.9830  0.3642  0.4736
13718TIP3   OH262568   5.004   5.586  16.316  0.1657 -0.0376  0.6366
13718TIP3    H162569   4.935   5.635  16.360 -0.1091 -0.2460  0.4410
13718TIP3    H262570   4.964   5.555  16.235  0.6493  0.2970  0.2596
13719TIP3   OH262571   6.059   4.123   4.436 -0.4585 -0.5155 -0.5022
13719TIP3    H162572   6.042   4.032   4.460 -2.6089 -0.6387 -2.1763
13719TIP3    H262573   6.009   4.175   4.499 -0.0718 -0.5191 -0.1880
13720TIP3   OH262574   6.176   0.309  14.221 -0.2789  0.0337 -0.1337
13720TIP3    H162575   6.106   0.354  14.268  0.6303 -0.1239  1.4564
13720TIP3    H262576   6.191   0.229  14.272  1.4631  0.3728 -0.0381
13721TIP3   OH262577   3.427   1.808   5.118  0.3509  0.0637  0.0807
13721TIP3    H162578   3.478   1.820   5.038  1.5072  1.1900  0.9362
13721TIP3    H262579   3.392   1.895   5.137 -3.0494 -0.8952 -1.1423
13722TIP3   OH262580   1.281   2.088   5.416  0.1431 -0.5561 -0.2395
13722TIP3    H162581   1.236   2.080   5.501 -0.4591 -0.2631 -0.5229
13722TIP3    H262582   1.288   1.999   5.384  0.9417 -0.7377  0.4006
13723TIP3   OH262583   5.807   1.961   2.971 -0.4359 -0.4732 -0.5648
13723TIP3    H162584   5.745   1.983   2.901 -0.0507  0.5833 -0.5887
13723TIP3    H262585   5.810   2.039   3.026 -1.0428 -1.4309  0.9007
13724TIP3   OH262586   4.429   2.618   0.535 -0.1785  0.0245  0.1947
13724TIP3    H162587   4.335   2.633   0.539 -0.2154 -0.3695  1.5848
13724TIP3    H262588   4.466   2.683   0.596  0.2270 -1.1710  1.2715
13725TIP3   OH262589   4.956   4.878  15.195 -0.0476 -0.1985  0.4483
13725TIP3    H162590   5.015   4.803  15.182 -1.3702 -0.8490 -2.5635
13725TIP3    H262591   4.918   4.863  15.282 -0.1385 -2.9703  0.0382
13726TIP3   OH262592   2.321   1.910   0.410  0.0494 -0.4525 -0.0032
13726TIP3    H162593   2.270   1.845   0.363 -0.0133  0.4271 -1.2086
13726TIP3    H262594   2.267   1.989   0.408  1.0152  0.2186 -0.4270
13727TIP3   OH262595   6.036   4.689  12.999  0.2862 -0.5456  0.2345
13727TIP3    H162596   6.080   4.757  13.051 -0.9470  0.8817 -0.5130
13727TIP3    H262597   6.031   4.614  13.057  0.4454  0.4622  1.5993
13728TIP3   OH262598   5.201   5.181  13.749  0.1503 -0.4148  0.2537
13728TIP3    H162599   5.204   5.276  13.764  2.4416 -0.1800 -1.1346
13728TIP3    H262600   5.165   5.173  13.660  2.4921 -0.6071 -0.7330
13729TIP3   OH262601   0.803   5.663   4.301 -0.1563 -0.2687  0.3196
13729TIP3    H162602   0.850   5.669   4.218 -0.2005  0.2445  0.3253
13729TIP3    H262603   0.840   5.586   4.345  1.3109  0.6213  0.7209
13730TIP3   OH262604   5.515   3.128  11.209  0.1247 -0.0945  0.0294
13730TIP3    H162605   5.426   3.142  11.241  0.2872  1.0860  0.0028
13730TIP3    H262606   5.505   3.115  11.115  0.0275  0.7890 -0.0964
13731TIP3   OH262607   1.585   6.284   4.217 -0.2689 -0.4870 -0.3168
13731TIP3    H162608   1.619   6.196   4.230 -0.5338 -0.6665 -0.7927
13731TIP3    H262609   1.605   6.304   4.125  0.9115  0.4497  0.1254
13732TIP3   OH262610   3.958   4.729  11.325  0.3478 -0.4848  0.5274
13732TIP3    H162611   3.988   4.781  11.249  0.6401 -0.0743  0.9152
13732TIP3    H262612   3.921   4.650  11.287 -0.4817  0.1826 -0.1059
13733TIP3   OH262613   5.119   3.557  13.675  0.2185 -0.4260 -0.1118
13733TIP3    H162614   5.052   3.537  13.609 -0.2097 -0.7605  0.4137
13733TIP3    H262615   5.154   3.472  13.699  0.5921 -0.2775 -0.1295
13734TIP3   OH262616   3.527   0.556   4.988 -0.4143 -0.0829  0.0438
13734TIP3    H162617   3.499   0.637   4.945 -0.5373 -0.5902 -0.8762
13734TIP3    H262618   3.491   0.562   5.076 -0.3664  0.8882  0.0090
13735TIP3   OH262619   4.747   6.228  15.945 -0.4630  0.2761 -0.1429
13735TIP3    H162620   4.831   6.244  15.903 -0.0747  1.1289  0.8936
13735TIP3    H262621   4.710   6.315  15.959 -0.7140  0.0055  0.9761
13736TIP3   OH262622   5.071   5.747   5.625 -0.0763 -0.0562  0.0908
13736TIP3    H162623   5.054   5.839   5.606  0.6324 -0.1018 -0.8267
13736TIP3    H262624   5.141   5.749   5.691 -0.1044  0.0616  0.1171
13737TIP3   OH262625   5.078   2.705   5.380 -0.0566 -0.5167 -0.0045
13737TIP3    H162626   5.053   2.797   5.371  1.6079 -0.2015 -2.6248
13737TIP3    H262627   5.004   2.656   5.345 -0.2390 -0.0458 -0.2908
13738TIP3   OH262628   0.072   1.019  12.931 -0.2670  0.0540 -0.1225
13738TIP3    H162629   0.066   0.953  13.000 -0.7429 -1.0676 -1.1986
13738TIP3    H262630   0.162   1.050  12.935 -0.0271 -0.6774  0.3862
13739TIP3   OH262631   1.181   3.316   1.584 -0.1814  0.0261  0.4433
13739TIP3    H162632   1.193   3.365   1.665  0.3117  0.3444  0.1776
13739TIP3    H262633   1.092   3.340   1.555  0.0743  0.8133  0.2846
13740TIP3   OH262634   1.897   0.749   4.710 -0.4093 -0.4168  0.6198
13740TIP3    H162635   1.896   0.815   4.641  0.4849 -1.4298 -0.4141
13740TIP3    H262636   1.901   0.666   4.663 -1.1903 -1.2017  1.8920
13741TIP3   OH262637   5.994   2.885  11.686 -0.1683  0.2090 -0.4725
13741TIP3    H162638   5.946   2.964  11.663  1.5759  0.9810 -1.6939
13741TIP3    H262639   6.065   2.881  11.622 -0.0885 -2.2565 -0.3239
13742TIP3   OH262640   5.097   1.104  14.980  0.2888 -0.1650  0.0481
13742TIP3    H162641   5.084   1.121  15.074 -0.7569  2.3029 -0.4823
13742TIP3    H262642   5.052   1.021  14.965 -2.0674  0.8083  1.2284
13743TIP3   OH262643   3.272   3.942   3.730  0.6330 -0.5061  0.0652
13743TIP3    H162644   3.286   3.853   3.699 -2.2590 -0.9492 -0.2122
13743TIP3    H262645   3.198   3.936   3.790 -0.7483  1.8899 -1.2353
13744TIP3   OH262646   3.404   1.308  11.227  0.4462 -0.6140 -0.0442
13744TIP3    H162647   3.495   1.292  11.203  0.4695 -0.8388  0.1970
13744TIP3    H262648   3.394   1.403  11.220  0.3478 -0.7019 -1.3374
13745TIP3   OH262649   3.555   4.437   0.799 -0.0686  0.2483  0.1417
13745TIP3    H162650   3.612   4.375   0.843 -0.5925  0.4084  1.0751
13745TIP3    H262651   3.599   4.522   0.808 -0.8139  0.5094  1.5753
13746TIP3   OH262652   5.531   1.251  14.757 -0.5597 -1.1745  0.6952
13746TIP3    H162653   5.471   1.232  14.685 -1.0946  0.7163  0.5872
13746TIP3    H262654   5.475   1.269  14.832 -0.1723  0.2810  0.6775
13747TIP3   OH262655   5.209   4.380  16.786 -0.4624  0.0417  0.3010
13747TIP3    H162656   5.223   4.383  16.692 -0.1583  1.0189  0.3691
13747TIP3    H262657   5.215   4.471  16.815 -2.0643 -0.0430  1.0509
13748TIP3   OH262658   6.300   6.505   4.560  0.2182 -0.4143 -0.3960
13748TIP3    H162659   6.254   6.426   4.587 -0.6414 -0.1963 -1.1661
13748TIP3    H262660   6.284   6.512   4.466 -0.2594  1.0001 -0.2411
13749TIP3   OH262661   2.080   2.579  14.072  0.3967  0.1739  0.3939
13749TIP3    H162662   2.022   2.513  14.034 -0.4367 -0.3476  2.4336
13749TIP3    H262663   2.141   2.601  14.001 -3.9443  2.9909 -3.0686
13750TIP3   OH262664   0.863   2.987  12.780 -0.0038 -0.8699  0.3998
13750TIP3    H162665   0.873   3.026  12.693  0.5991  1.5539  1.4613
13750TIP3    H262666   0.950   2.990  12.818 -0.4068 -1.1002  1.3860
13751TIP3   OH262667   4.030   5.053  10.740  0.3207  0.4001 -0.2877
13751TIP3    H162668   4.065   4.971  10.774  0.3477  0.6027  0.1767
13751TIP3    H262669   3.946   5.029  10.701  0.9191 -0.0709 -1.3241
13752TIP3   OH262670   1.109   4.081   4.552  0.0683 -0.6901 -0.2776
13752TIP3    H162671   1.057   4.162   4.559 -0.9673 -1.3501 -0.1088
13752TIP3    H262672   1.200   4.111   4.549 -0.3368  0.5415 -1.2552
13753TIP3   OH262673   0.514   0.448  11.660  0.0232  0.0706 -0.0270
13753TIP3    H162674   0.558   0.484  11.737  1.1972 -0.7798 -0.2761
13753TIP3    H262675   0.485   0.525  11.611  0.2811  0.6296  0.6809
13754TIP3   OH262676   2.030   1.274  16.152 -0.2126 -0.3489  0.1331
13754TIP3    H162677   2.079   1.252  16.232  1.0375  0.6977 -0.2937
13754TIP3    H262678   2.041   1.198  16.096  1.3735  0.0123 -0.1166
13755TIP3   OH262679   3.995   3.211   2.201  0.6813 -0.5195  0.0229
13755TIP3    H162680   3.961   3.282   2.255  1.8219 -0.4461  0.6655
13755TIP3    H262681   3.957   3.228   2.114  0.3095  0.4207  0.3476
13756TIP3   OH262682   2.177   4.427  11.322 -0.0724  0.1548  0.4157
13756TIP3    H162683   2.187   4.354  11.261  0.4701  0.2788  0.3496
13756TIP3    H262684   2.083   4.443  11.326 -0.2986 -1.2079  1.2055
13757TIP3   OH262685   6.738   2.954  16.453 -0.0560  0.0297  0.1677
13757TIP3    H162686   6.762   2.887  16.517 -2.4729 -1.3227 -0.2345
13757TIP3    H262687   6.669   3.004  16.495 -0.6433  0.0830 -0.8272
13758TIP3   OH262688   2.739   1.210  13.734 -0.4303  0.4263 -0.1134
13758TIP3    H162689   2.716   1.132  13.784  3.8325  0.2387  1.9830
13758TIP3    H262690   2.828   1.231  13.762 -0.9918  5.5561 -1.1982
13759TIP3   OH262691   4.074   1.964   5.439 -0.2767  0.3732  0.1612
13759TIP3    H162692   4.092   2.026   5.510 -1.0467  1.1583 -0.3138
13759TIP3    H262693   4.033   2.017   5.370  0.0769 -0.4481 -0.7128
13760TIP3   OH262694   3.511   3.011   2.765  0.1881  0.3978 -0.2585
13760TIP3    H162695   3.476   2.952   2.831  0.0416 -0.2959 -0.9445
13760TIP3    H262696   3.504   2.962   2.683  1.6220  0.7147 -0.5892
13761TIP3   OH262697   0.711   6.629  14.035 -0.3317  0.0256  0.5653
13761TIP3    H162698   0.759   6.551  14.062 -1.2914 -0.6899  0.2535
13761TIP3    H262699   0.625   6.619  14.076 -1.0239  0.0897 -0.8241
13762TIP3   OH262700   5.722   4.491   0.952 -0.5922 -0.2655 -0.2607
13762TIP3    H162701   5.690   4.558   0.893  1.6090 -0.2457 -1.5448
13762TIP3    H262702   5.764   4.540   1.023  0.9217 -0.2251 -1.1445
13763TIP3   OH262703   4.910   0.173  11.786 -0.0418 -0.4297 -0.2699
13763TIP3    H162704   4.823   0.153  11.821  0.2255 -0.4450  0.3987
13763TIP3    H262705   4.954   0.087  11.781 -0.0888 -0.4320 -0.6774
13764TIP3   OH262706   2.766   1.762   0.190  0.4262 -0.2345  0.1264
13764TIP3    H162707   2.840   1.706   0.166  0.7357  0.8797 -1.6977
13764TIP3    H262708   2.689   1.718   0.154  0.4917 -0.2229 -0.0271
13765TIP3   OH262709   1.682   2.540  11.259 -0.6395 -0.6471 -0.3112
13765TIP3    H162710   1.650   2.458  11.220 -0.7207 -0.4474 -0.6697
13765TIP3    H262711   1.733   2.581  11.189  2.2953 -1.9792  0.8866
13766TIP3   OH262712   2.234   2.432   1.726  0.2086  0.2025 -0.4904
13766TIP3    H162713   2.280   2.501   1.774  3.2653 -1.1382 -1.2390
13766TIP3    H262714   2.271   2.351   1.761  1.7346 -0.8617 -4.1081
13767TIP3   OH262715   0.209   4.177   4.731 -0.0286  0.2438 -0.3853
13767TIP3    H162716   0.297   4.163   4.695  0.1521 -0.5564  0.3266
13767TIP3    H262717   0.156   4.109   4.690 -0.0046 -0.1478  0.2291
13768TIP3   OH262718   3.201   5.289  16.995 -0.2377  0.0339  0.0487
13768TIP3    H162719   3.154   5.233  17.057 -2.2347  0.8884 -0.6077
13768TIP3    H262720   3.293   5.280  17.019 -0.7185 -1.6823  1.4431
13769TIP3   OH262721   3.437   3.018   1.418  0.0056  0.3893  0.7317
13769TIP3    H162722   3.493   3.046   1.490 -0.3844 -0.1524  1.2504
13769TIP3    H262723   3.376   3.091   1.404  0.3440  0.6633  0.6693
13770TIP3   OH262724   5.279   1.028   1.592  0.6008 -0.0817  0.0065
13770TIP3    H162725   5.200   0.991   1.552  1.6686 -1.7500 -0.6729
13770TIP3    H262726   5.271   1.122   1.579 -2.0094 -0.0198  1.3209
13771TIP3   OH262727   4.197   2.030  15.757 -0.6177  0.1545  0.1426
13771TIP3    H162728   4.248   2.089  15.814  0.8558  2.0495 -2.8490
13771TIP3    H262729   4.254   1.955  15.743  0.2431  0.9782 -0.9609
13772TIP3   OH262730   1.718   3.982   3.362 -0.2992 -0.7412  0.3197
13772TIP3    H162731   1.756   3.901   3.327 -0.9397 -0.6504 -0.6515
13772TIP3    H262732   1.637   3.993   3.311  0.7169  1.5279 -0.9357
13773TIP3   OH262733   5.164   0.073   5.162  0.3347 -0.2642  0.0449
13773TIP3    H162734   5.189  -0.018   5.147  0.7862 -0.5206  2.0557
13773TIP3    H262735   5.188   0.118   5.081 -1.0121 -2.1104 -1.4848
13774TIP3   OH262736   3.683   6.632   4.417 -0.4398 -0.5756  0.0973
13774TIP3    H162737   3.704   6.702   4.355 -0.2209 -0.9172 -0.2189
13774TIP3    H262738   3.738   6.559   4.390  1.0627 -0.1678  1.8296
13775TIP3   OH262739   5.291   5.128   4.602 -0.4992 -0.5900 -0.2559
13775TIP3    H162740   5.384   5.144   4.586 -0.0544 -1.8264  0.7964
13775TIP3    H262741   5.245   5.167   4.528  1.0286 -1.9329 -2.0023
13776TIP3   OH262742   1.164   2.363  12.412 -0.5625  0.0803 -0.2824
13776TIP3    H162743   1.187   2.271  12.397 -2.2230 -0.5848  0.9404
13776TIP3    H262744   1.248   2.407  12.425  0.2567 -1.2730 -0.7305
13777TIP3   OH262745   0.029   1.342  13.220  0.1215  0.1444  0.7110
13777TIP3    H162746  -0.001   1.426  13.254  1.9477  0.6282  1.2303
13777TIP3    H262747   0.046   1.358  13.127 -0.4756  0.0635  0.5824
13778TIP3   OH262748   2.659   1.520   2.208 -0.3844  0.0281  0.3160
13778TIP3    H162749   2.727   1.574   2.167  1.3460 -1.2334  1.4114
13778TIP3    H262750   2.622   1.577   2.277  0.7294  0.1675  0.8107
13779TIP3   OH262751   5.530   4.161   2.708  0.8437  0.5860  0.0343
13779TIP3    H162752   5.493   4.171   2.795 -0.7960  1.1710 -0.6857
13779TIP3    H262753   5.625   4.163   2.721  0.6219  0.8818  1.7571
13780TIP3   OH262754   1.303   2.320   3.969  0.4439 -0.2154  0.2416
13780TIP3    H162755   1.251   2.301   3.892 -0.0335 -0.1530  0.5462
13780TIP3    H262756   1.271   2.259   4.036 -0.7417  1.2697  1.0771
13781TIP3   OH262757   0.557   3.024   6.673 -0.4193  0.0851 -0.2820
13781TIP3    H162758   0.482   3.062   6.627 -0.3558 -0.3479 -0.7536
13781TIP3    H262759   0.524   2.940   6.706  0.2640 -0.8361 -1.8053
13782TIP3   OH262760   5.168   1.645   0.852  0.8403 -0.1626 -0.0614
13782TIP3    H162761   5.098   1.592   0.890  0.9602 -0.3671 -0.1201
13782TIP3    H262762   5.148   1.734   0.878  0.8880 -0.2943  0.4350
13783TIP3   OH262763   2.188   3.584  13.931 -0.1804 -0.1631  0.0754
13783TIP3    H162764   2.193   3.555  14.022 -0.4151  1.3454  0.5929
13783TIP3    H262765   2.218   3.675  13.933  0.9684 -0.4511 -1.5505
13784TIP3   OH262766   4.577   2.184  15.545  0.5800  0.5311 -0.2297
13784TIP3    H162767   4.529   2.121  15.492 -0.0582 -0.2779  1.2272
13784TIP3    H262768   4.512   2.249  15.571  0.5139  0.0839  0.7777
13785TIP3   OH262769   3.292   5.675  16.471 -0.2039 -0.6649  0.9974
13785TIP3    H162770   3.346   5.753  16.485  0.3864 -1.0332  0.8166
13785TIP3    H262771   3.211   5.692  16.519 -1.5519  1.5635 -1.7510
13786TIP3   OH262772   5.798   3.330   3.742  0.3766  0.4812  0.1448
13786TIP3    H162773   5.732   3.372   3.798  0.0344  0.2570 -0.0855
13786TIP3    H262774   5.765   3.241   3.730  1.3647 -0.0235  1.0546
13787TIP3   OH262775   0.470   6.293  15.104 -0.3959 -0.1709 -0.4352
13787TIP3    H162776   0.490   6.349  15.179 -1.1074 -1.0905  0.4647
13787TIP3    H262777   0.433   6.352  15.039 -2.7689  0.2007  1.1350
13788TIP3   OH262778   1.245   6.710   5.626 -0.7990 -0.0377 -0.2826
13788TIP3    H162779   1.336   6.741   5.629 -0.8550  0.5076 -2.3743
13788TIP3    H262780   1.246   6.626   5.671  0.5188  0.4437  0.6488
13789TIP3   OH262781   5.752   3.646   0.440 -0.0096  0.0405 -0.2385
13789TIP3    H162782   5.710   3.728   0.416  0.3569  0.7126  1.2727
13789TIP3    H262783   5.681   3.589   0.467 -0.3196 -0.3645 -1.7895
13790TIP3   OH262784   0.354   5.694   4.303 -0.4194 -0.5740  0.8853
13790TIP3    H162785   0.413   5.621   4.289  0.9049  0.5694  0.3516
13790TIP3    H262786   0.334   5.727   4.216 -1.0275 -0.3043  1.1176
13791TIP3   OH262787   3.759   2.919   0.010 -0.1109  0.3408  0.2851
13791TIP3    H162788   3.780   2.835  -0.030 -0.6539  0.9169 -1.3017
13791TIP3    H262789   3.759   2.902   0.104  0.1012 -1.3421  0.0115
13792TIP3   OH262790   5.171   1.030  16.633 -0.5453 -0.2242 -0.3986
13792TIP3    H162791   5.125   0.963  16.684 -1.4206  0.0842 -0.7697
13792TIP3    H262792   5.107   1.059  16.568 -0.2396  1.0828 -0.1448
13793TIP3   OH262793   3.866   1.516  16.572 -0.3052 -0.2221 -0.2979
13793TIP3    H162794   3.811   1.515  16.493  0.5927 -0.5898 -0.9400
13793TIP3    H262795   3.911   1.431  16.570 -0.6822 -0.4639  0.9105
13794TIP3   OH262796   5.619   6.439  13.763 -0.1449 -0.1963 -0.4634
13794TIP3    H162797   5.690   6.498  13.789  0.1076 -0.8206  0.3163
13794TIP3    H262798   5.659   6.380  13.698 -0.3207  0.2993 -1.0286
13795TIP3   OH262799   3.766   3.434  10.859  1.2141 -0.5710  0.6371
13795TIP3    H162800   3.764   3.391  10.944  1.9602  0.5072  1.2110
13795TIP3    H262801   3.683   3.482  10.854  1.9189  0.7780  1.5200
13796TIP3   OH262802   6.198   0.214   4.199  0.0526 -1.0138  0.5679
13796TIP3    H162803   6.270   0.152   4.212  0.7417 -0.1592  0.9088
13796TIP3    H262804   6.161   0.226   4.286  1.5399  0.9597  0.9890
13797TIP3   OH262805   5.875   6.572  14.814  0.2376  0.4438  0.2656
13797TIP3    H162806   5.935   6.634  14.772  1.4783 -1.5575 -1.0930
13797TIP3    H262807   5.897   6.577  14.907  1.6096  0.7642 -0.0451
13798TIP3   OH262808   2.211   5.700   3.269  0.3278 -0.3761 -0.0321
13798TIP3    H162809   2.206   5.604   3.276 -0.7999 -0.4320 -1.1635
13798TIP3    H262810   2.121   5.729   3.285  0.9123  0.6106  1.5864
13799TIP3   OH262811   0.639   2.132   0.254  0.2014 -0.8394  0.0307
13799TIP3    H162812   0.618   2.208   0.310  0.7678  0.0404 -0.9130
13799TIP3    H262813   0.558   2.115   0.206  0.5118  0.1905 -0.9018
13800TIP3   OH262814   3.788   4.714   2.199  0.1806 -0.1320 -0.1352
13800TIP3    H162815   3.804   4.777   2.270  1.5334 -0.1415 -0.4128
13800TIP3    H262816   3.702   4.676   2.220  0.3282  0.2353  1.2131
13801TIP3   OH262817   0.407   0.308   0.791 -0.6428 -0.1468  0.0483
13801TIP3    H162818   0.459   0.246   0.742 -0.3349 -0.1203  0.3370
13801TIP3    H262819   0.470   0.371   0.825 -1.0896  1.1779 -1.4505
13802TIP3   OH262820   1.738   1.667   1.920  0.1769 -1.1978  0.0396
13802TIP3    H162821   1.815   1.712   1.955 -0.8615 -0.1409  1.0534
13802TIP3    H262822   1.774   1.594   1.870  1.8536 -0.3931  0.0002
13803TIP3   OH262823   6.191   2.645  13.932 -0.0150 -0.6113 -0.6013
13803TIP3    H162824   6.151   2.582  13.871 -0.1651 -0.6550 -0.4581
13803TIP3    H262825   6.188   2.601  14.017  1.0306 -0.9299 -0.7131
13804TIP3   OH262826   2.425   1.267   5.842 -0.2390 -0.1560  0.3634
13804TIP3    H162827   2.377   1.349   5.832 -1.4556 -1.0408 -2.1887
13804TIP3    H262828   2.492   1.270   5.774  1.5384 -0.1649  2.0412
13805TIP3   OH262829   1.346   5.408   0.414 -0.1950 -0.0603  0.1678
13805TIP3    H162830   1.285   5.336   0.397  0.5430 -0.1583 -2.4412
13805TIP3    H262831   1.371   5.396   0.506 -2.3512 -1.3336  0.6619
13806TIP3   OH262832   0.497   5.464  12.608 -0.0658  0.1467 -0.3056
13806TIP3    H162833   0.526   5.552  12.583  0.0578  0.6412  1.4459
13806TIP3    H262834   0.433   5.479  12.677  0.2345 -1.1447  0.2855
13807TIP3   OH262835   5.268   2.188   1.980  0.0185 -0.4952 -0.6451
13807TIP3    H162836   5.290   2.271   2.021  2.8220 -1.5534  0.2532
13807TIP3    H262837   5.180   2.168   2.012  1.0114  0.0138  2.9329
13808TIP3   OH262838   5.822   3.384  15.956 -0.4888  0.0634  0.1512
13808TIP3    H162839   5.827   3.386  15.861  2.5981  3.5550  0.1920
13808TIP3    H262840   5.885   3.317  15.982 -1.0136 -0.5786 -0.1719
13809TIP3   OH262841   6.782   5.647  16.620 -0.5429 -0.0622  0.3676
13809TIP3    H162842   6.846   5.707  16.583 -0.7870 -0.1660 -0.2377
13809TIP3    H262843   6.810   5.560  16.591 -1.1397 -0.0785 -0.2003
13810TIP3   OH262844   1.282   1.998   2.360  0.1124  0.2657  0.0206
13810TIP3    H162845   1.350   2.056   2.326  0.4639  0.5385  1.1651
13810TIP3    H262846   1.254   2.038   2.442  0.0923 -0.9689  0.6386
13811TIP3   OH262847   1.002   1.332  11.791 -0.5545  0.2236  0.2449
13811TIP3    H162848   1.009   1.349  11.885  0.6986 -2.4313  0.7211
13811TIP3    H262849   1.051   1.403  11.750  2.6116 -0.8038  1.9280
13812TIP3   OH262850   6.022   1.806  15.622 -0.3550  0.0081  0.2393
13812TIP3    H162851   6.006   1.716  15.653  2.5846  0.0702  2.3556
13812TIP3    H262852   6.072   1.796  15.542 -0.4588 -0.2252  0.2036
13813TIP3   OH262853   6.067   5.983  14.649  0.0394 -0.4549  0.0905
13813TIP3    H162854   6.080   6.069  14.690  0.4740 -0.6531  0.3788
13813TIP3    H262855   5.980   5.989  14.609 -0.1695 -0.0690  0.5785
13814TIP3   OH262856   4.292   1.016   5.907  0.0424 -0.0572 -0.0177
13814TIP3    H162857   4.260   1.018   5.817 -1.1425  1.6816  0.3910
13814TIP3    H262858   4.382   1.049   5.900 -0.2574  0.7040 -0.5113
13815TIP3   OH262859   2.761   5.047   2.382  0.2043 -0.4510 -0.6582
13815TIP3    H162860   2.685   5.099   2.407  0.5734  0.2304 -0.9258
13815TIP3    H262861   2.798   5.093   2.306  2.2162  0.5349  0.8363
13816TIP3   OH262862   2.225   5.032   2.551 -0.1999 -0.1028 -0.1074
13816TIP3    H162863   2.151   4.972   2.548  0.6005 -1.0767 -1.9868
13816TIP3    H262864   2.300   4.979   2.523  0.5840  1.6960 -1.6008
13817TIP3   OH262865   3.472   2.885  14.792 -0.3832 -0.0832 -0.2886
13817TIP3    H162866   3.402   2.838  14.837  1.1384 -1.2231  1.0343
13817TIP3    H262867   3.511   2.820  14.734  1.4267 -0.3953  1.1874
13818TIP3   OH262868   6.211   3.955  12.739 -0.3517  0.3863  0.1309
13818TIP3    H162869   6.251   3.945  12.652 -1.7325 -1.2913 -0.3676
13818TIP3    H262870   6.281   3.934  12.800  0.3212  0.3971 -0.6164
13819TIP3   OH262871   0.119   6.090  14.980 -0.3152 -0.1357 -0.7694
13819TIP3    H162872   0.057   6.130  15.040  0.5398  0.4920 -0.2698
13819TIP3    H262873   0.104   5.996  14.987 -0.8041 -0.0195 -0.2297
13820TIP3   OH262874   6.251   3.448  17.234  0.1263 -0.1444 -0.0489
13820TIP3    H162875   6.255   3.498  17.153  2.1145 -0.3997 -0.1487
13820TIP3    H262876   6.160   3.418  17.239 -0.8434  2.4377 -0.5789
13821TIP3   OH262877   1.543   5.205  14.759 -0.5336 -0.3639  0.1666
13821TIP3    H162878   1.491   5.221  14.838 -1.7369  1.6792 -0.9725
13821TIP3    H262879   1.578   5.291  14.735 -0.1697 -0.9558 -1.5229
13822TIP3   OH262880   3.860   2.298   4.220  0.2331  0.3270  0.1991
13822TIP3    H162881   3.855   2.320   4.127  0.7801 -1.2449 -0.2382
13822TIP3    H262882   3.783   2.243   4.235  0.5914 -0.1103  0.4595
13823TIP3   OH262883   5.355   1.688  11.978  0.4644 -0.6934  0.0471
13823TIP3    H162884   5.451   1.686  11.984  0.5487 -0.2571 -1.0675
13823TIP3    H262885   5.333   1.613  11.924  0.1289 -1.0619  0.6793
13824TIP3   OH262886   2.228   1.986  16.424  0.3098 -0.1548  0.5598
13824TIP3    H162887   2.239   2.070  16.467  1.4488 -0.1506  0.2912
13824TIP3    H262888   2.258   1.921  16.488  2.1458 -0.1389 -0.2085
13825TIP3   OH262889   1.520   1.506   0.039 -0.2850  0.5247 -0.6748
13825TIP3    H162890   1.532   1.416   0.070  0.8894 -0.6232 -4.0422
13825TIP3    H262891   1.596   1.553   0.072 -0.3320  0.0291  0.1761
13826TIP3   OH262892   6.630   1.880   6.348  0.4134 -0.1387  0.1773
13826TIP3    H162893   6.573   1.926   6.409  1.7214  1.0943  0.5495
13826TIP3    H262894   6.668   1.809   6.400  0.3496 -0.0336  0.3715
13827TIP3   OH262895   4.126   4.006   3.412 -0.0389 -0.2714  0.1074
13827TIP3    H162896   4.044   4.054   3.397  0.1934 -0.0309 -0.4118
13827TIP3    H262897   4.102   3.914   3.406 -0.5954 -0.2592  1.6218
13828TIP3   OH262898   2.541   5.339  11.638  0.4127  0.2402  0.2928
13828TIP3    H162899   2.550   5.433  11.623  1.5457  0.1545  0.3537
13828TIP3    H262900   2.617   5.317  11.691 -0.6702 -0.4286  1.6376
13829TIP3   OH262901   0.147   5.440  13.111 -0.5491 -0.0613  0.1880
13829TIP3    H162902   0.071   5.392  13.146 -1.3813  0.9493 -0.1901
13829TIP3    H262903   0.181   5.489  13.186 -0.7948  0.1466  0.1641
13830TIP3   OH262904   1.583   4.202   4.305  0.4644  0.3155  0.0397
13830TIP3    H162905   1.496   4.221   4.270  0.8109  2.4802  0.2148
13830TIP3    H262906   1.639   4.200   4.228  0.4749  0.2762  0.0484
13831TIP3   OH262907   3.353   6.050  11.195 -0.1239 -0.0395  0.3964
13831TIP3    H162908   3.384   5.960  11.186  1.4480  0.6856 -4.8551
13831TIP3    H262909   3.268   6.042  11.237  0.1504 -3.9271  0.5354
13832TIP3   OH262910   6.578   3.791  16.257  0.5947 -0.4976  0.4438
13832TIP3    H162911   6.582   3.696  16.263 -2.4052 -0.6288  2.4972
13832TIP3    H262912   6.547   3.808  16.168  1.1059 -1.4318  0.0764
13833TIP3   OH262913   3.571   2.220  12.715 -0.1006 -0.4961  0.2539
13833TIP3    H162914   3.633   2.149  12.700 -0.3692 -0.4321 -1.3059
13833TIP3    H262915   3.626   2.297  12.728  0.1982 -0.9809  2.1505
13834TIP3   OH262916   6.116   0.174  15.719  0.3846 -0.1185  0.1813
13834TIP3    H162917   6.062   0.209  15.648  0.8232  3.2959  1.3546
13834TIP3    H262918   6.053   0.154  15.789  0.3224  0.6392  0.3480
13835TIP3   OH262919   3.871   0.988  13.628 -0.5094  0.1697 -0.6415
13835TIP3    H162920   3.940   0.941  13.581 -0.4252 -0.2601 -0.0925
13835TIP3    H262921   3.918   1.049  13.684 -0.6332  1.8652 -2.2904
13836TIP3   OH262922   5.152   2.995  15.207 -0.0905 -0.2686  0.3841
13836TIP3    H162923   5.066   2.954  15.208  0.4015 -1.3474  0.7428
13836TIP3    H262924   5.213   2.923  15.227  0.9690  0.2626 -0.7424
13837TIP3   OH262925   5.916   4.140   0.787 -0.0437  0.7647  0.3560
13837TIP3    H162926   5.983   4.074   0.807  0.7784  1.7362  0.8719
13837TIP3    H262927   5.907   4.190   0.868  1.4842  3.1590 -0.8380
13838TIP3   OH262928   1.865   1.722  17.061 -0.3594  0.1661 -0.8629
13838TIP3    H162929   1.951   1.683  17.047 -0.5239 -0.2818 -0.6477
13838TIP3    H262930   1.832   1.680  17.140 -1.0681 -0.1758 -1.3319
13839TIP3   OH262931   1.081   6.163  13.253  0.0271  0.2159 -0.1642
13839TIP3    H162932   1.008   6.168  13.192  1.9703 -1.1268 -2.8154
13839TIP3    H262933   1.158   6.183  13.200  1.8639 -0.9727  1.8652
13840TIP3   OH262934   4.934   2.415   1.717 -0.3792  0.3179  0.2092
13840TIP3    H162935   4.970   2.345   1.662 -1.4548 -0.5577  0.5744
13840TIP3    H262936   4.958   2.496   1.673  1.7006 -0.2200  0.2453
13841TIP3   OH262937   1.671   5.685   0.852 -0.5617 -0.4053  0.1135
13841TIP3    H162938   1.743   5.633   0.815 -0.4037 -0.1846  0.1086
13841TIP3    H262939   1.596   5.664   0.798 -0.1572  0.5154 -0.8388
13842TIP3   OH262940   2.286   1.240  15.242  0.3278 -0.1282  0.5536
13842TIP3    H162941   2.236   1.158  15.234 -0.5752  0.3303  1.3143
13842TIP3    H262942   2.344   1.225  15.317  0.5291 -0.2535  0.3733
13843TIP3   OH262943   4.711   0.644  13.071  0.6342 -0.5184  0.4441
13843TIP3    H162944   4.762   0.724  13.055  0.7720 -0.2347  2.1039
13843TIP3    H262945   4.773   0.573  13.054  0.7983 -0.2528 -0.1045
13844TIP3   OH262946   2.322   5.311  13.770  0.4801 -0.5330  0.1571
13844TIP3    H162947   2.337   5.216  13.771  1.3576 -0.4231 -1.2619
13844TIP3    H262948   2.296   5.331  13.681 -0.4460  0.4822  0.6272
13845TIP3   OH262949   5.839   3.883   4.380 -0.1432 -0.0062 -0.2235
13845TIP3    H162950   5.871   3.891   4.290 -0.8845 -1.8916 -0.7144
13845TIP3    H262951   5.800   3.795   4.384 -1.0726  0.4319  1.6506
13846TIP3   OH262952   3.386   1.476  11.616 -0.2176  0.3300 -0.5926
13846TIP3    H162953   3.463   1.495  11.563 -0.1742 -2.2445 -1.6133
13846TIP3    H262954   3.314   1.518  11.569  0.1619  0.1703 -1.3335
13847TIP3   OH262955   3.146   6.401   0.047 -0.2676 -0.1775 -0.0693
13847TIP3    H162956   3.158   6.473   0.109  0.5887 -1.3985  1.2142
13847TIP3    H262957   3.051   6.388   0.043 -0.3795  0.4999  0.2682
13848TIP3   OH262958   1.133   1.313  14.387  1.0809  0.0475 -0.4676
13848TIP3    H162959   1.071   1.308  14.460 -0.3945 -1.5154 -1.7517
13848TIP3    H262960   1.187   1.234  14.397 -0.1303 -1.0245 -1.8414
13849TIP3   OH262961   6.079   5.154   3.601 -0.1643 -0.2917 -0.2099
13849TIP3    H162962   6.044   5.240   3.578  1.4835  0.9466  1.5660
13849TIP3    H262963   6.008   5.113   3.650 -0.4971  0.6298  0.1107
13850TIP3   OH262964   6.540   2.565   3.634  0.1914 -0.1177 -0.4292
13850TIP3    H162965   6.468   2.627   3.646 -0.0740 -0.7205  1.4045
13850TIP3    H262966   6.606   2.613   3.584  0.1175  1.7781  1.1763
13851TIP3   OH262967   2.133   4.043  15.821  0.4116 -0.4224 -0.6375
13851TIP3    H162968   2.195   4.021  15.751  0.2357 -0.0889 -0.9038
13851TIP3    H262969   2.087   3.961  15.838  1.6889 -0.9673  0.3584
13852TIP3   OH262970   5.751   1.616   1.236  0.0996  0.2274  0.5636
13852TIP3    H162971   5.658   1.606   1.214  0.5324 -2.6827 -0.3766
13852TIP3    H262972   5.753   1.617   1.331 -0.9328  0.9533  0.5955
13853TIP3   OH262973   0.223   0.131   1.415 -0.3085 -0.1866  1.0049
13853TIP3    H162974   0.236   0.222   1.441 -3.4156  1.0511 -1.1831
13853TIP3    H262975   0.163   0.096   1.482  0.2875 -0.4389  1.4211
13854TIP3   OH262976   4.497   2.966   2.759 -0.4901  0.0411 -0.1927
13854TIP3    H162977   4.433   2.991   2.693 -0.2885 -1.7771 -1.1724
13854TIP3    H262978   4.477   2.874   2.778  0.6012  0.0034  0.9253
13855TIP3   OH262979   6.741   0.715  13.094  0.3800 -0.0858  0.2204
13855TIP3    H162980   6.672   0.779  13.078 -0.7411 -1.3246 -0.0692
13855TIP3    H262981   6.813   0.767  13.130  0.1166  1.5928 -1.4579
13856TIP3   OH262982   2.040   6.368  11.591 -0.2580 -0.3353  0.4147
13856TIP3    H162983   2.005   6.283  11.617  0.7128 -0.9754 -0.2621
13856TIP3    H262984   2.066   6.356  11.499  0.6533  0.4294  0.5507
13857TIP3   OH262985   5.970   6.686  17.054  0.6441  0.0410 -0.1070
13857TIP3    H162986   5.948   6.680  16.961  2.3250  1.1610 -0.6098
13857TIP3    H262987   5.890   6.658  17.099  0.0249 -1.1997 -1.8739
13858TIP3   OH262988   3.678   5.638  14.362 -0.4888 -0.1489 -0.8217
13858TIP3    H162989   3.641   5.723  14.337 -1.7199 -0.0068  1.2566
13858TIP3    H262990   3.642   5.576  14.299  0.0950  0.7920 -2.1149
13859TIP3   OH262991   1.634   5.006  16.464 -0.4293  0.3650  0.2937
13859TIP3    H162992   1.614   4.915  16.484  1.2370 -0.0234  0.3444
13859TIP3    H262993   1.727   5.016  16.486 -0.6425  2.1626  0.5982
13860TIP3   OH262994   0.235   4.689   4.464  0.1810 -0.0938  0.1149
13860TIP3    H162995   0.186   4.765   4.495  2.1623  1.5138 -0.5002
13860TIP3    H262996   0.169   4.621   4.453 -1.5795  1.3494  1.2279
13861TIP3   OH262997   1.097   4.778   2.563 -0.4119 -0.2186  0.4929
13861TIP3    H162998   1.051   4.861   2.550 -0.9835 -0.4900  0.7543
13861TIP3    H262999   1.041   4.729   2.623 -1.3865 -1.8145 -1.5973
13862TIP3   OH263000   2.067   5.344  16.295  0.8473  0.3192  0.1920
13862TIP3    H163001   2.137   5.375  16.237  1.5103 -0.4066  0.5829
13862TIP3    H263002   2.098   5.259  16.326  0.3458  0.5399  1.3412
13863TIP3   OH263003   0.274   5.430  11.466  0.4693 -0.0436  0.4343
13863TIP3    H163004   0.215   5.488  11.418 -0.3759 -0.4311  0.9871
13863TIP3    H263005   0.280   5.468  11.554  3.1397  1.4824 -0.2736
13864TIP3   OH263006   0.977   2.637   5.175 -0.2803 -0.1654 -0.2386
13864TIP3    H163007   0.892   2.613   5.136  0.1644  0.9298 -2.0150
13864TIP3    H263008   1.040   2.621   5.105  1.1224 -1.5950  1.2675
13865TIP3   OH263009   4.575   3.985  11.254  0.2647 -0.6858 -0.6379
13865TIP3    H163010   4.613   4.022  11.175  1.5533  2.2561  1.1888
13865TIP3    H263011   4.647   3.940  11.298  0.1117 -0.4472 -0.1268
13866TIP3   OH263012   5.106   5.270   4.414  0.0096 -0.4396 -0.4700
13866TIP3    H163013   5.158   5.340   4.455  0.6578 -1.5789  0.7243
13866TIP3    H263014   5.022   5.275   4.459  0.3975 -1.0610  0.3549
13867TIP3   OH263015   1.263   6.371  14.438  0.5089  0.0191 -0.4267
13867TIP3    H163016   1.300   6.454  14.408 -1.7455  1.5771  0.8302
13867TIP3    H263017   1.215   6.337  14.362  0.7767  0.2628 -0.7052
13868TIP3   OH263018   6.395   3.104  17.265  0.6721  0.0891 -0.0644
13868TIP3    H163019   6.441   3.183  17.293 -0.5996  2.3731 -3.6343
13868TIP3    H263020   6.304   3.120  17.289  0.4286 -0.3761 -0.6605
13869TIP3   OH263021   6.202   0.142  14.460 -0.5830  0.2703  0.2509
13869TIP3    H163022   6.124   0.111  14.507  0.0546 -0.3613  0.9195
13869TIP3    H263023   6.249   0.062  14.436 -1.1861  0.5188 -2.0550
13870TIP3   OH263024   3.945   4.055   4.587  0.7067 -0.0445 -0.4124
13870TIP3    H163025   3.899   4.137   4.571 -0.5620 -0.5156  0.6280
13870TIP3    H263026   3.885   4.004   4.642  0.8648 -2.2368 -2.1423
13871TIP3   OH263027   5.851   0.350   4.221 -0.1009  0.5321  0.6508
13871TIP3    H163028   5.934   0.306   4.237 -0.5789 -1.1306 -1.0581
13871TIP3    H263029   5.792   0.314   4.288 -0.2910 -0.9469 -0.2648
13872TIP3   OH263030   3.991   3.647   5.435  0.8528 -0.1069  0.2021
13872TIP3    H163031   4.077   3.647   5.477  1.6003  1.5119 -1.2019
13872TIP3    H263032   4.004   3.597   5.355  0.0753 -1.1105  0.6866
13873TIP3   OH263033   6.477   6.337  16.896 -0.1321  0.6146 -0.6659
13873TIP3    H163034   6.563   6.372  16.919 -0.1228  1.9914 -2.5556
13873TIP3    H263035   6.449   6.390  16.822 -2.0768 -0.6269 -0.8844
13874TIP3   OH263036   2.806   2.015  16.757 -0.0727  0.0861 -0.2341
13874TIP3    H163037   2.805   1.919  16.760  1.5356  0.0512  0.2563
13874TIP3    H263038   2.804   2.041  16.849 -0.0726  0.5147 -0.3552
13875TIP3   OH263039   4.091   3.623   2.911 -0.2772  0.0104  0.1858
13875TIP3    H163040   4.050   3.705   2.881  1.5140  0.9019  0.0470
13875TIP3    H263041   4.148   3.650   2.983  0.6875 -1.0541 -0.1549
13876TIP3   OH263042   4.225   6.178   3.887 -0.3283  0.3093 -0.5768
13876TIP3    H163043   4.199   6.245   3.950 -0.2451  0.6077 -0.8543
13876TIP3    H263044   4.175   6.200   3.808 -0.9564 -0.4624 -0.4096
13877TIP3   OH263045   1.740   3.596   4.286 -0.5498 -0.4401  0.0908
13877TIP3    H163046   1.753   3.509   4.324  0.7877 -0.1005  0.4769
13877TIP3    H263047   1.738   3.580   4.191  2.2409 -0.6912 -0.0250
13878TIP3   OH263048   4.704   3.278   3.161  0.5871 -0.3237 -0.9002
13878TIP3    H163049   4.634   3.217   3.183  0.6592 -1.1285 -2.7300
13878TIP3    H263050   4.727   3.319   3.244 -0.3407 -1.8673  0.1713
13879TIP3   OH263051   6.564   3.739  11.940 -0.1590 -0.5643  0.2163
13879TIP3    H163052   6.514   3.673  11.891 -1.1583  1.7488 -2.0882
13879TIP3    H263053   6.650   3.741  11.897 -0.4735  0.3130 -0.3866
13880TIP3   OH263054   1.132   1.809   1.677 -0.1161 -0.1002 -0.1371
13880TIP3    H163055   1.045   1.800   1.716  0.1847  0.4191  0.6875
13880TIP3    H263056   1.182   1.736   1.713 -0.3668 -0.7555 -1.0865
13881TIP3   OH263057   0.875   1.057  16.840  0.0833  0.2802 -0.2080
13881TIP3    H163058   0.783   1.049  16.811 -0.8711  2.9631  1.7163
13881TIP3    H263059   0.869   1.069  16.935  2.4439  0.6912 -0.0713
13882TIP3   OH263060   5.820   3.595  16.937 -0.5607  0.1928  0.6089
13882TIP3    H163061   5.843   3.508  16.903  0.3806  0.5259  0.3614
13882TIP3    H263062   5.830   3.587  17.032  0.1126  0.1843  0.5447
13883TIP3   OH263063   0.190   6.781  17.033  0.1704  0.1763  0.3709
13883TIP3    H163064   0.255   6.726  16.989  2.5021  2.7077  0.3565
13883TIP3    H263065   0.195   6.756  17.125 -1.8799 -2.4053 -0.0938
13884TIP3   OH263066   0.716   1.646  14.936 -0.7424 -0.8217  0.3987
13884TIP3    H163067   0.640   1.605  14.978 -0.8506  0.2424  1.2782
13884TIP3    H263068   0.778   1.661  15.008  0.5413 -2.1217 -0.3708
13885TIP3   OH263069   3.508   3.509   2.524 -0.3590 -0.1611  0.3970
13885TIP3    H163070   3.501   3.504   2.620 -1.3150 -0.5078  0.3129
13885TIP3    H263071   3.526   3.601   2.506  1.1348 -0.3046  0.9774
13886TIP3   OH263072   6.501   5.480  14.705 -0.6559  0.0219  0.3427
13886TIP3    H163073   6.463   5.415  14.763 -0.9363 -0.1215  0.0065
13886TIP3    H263074   6.467   5.564  14.737 -2.3244 -0.1852 -0.6969
13887TIP3   OH263075   6.385   4.550   0.624  0.3366  0.0493 -0.0481
13887TIP3    H163076   6.410   4.560   0.532 -1.5760 -1.5058 -0.8249
13887TIP3    H263077   6.293   4.524   0.620 -0.3819  1.8662  2.4182
13888TIP3   OH263078   4.233   1.376  15.409 -0.7368  0.1056  0.1166
13888TIP3    H163079   4.267   1.451  15.457 -1.6098  0.6787 -0.1298
13888TIP3    H263080   4.138   1.388  15.410 -0.8963 -1.0269  0.1180
13889TIP3   OH263081   5.335   4.521  12.949 -0.0556 -0.2434  0.3908
13889TIP3    H163082   5.295   4.450  13.000 -1.7398  0.2059 -0.2373
13889TIP3    H263083   5.335   4.488  12.859  0.2154  0.1199  0.2552
13890TIP3   OH263084   6.217   2.185  12.588 -0.5982 -0.1764 -0.4593
13890TIP3    H163085   6.139   2.147  12.629  0.2542 -1.3735  0.1406
13890TIP3    H263086   6.287   2.169  12.652  0.1966  0.6333 -1.0999
13891TIP3   OH263087   0.841   5.667  13.121  0.1153  0.2416 -0.5353
13891TIP3    H163088   0.805   5.669  13.032 -0.1582  1.1771 -0.4183
13891TIP3    H263089   0.779   5.613  13.171  0.1771 -0.1411 -0.8653
13892TIP3   OH263090   3.301   4.640  15.934 -1.1157  0.1115  0.6955
13892TIP3    H163091   3.315   4.623  15.841  2.0177  0.0713  1.0834
13892TIP3    H263092   3.294   4.553  15.973 -1.0255  0.0935  0.6719
13893TIP3   OH263093   2.490   6.583  10.886  0.1365 -0.1926  0.0691
13893TIP3    H163094   2.510   6.593  10.979  0.4899 -0.2483 -0.0012
13893TIP3    H263095   2.573   6.596  10.841  0.0994 -0.8091 -0.1943
13894TIP3   OH263096   4.789   5.221  13.178  0.1694  0.1886 -0.2447
13894TIP3    H163097   4.813   5.136  13.141 -0.7348  0.1692 -0.8332
13894TIP3    H263098   4.797   5.209  13.273 -1.1516 -0.9690 -0.2401
13895TIP3   OH263099   1.992   5.127  12.410  0.1787  0.6004  0.0688
13895TIP3    H163100   2.026   5.038  12.404  1.7833  1.0354  1.8006
13895TIP3    H263101   1.897   5.116  12.413  0.2402 -0.8670 -1.8687
13896TIP3   OH263102   5.809   1.487  14.439 -0.3439  0.2004 -0.3546
13896TIP3    H163103   5.895   1.524  14.420 -0.5531  1.5327  1.0637
13896TIP3    H263104   5.828   1.405  14.485  0.1436 -0.2376 -1.3137
13897TIP3   OH263105   1.201   3.133  15.249  0.1062  0.2491 -0.1535
13897TIP3    H163106   1.130   3.177  15.296 -0.5663  0.7059 -1.5605
13897TIP3    H263107   1.223   3.058  15.304  0.7271  1.8330  1.9035
13898TIP3   OH263108   4.007   6.702   4.702  0.0987  0.3836 -0.1083
13898TIP3    H163109   4.073   6.770   4.719 -0.9209  1.2918  0.3002
13898TIP3    H263110   3.999   6.656   4.785  0.7717 -0.2432 -0.3786
13899TIP3   OH263111   5.613   3.717  13.977  0.0111  0.1338  0.1570
13899TIP3    H163112   5.577   3.671  13.901 -1.3625  1.4138 -0.0208
13899TIP3    H263113   5.538   3.731  14.034  0.9559 -0.4589  1.5866
13900TIP3   OH263114   2.928   0.632  13.381  0.1701 -0.1307 -0.5085
13900TIP3    H163115   3.007   0.580  13.399  0.2372 -0.9241 -2.7684
13900TIP3    H263116   2.886   0.587  13.308 -2.9918 -0.3028  1.2669
13901TIP3   OH263117   1.101   5.910  14.285 -0.0811  0.3187  0.7229
13901TIP3    H163118   1.116   5.921  14.378  0.2510  3.1481  0.4196
13901TIP3    H263119   1.010   5.935  14.272 -0.4676 -1.1361  0.3780
13902TIP3   OH263120   4.171   5.172   4.441 -0.6044  0.1560  0.2319
13902TIP3    H163121   4.118   5.145   4.516  0.0223  0.3663  0.7570
13902TIP3    H263122   4.184   5.266   4.454  0.1600  0.0464  0.2806
13903TIP3   OH263123   3.688   3.269   5.969 -0.0003 -0.8164  0.3722
13903TIP3    H163124   3.742   3.338   5.930 -0.2446 -0.7966  0.0643
13903TIP3    H263125   3.671   3.300   6.058 -0.9346  0.0055 -0.0721
13904TIP3   OH263126   6.681   6.083  10.593  0.4037 -0.5077 -0.3363
13904TIP3    H163127   6.736   6.076  10.515  0.7330  1.6333 -0.3672
13904TIP3    H263128   6.592   6.073  10.561  0.5748 -0.2552 -0.9012
13905TIP3   OH263129   4.413   2.209  15.136  0.0729  0.3187  0.3556
13905TIP3    H163130   4.453   2.262  15.205  0.5638  0.7051 -0.2149
13905TIP3    H263131   4.397   2.124  15.178  1.9904 -0.0438  0.4750
13906TIP3   OH263132   6.782   2.516  12.970  0.0235 -0.4080  0.0481
13906TIP3    H163133   6.849   2.548  12.910 -0.4834  0.1657 -0.2158
13906TIP3    H263134   6.831   2.492  13.049  0.2907  2.2327  0.7469
13907TIP3   OH263135   1.426   4.393  17.190  0.0295  0.1169  0.2931
13907TIP3    H163136   1.405   4.449  17.115 -0.9062 -0.2144  0.2910
13907TIP3    H263137   1.460   4.312  17.151  2.1577  0.9452  0.3142
13908TIP3   OH263138   3.852   1.717  12.867 -0.7024  0.2491  0.1767
13908TIP3    H163139   3.877   1.643  12.811 -2.8050  0.8099 -1.6354
13908TIP3    H263140   3.917   1.785  12.847  0.6257 -0.7191  1.0767
13909TIP3   OH263141   6.593   5.164   0.797  0.0638 -0.0945  0.1227
13909TIP3    H163142   6.632   5.139   0.713 -0.0460  1.0540 -0.2903
13909TIP3    H263143   6.655   5.132   0.862  1.1662  0.7217 -0.4872
13910TIP3   OH263144   3.126   2.100   4.637  0.0047 -0.4297 -0.0762
13910TIP3    H163145   3.221   2.114   4.635  0.3221 -2.2668 -0.3090
13910TIP3    H263146   3.112   2.046   4.716 -0.6226 -1.3958 -0.8211
13911TIP3   OH263147   2.223   0.950   6.221  0.0994  0.2763  0.4639
13911TIP3    H163148   2.147   0.927   6.274 -0.2214 -0.4733 -0.2885
13911TIP3    H263149   2.298   0.939   6.279 -0.0685 -2.2767  0.3093
13912TIP3   OH263150   3.014   3.310   1.961  0.2857 -0.4337  0.0188
13912TIP3    H163151   2.969   3.306   1.876  0.5580  0.4844 -0.1801
13912TIP3    H263152   3.024   3.403   1.978  1.3485 -0.6166  0.4654
13913TIP3   OH263153   5.006   4.333  11.068  0.5196  0.3162  0.1867
13913TIP3    H163154   5.009   4.428  11.081 -1.8047  0.5680 -0.7057
13913TIP3    H263155   5.090   4.312  11.028  1.7840  1.7010  1.9718
13914TIP3   OH263156   2.845   4.085   6.687 -0.0880  0.2831  0.6363
13914TIP3    H163157   2.840   3.994   6.660  1.3782  0.1627  0.6844
13914TIP3    H263158   2.755   4.117   6.682 -0.2405 -0.3371 -2.2716
13915TIP3   OH263159   4.113   5.999  11.545 -0.2802  0.2460  0.0613
13915TIP3    H163160   4.022   5.968  11.547 -0.6179  1.2192  1.0004
13915TIP3    H263161   4.161   5.935  11.597 -0.1433 -1.0321 -1.5639
13916TIP3   OH263162   2.688   2.864  12.843 -0.4011 -0.5198 -0.1612
13916TIP3    H163163   2.630   2.867  12.768 -1.0000 -1.3762  0.2498
13916TIP3    H263164   2.729   2.777  12.838  2.2156  0.6742 -1.4340
13917TIP3   OH263165   4.553   4.738   0.931  0.3938  0.0528  0.2060
13917TIP3    H163166   4.500   4.818   0.933 -0.3876 -0.4116 -0.8789
13917TIP3    H263167   4.585   4.728   1.020 -0.0754  1.1920  0.5219
13918TIP3   OH263168   3.851   5.567   6.481  0.2261  0.6970 -0.1177
13918TIP3    H163169   3.790   5.634   6.512 -1.9986 -0.4272 -1.7233
13918TIP3    H263170   3.831   5.559   6.387  0.6051 -1.9344 -0.0433
13919TIP3   OH263171   0.970   2.948   4.282  0.0570 -0.4133 -0.1248
13919TIP3    H163172   0.971   2.909   4.194  0.8890 -2.0744  0.5749
13919TIP3    H263173   1.049   3.003   4.284  0.1710 -0.5623 -0.3526
13920TIP3   OH263174   3.715   4.416  12.165 -0.1882  0.3996 -0.0830
13920TIP3    H163175   3.731   4.323  12.177  2.8843  0.9726  1.1089
13920TIP3    H263176   3.731   4.431  12.072 -1.0341 -0.2914 -0.3497
13921TIP3   OH263177   2.076   4.633  16.445 -0.0517  0.0646  0.1422
13921TIP3    H163178   2.127   4.577  16.503 -1.3779  0.6191  1.9243
13921TIP3    H263179   2.055   4.578  16.370 -1.1980 -1.8290  1.7642
13922TIP3   OH263180   2.492   1.132   5.243 -0.6275  0.0670 -0.0227
13922TIP3    H163181   2.462   1.077   5.171 -0.0902  1.3366 -1.2467
13922TIP3    H263182   2.479   1.078   5.321  1.2874 -2.4127 -1.2713
13923TIP3   OH263183   1.883   1.775   5.143  0.4294 -0.1928  0.5477
13923TIP3    H163184   1.890   1.709   5.074 -1.4003 -1.0809  1.1568
13923TIP3    H263185   1.812   1.832   5.114  1.5774  1.1980  0.3284
13924TIP3   OH263186   6.230   4.105  13.609 -0.2770 -0.3708 -0.2362
13924TIP3    H163187   6.216   4.065  13.695  1.0929  2.2942  1.3765
13924TIP3    H263188   6.180   4.187  13.613 -1.2061 -0.7654 -2.5128
13925TIP3   OH263189   6.140   0.144   2.188 -0.0684  0.5108  0.2319
13925TIP3    H163190   6.164   0.218   2.132 -0.6183  2.1305  2.0040
13925TIP3    H263191   6.224   0.107   2.215  0.2063 -0.3067 -1.5783
13926TIP3   OH263192   5.064   1.418  11.413  0.4039  0.3255 -0.0157
13926TIP3    H163193   5.014   1.349  11.369 -0.2203  0.7376  0.0332
13926TIP3    H263194   5.141   1.373  11.449  0.8568 -0.0460 -1.3962
13927TIP3   OH263195   5.634   5.701   3.097  0.0141  0.1850 -0.0619
13927TIP3    H163196   5.653   5.788   3.061 -0.6203  0.9225  1.3078
13927TIP3    H263197   5.720   5.669   3.127 -0.1042  1.7104  2.2418
13928TIP3   OH263198   2.143   1.781   0.234  0.2007  0.2815 -0.3300
13928TIP3    H163199   2.197   1.845   0.187  1.4987 -0.2908  0.3368
13928TIP3    H263200   2.138   1.706   0.175  0.7208  0.0725 -0.1135
13929TIP3   OH263201   0.347   2.449  13.688  0.2883  0.2330  0.3100
13929TIP3    H163202   0.378   2.396  13.762 -0.4391 -1.1772 -0.3501
13929TIP3    H263203   0.255   2.464  13.707  0.4237  1.0433  0.3477
13930TIP3   OH263204   5.988   0.556   2.576  0.6663 -0.2043  0.0699
13930TIP3    H163205   5.936   0.479   2.551  0.8520  0.0696 -1.2049
13930TIP3    H263206   5.940   0.594   2.649 -0.0537 -0.8803 -0.0329
13931TIP3   OH263207   2.198   4.700  13.526  0.0987  0.4466  0.0789
13931TIP3    H163208   2.268   4.647  13.486  1.3960  1.3001  1.1247
13931TIP3    H263209   2.155   4.641  13.587 -0.0697 -0.0775 -0.5384
13932TIP3   OH263210   2.863   3.740   1.210 -0.3399  0.4943 -0.0305
13932TIP3    H163211   2.892   3.677   1.144 -0.5915 -0.3734  0.6784
13932TIP3    H263212   2.794   3.695   1.258 -0.6561  1.3815  0.3721
13933TIP3   OH263213   4.273   4.676  13.700 -0.3075  0.1856 -0.3563
13933TIP3    H163214   4.267   4.766  13.731  0.3746  0.6960 -1.6302
13933TIP3    H263215   4.234   4.623  13.770 -0.1079  1.4013  0.7031
13934TIP3   OH263216   6.392   4.921  11.401  0.4049  0.0485 -0.1334
13934TIP3    H163217   6.425   4.832  11.400  1.0890  0.2943 -0.5930
13934TIP3    H263218   6.454   4.969  11.457  0.8396  0.5111 -0.9833
13935TIP3   OH263219   3.794   2.223  16.695  0.2164  0.0029  0.1590
13935TIP3    H163220   3.735   2.175  16.636 -0.3741  2.0860 -1.0432
13935TIP3    H263221   3.749   2.306  16.712  1.5795  0.5194  1.4505
13936TIP3   OH263222   0.230   2.075  15.475  0.1921  0.2343 -0.4078
13936TIP3    H163223   0.149   2.049  15.430 -0.5940  2.0401 -0.1140
13936TIP3    H263224   0.270   2.139  15.417  0.1363  1.1660  0.5523
13937TIP3   OH263225   6.430   2.931  11.041  0.4492  0.2100  0.3253
13937TIP3    H163226   6.461   2.992  10.974 -0.5756  0.9286  0.4649
13937TIP3    H263227   6.458   2.845  11.010 -0.2597  0.4844 -1.2073
13938TIP3   OH263228   1.359   1.589   2.263 -0.4267  0.3733  0.2690
13938TIP3    H163229   1.328   1.632   2.183 -0.0229 -0.1810 -0.1954
13938TIP3    H263230   1.385   1.501   2.234  1.0609  0.6366  0.7336
13939TIP3   OH263231   0.543   4.599   0.354 -0.1051  0.3980  0.1793
13939TIP3    H163232   0.450   4.624   0.351  0.3559  2.2883  0.2582
13939TIP3    H263233   0.558   4.552   0.272 -1.1548 -0.0619  0.2320
13940TIP3   OH263234   3.914   1.339   4.349  0.2067 -0.1707 -0.2187
13940TIP3    H163235   3.944   1.287   4.275 -1.8997 -1.6484 -0.1177
13940TIP3    H263236   3.895   1.275   4.418  3.1545  1.2131  2.1138
13941TIP3   OH263237   3.624   5.089   4.665  0.1010 -0.0304 -0.0601
13941TIP3    H163238   3.556   5.066   4.729 -0.4769  2.0503  0.1358
13941TIP3    H263239   3.690   5.136   4.716 -0.8165  2.4938 -1.0846
13942TIP3   OH263240   5.368   0.327  16.515 -0.5329 -0.3540  0.2127
13942TIP3    H163241   5.274   0.332  16.528 -0.6260  1.6615 -0.8877
13942TIP3    H263242   5.379   0.321  16.420  0.4480  2.3605  0.0715
13943TIP3   OH263243   1.274   5.767   2.668  0.2966  0.2963  0.0992
13943TIP3    H163244   1.315   5.852   2.678  0.8842  0.1266 -0.7653
13943TIP3    H263245   1.255   5.760   2.574  0.2550 -0.5141  0.1592
13944TIP3   OH263246   0.546   1.988  15.030 -0.2238 -0.2029  0.2340
13944TIP3    H163247   0.626   2.040  15.034 -0.6737  0.5054  0.1645
13944TIP3    H263248   0.537   1.951  15.118  0.1661 -0.2806  0.2461
13945TIP3   OH263249   3.725   0.040  12.465  1.0345 -0.0488 -0.3262
13945TIP3    H163250   3.741  -0.028  12.530  0.1206 -0.6471 -0.7088
13945TIP3    H263251   3.650   0.008  12.414  0.5294  1.2788 -0.4538
13946TIP3   OH263252   5.977   2.219   0.989 -0.1924  0.3110 -0.4006
13946TIP3    H163253   5.949   2.307   0.964  2.4979  1.0436 -1.2224
13946TIP3    H263254   5.978   2.170   0.906  3.8931  1.2978 -1.1497
13947TIP3   OH263255   6.579   6.691   3.871 -0.1335  0.2893 -0.0454
13947TIP3    H163256   6.484   6.691   3.859 -0.3419 -1.1521  1.3802
13947TIP3    H263257   6.602   6.599   3.879  1.8477  0.3555 -3.3888
13948TIP3   OH263258   6.373   2.438  14.034 -0.4334  0.3454 -0.2168
13948TIP3    H163259   6.328   2.514  14.072  1.7627  2.1936 -1.1044
13948TIP3    H263260   6.308   2.399  13.976 -1.7916  1.1944  0.6695
13949TIP3   OH263261   1.509   5.362  15.235  0.1130  0.1694  0.2385
13949TIP3    H163262   1.583   5.398  15.186 -1.2595  0.5932 -1.5874
13949TIP3    H263263   1.531   5.269  15.247  0.2234 -0.0851 -1.7194
13950TIP3   OH263264   5.421   4.764  13.040  0.7358  0.2925  0.0289
13950TIP3    H163265   5.504   4.796  13.004  1.3144  0.1610  1.2098
13950TIP3    H263266   5.404   4.684  12.991  0.5070  1.0980 -1.2727
13951TIP3   OH263267   3.592   2.964   0.687  0.3608  0.5863  0.0278
13951TIP3    H163268   3.520   3.017   0.724 -0.0568  0.0002  0.0651
13951TIP3    H263269   3.548   2.895   0.637  0.8213 -1.0656  1.7921
13952TIP3   OH263270   1.792   3.333   6.157  0.5619  0.0633 -0.0321
13952TIP3    H163271   1.847   3.409   6.179  0.1836  0.0731  0.9200
13952TIP3    H263272   1.804   3.273   6.230  2.0653 -1.5183 -1.4675
13953TIP3   OH263273   5.034   6.019   0.030 -0.7273  0.2181  0.5820
13953TIP3    H163274   5.029   5.940  -0.024 -0.4274 -0.4735  1.5421
13953TIP3    H263275   5.091   5.995   0.102  0.9775  1.9207 -0.1033
13954TIP3   OH263276   5.226   6.114  16.593  0.4324 -0.6542  0.1212
13954TIP3    H163277   5.206   6.176  16.522 -2.0868  1.6462  2.5762
13954TIP3    H263278   5.306   6.148  16.633  0.1621 -0.1395  0.2335
13955TIP3   OH263279   0.803   2.076   4.375  0.0167 -0.0836 -0.2508
13955TIP3    H163280   0.715   2.083   4.338  0.4958 -1.5821 -1.7853
13955TIP3    H263281   0.856   2.040   4.304  1.4452 -1.0781  1.2582
13956TIP3   OH263282   2.987   1.015   5.216 -0.3381 -0.5895  0.0280
13956TIP3    H163283   2.895   1.009   5.244 -0.4138  0.4444  0.0333
13956TIP3    H263284   3.032   1.054   5.291 -0.4943  1.9749 -1.0990
13957TIP3   OH263285   3.821   3.061   5.178  0.0507 -0.3676  0.2326
13957TIP3    H163286   3.732   3.090   5.195  0.4097  1.2197 -0.4326
13957TIP3    H263287   3.820   2.967   5.197 -2.3670 -0.9386 -2.0830
13958TIP3   OH263288   5.618   3.364   5.113  0.1345  0.1377 -0.9169
13958TIP3    H163289   5.673   3.286   5.112  1.1277  0.8266 -1.6142
13958TIP3    H263290   5.625   3.397   5.202 -0.4076 -0.6351 -0.5760
13959TIP3   OH263291   2.678   1.524   4.009 -0.5326 -0.1906  0.5850
13959TIP3    H163292   2.720   1.508   4.093 -0.5655  0.5743  0.7573
13959TIP3    H263293   2.590   1.554   4.032 -0.3322  0.6405  0.3057
13960TIP3   OH263294   4.036   3.692   4.800 -0.0553 -0.0458  0.0236
13960TIP3    H163295   4.036   3.601   4.768 -1.0857  0.0088 -0.1631
13960TIP3    H263296   3.946   3.707   4.829  0.3396  0.6220  0.9372
13961TIP3   OH263297   3.833   4.087   6.202 -0.3790 -0.3797 -0.2309
13961TIP3    H163298   3.860   4.178   6.190  1.6307 -0.9778 -0.5841
13961TIP3    H263299   3.800   4.083   6.291 -0.8819  0.7794 -0.3535
13962TIP3   OH263300   5.285   6.541   3.904 -0.2306 -0.6863  0.5346
13962TIP3    H163301   5.377   6.521   3.921 -0.3393 -1.1397  0.5906
13962TIP3    H263302   5.286   6.594   3.824  0.2561  1.1053  1.6663
13963TIP3   OH263303   6.264   0.288  15.431 -0.0842  0.5023  0.3422
13963TIP3    H163304   6.261   0.364  15.372 -1.3575  2.0531  2.2717
13963TIP3    H263305   6.172   0.271  15.451  0.3334  0.3349  2.2327
13964TIP3   OH263306   1.933   6.476   3.960  0.3366  0.2643  0.2947
13964TIP3    H163307   1.994   6.482   4.033  1.4605  1.2532 -0.6833
13964TIP3    H263308   1.988   6.454   3.884 -0.7846 -0.6591 -0.2897
13965TIP3   OH263309   5.770   6.291  14.441 -0.4650 -0.6606  1.0874
13965TIP3    H163310   5.866   6.288  14.445 -0.4925 -1.1317  1.4056
13965TIP3    H263311   5.748   6.240  14.363 -0.4511 -0.4449  0.9419
13966TIP3   OH263312   5.016   1.347   4.778 -0.6211 -0.1280 -0.3093
13966TIP3    H163313   4.937   1.398   4.760 -0.2535  0.3181 -0.7100
13966TIP3    H263314   4.984   1.261   4.803 -1.2592  0.2602  0.2488
13967TIP3   OH263315   6.327   3.503  11.139 -0.1207 -0.0866  0.0670
13967TIP3    H163316   6.279   3.544  11.067 -3.4046  0.7807  2.4997
13967TIP3    H263317   6.331   3.410  11.115 -0.7338  0.2491 -1.4268
13968TIP3   OH263318   4.522   1.044   6.690 -0.0853 -0.0578 -0.0840
13968TIP3    H163319   4.561   0.958   6.710 -0.7312 -0.4765 -0.6043
13968TIP3    H263320   4.585   1.086   6.632 -0.1777 -0.5454 -0.5456
13969TIP3   OH263321   0.257   0.805   2.070  0.3500  0.6227  0.2487
13969TIP3    H163322   0.320   0.877   2.076  0.5243  0.5370 -0.4347
13969TIP3    H263323   0.278   0.748   2.145  1.6937  0.1333 -0.4687
13970TIP3   OH263324   1.216   6.612   0.220 -0.5011  0.0140 -0.0456
13970TIP3    H163325   1.133   6.574   0.248 -0.7286  0.4023 -0.1929
13970TIP3    H263326   1.209   6.618   0.125 -0.0077 -0.6470 -0.1275
13971TIP3   OH263327   1.698   3.286   2.047  0.3214 -0.4398 -0.4224
13971TIP3    H163328   1.642   3.232   2.103  0.7165 -1.4805 -0.9951
13971TIP3    H263329   1.683   3.251   1.959  0.1755  0.7630 -0.8898
13972TIP3   OH263330   4.221   0.602  16.041  0.3702  0.9355 -0.4600
13972TIP3    H163331   4.171   0.615  16.122  0.3226 -1.4471 -0.0084
13972TIP3    H263332   4.312   0.600  16.070  0.3692  0.3583 -0.4709
13973TIP3   OH263333   2.853   2.604   2.836  0.0642  0.3796  0.1041
13973TIP3    H163334   2.825   2.569   2.920  0.5078 -1.9584 -0.6350
13973TIP3    H263335   2.946   2.579   2.829 -0.1358 -0.0670 -1.3352
13974TIP3   OH263336   0.916   3.890   3.940 -0.0517 -0.0249  0.1535
13974TIP3    H163337   0.925   3.840   4.021 -2.6176 -0.0505  0.5276
13974TIP3    H263338   1.005   3.913   3.915  1.0791 -3.0398  1.0453
13975TIP3   OH263339   2.565   0.263   3.532  0.1651  0.1894 -0.4684
13975TIP3    H163340   2.635   0.242   3.470  0.6932 -0.3032  0.2665
13975TIP3    H263341   2.610   0.308   3.604 -0.6509  2.0691 -1.0727
13976TIP3   OH263342   4.027   1.393  12.888  0.3809 -0.2950 -0.4709
13976TIP3    H163343   3.934   1.413  12.899  0.1203 -1.6872  0.0183
13976TIP3    H263344   4.071   1.446  12.955 -0.0879  0.0823 -0.4558
13977TIP3   OH263345   0.056   3.816  16.529  0.0250 -0.2105  0.1153
13977TIP3    H163346   0.090   3.903  16.512 -0.4838 -0.2423 -1.2160
13977TIP3    H263347   0.122   3.774  16.584  1.3843  0.2554 -1.0933
13978TIP3   OH263348   2.578   6.253  12.332  0.0019 -0.3111 -0.2362
13978TIP3    H163349   2.522   6.283  12.404 -0.2893 -0.2211 -0.4987
13978TIP3    H263350   2.579   6.158  12.341 -0.8432 -0.3691 -0.7063
13979TIP3   OH263351   3.187   5.081   1.577 -0.2694  0.1876  0.1267
13979TIP3    H163352   3.114   5.140   1.597  0.3291  0.9989 -0.0347
13979TIP3    H263353   3.148   5.012   1.523 -0.7502  1.1117 -0.7507
13980TIP3   OH263354   5.184   5.689  14.660  0.0592  0.4910 -0.1699
13980TIP3    H163355   5.114   5.706  14.596  0.5881  1.1700 -0.5832
13980TIP3    H263356   5.265   5.708  14.612  0.4676  0.9563  0.6794
13981TIP3   OH263357   4.138   2.418   4.597  0.9964  0.1465 -0.2657
13981TIP3    H163358   4.060   2.372   4.564  1.4435 -1.5267  0.8545
13981TIP3    H263359   4.173   2.464   4.521 -0.4517  0.0129 -1.0506
13982TIP3   OH263360   5.605   0.884   5.292  0.1303 -0.9315 -0.3331
13982TIP3    H163361   5.640   0.891   5.204 -0.8808  1.0887 -0.6469
13982TIP3    H263362   5.592   0.975   5.320  0.9820 -1.4838  2.1434
13983TIP3   OH263363   0.076   4.750   1.332 -0.3510 -0.2629  0.1010
13983TIP3    H163364   0.049   4.833   1.293 -0.5596 -0.2481  0.2787
13983TIP3    H263365   0.025   4.684   1.286 -0.0864 -0.3043 -0.1337
13984TIP3   OH263366   2.800   0.360   3.735 -0.3246 -0.0578  0.3406
13984TIP3    H163367   2.871   0.314   3.779 -0.5413 -0.6351  0.0919
13984TIP3    H263368   2.841   0.439   3.700 -0.1242  0.3571  1.4669
13985TIP3   OH263369   3.543   1.203   6.462 -0.3364 -0.5410 -0.5112
13985TIP3    H163370   3.620   1.239   6.505 -1.5136 -0.1581  1.4267
13985TIP3    H263371   3.572   1.120   6.425  0.5688 -1.4549  2.0338
13986TIP3   OH263372   5.003   0.760  16.247 -0.1792  0.0838  0.1490
13986TIP3    H163373   4.945   0.693  16.284  0.4707  0.5958  2.2273
13986TIP3    H263374   4.946   0.812  16.190 -1.1640 -0.9764  0.1229
13987TIP3   OH263375   1.712   2.968  15.810  0.5236  0.3199 -0.7236
13987TIP3    H163376   1.750   2.948  15.896 -0.0962 -0.1934 -0.5605
13987TIP3    H263377   1.708   2.883  15.766 -0.5156  0.3503 -0.6988
13988TIP3   OH263378   2.488   4.008  16.345 -0.6918 -0.6270 -0.8393
13988TIP3    H163379   2.552   4.020  16.415 -1.5755  0.5659 -0.2204
13988TIP3    H263380   2.542   3.994  16.266  0.3991  1.9651 -0.6410
13989TIP3   OH263381   0.249   5.833   1.666 -0.2680  0.1754 -0.2534
13989TIP3    H163382   0.223   5.779   1.741 -0.5308 -1.0904 -1.2066
13989TIP3    H263383   0.331   5.794   1.636 -0.6076  0.1169 -1.1307
13990TIP3   OH263384   6.086   2.060   3.590  0.0239  0.2655  0.1244
13990TIP3    H163385   6.179   2.059   3.614 -0.0870 -1.1971  0.5781
13990TIP3    H263386   6.077   1.990   3.527 -0.8244  0.2485  0.2545
13991TIP3   OH263387   0.645   4.687  16.294  0.3507  0.2975  0.3103
13991TIP3    H163388   0.678   4.756  16.237 -1.0421 -0.0677 -1.0280
13991TIP3    H263389   0.704   4.613  16.279 -0.0856  0.1600 -0.8095
13992TIP3   OH263390   2.850   1.417  12.433 -0.0391 -0.5110  0.1648
13992TIP3    H163391   2.945   1.407  12.424  0.2835  1.1343  1.2647
13992TIP3    H263392   2.833   1.509  12.410 -1.3192 -0.6981  0.2850
13993TIP3   OH263393   0.415   5.423  12.098  0.0650  0.1937  0.0059
13993TIP3    H163394   0.348   5.491  12.106  0.6630  0.5421  3.8882
13993TIP3    H263395   0.481   5.460  12.040 -0.5250  2.1414  0.5096
13994TIP3   OH263396   0.473   2.589   5.311  0.0797  0.2221  0.2155
13994TIP3    H163397   0.404   2.624   5.367  0.5192  1.1665  0.1868
13994TIP3    H263398   0.524   2.666   5.285  0.7418 -0.3805 -0.3021
13995TIP3   OH263399   5.236   4.614  13.730 -0.2613 -0.4528  0.1764
13995TIP3    H163400   5.183   4.689  13.700  0.3209 -0.1935 -0.2198
13995TIP3    H263401   5.175   4.540  13.730 -1.9646  0.6835  4.3013
13996TIP3   OH263402   0.284   0.230   4.399  0.3995 -0.2709  0.0376
13996TIP3    H163403   0.365   0.243   4.448 -0.0566  0.3042  0.6658
13996TIP3    H263404   0.221   0.288   4.442 -0.4033 -0.8775 -0.3009
13997TIP3   OH263405   0.225   3.639   0.947  0.3879  0.3191  0.0576
13997TIP3    H163406   0.292   3.695   0.987 -0.9312  1.2685  1.0064
13997TIP3    H263407   0.190   3.692   0.875  1.0946 -0.4517 -0.8915
13998TIP3   OH263408   4.044   3.412   4.763  0.0034  0.5467 -0.3787
13998TIP3    H163409   4.006   3.388   4.848  1.1037  1.8416  0.5331
13998TIP3    H263410   4.065   3.328   4.721 -0.6134 -0.1154  0.6054
13999TIP3   OH263411   6.146   0.766  14.211  0.0851  0.0511 -0.0599
13999TIP3    H163412   6.197   0.829  14.262 -2.8111  1.6719  1.1165
13999TIP3    H263413   6.210   0.703  14.178  2.5446  0.8246  2.8183
14000TIP3   OH263414   2.786   2.186   2.903 -0.3195 -0.2748  0.1062
14000TIP3    H163415   2.692   2.192   2.885 -0.3019  0.3581  0.2087
14000TIP3    H263416   2.792   2.180   2.998 -0.1800  1.6243  0.2449
14001TIP3   OH263417   1.905   3.079   4.568 -0.2960  0.3535  0.4582
14001TIP3    H163418   1.896   3.081   4.473  0.7518  2.0758  0.3550
14001TIP3    H263419   1.989   3.037   4.584 -0.0427  0.8885  0.5634
14002TIP3   OH263420   6.314   4.938  10.947 -0.6469 -0.1146 -0.5129
14002TIP3    H163421   6.359   5.003  10.893  0.4210  1.2278  1.8525
14002TIP3    H263422   6.314   4.975  11.035  3.2866 -4.7617  1.8972
14003TIP3   OH263423   6.769   0.119  14.844 -0.2560 -0.2828 -0.1527
14003TIP3    H163424   6.854   0.078  14.831 -0.2755 -0.0400 -1.1423
14003TIP3    H263425   6.757   0.175  14.767 -1.7564 -1.1008 -0.5660
14004TIP3   OH263426   4.068   5.268   2.941  0.5796 -0.5704  0.3650
14004TIP3    H163427   4.034   5.223   3.018  0.3460 -0.7104  0.1842
14004TIP3    H263428   4.049   5.361   2.957 -0.0813 -0.6656  0.1773
14005TIP3   OH263429   2.236   0.575  12.834 -0.1892 -0.2164  0.1312
14005TIP3    H163430   2.219   0.664  12.802 -0.3695  0.0412  0.9082
14005TIP3    H263431   2.184   0.569  12.914 -1.0797 -1.4257 -0.5064
14006TIP3   OH263432   4.177   3.109   1.288 -0.0291 -0.6659  0.5882
14006TIP3    H163433   4.192   3.022   1.252  1.0954 -0.4343  0.4739
14006TIP3    H263434   4.119   3.094   1.362  0.3657 -1.5429  0.7327
14007TIP3   OH263435   4.553   4.469  15.316 -0.1056 -0.3005 -0.2588
14007TIP3    H163436   4.497   4.540  15.282  0.4752 -0.1231 -0.8690
14007TIP3    H263437   4.539   4.471  15.410 -0.6433  0.1618 -0.3413
14008TIP3   OH263438   1.927   5.386   5.825  0.3026  0.4134  0.1529
14008TIP3    H163439   1.943   5.313   5.765 -1.7943  1.1891 -1.5184
14008TIP3    H263440   1.843   5.364   5.866  0.1996  1.3483  0.4530
14009TIP3   OH263441   4.955   0.302   5.542  0.1409  0.4689 -0.3382
14009TIP3    H163442   4.952   0.231   5.606 -1.2563  0.5619 -0.2766
14009TIP3    H263443   4.999   0.264   5.466  0.3061 -0.1524  0.0621
14010TIP3   OH263444   1.890   1.958  17.267  0.1505 -0.5191 -0.0260
14010TIP3    H163445   1.877   1.876  17.315  0.8745 -1.9283 -2.0487
14010TIP3    H263446   1.920   1.929  17.180 -2.6808  1.7289 -1.9602
14011TIP3   OH263447   3.638   6.261   1.704 -0.2531 -0.6590  0.2251
14011TIP3    H163448   3.708   6.325   1.698 -0.8297 -0.1813 -2.8814
14011TIP3    H263449   3.642   6.212   1.622  0.8244 -5.4961  2.8040
14012TIP3   OH263450   4.114   5.735   2.777  0.0162 -0.3990  0.2260
14012TIP3    H163451   4.176   5.667   2.754  0.1390 -0.2834  0.2133
14012TIP3    H263452   4.164   5.799   2.828  0.1621  0.1949 -0.6304
14013TIP3   OH263453   4.577   4.346   0.046 -0.4833  0.4374 -0.0393
14013TIP3    H163454   4.641   4.362   0.116 -2.4715 -0.6957  2.1985
14013TIP3    H263455   4.525   4.272   0.077 -4.7201  2.9634 -0.2478
14014TIP3   OH263456   0.203   4.850  12.728  0.0528 -0.1426  0.0883
14014TIP3    H163457   0.247   4.860  12.644 -0.2128  1.1406  0.0967
14014TIP3    H263458   0.203   4.755  12.743  0.3452 -0.3684 -1.2163
14015TIP3   OH263459   4.438   4.196  16.440  0.5191 -0.2891  0.1942
14015TIP3    H163460   4.427   4.241  16.356 -0.1118 -2.1970 -0.7963
14015TIP3    H263461   4.486   4.117  16.419 -1.1884 -1.7010  1.2894
14016TIP3   OH263462   4.900   4.747  16.087 -0.4692  0.1135  0.1943
14016TIP3    H163463   4.906   4.841  16.102  1.4746 -0.0160  0.5075
14016TIP3    H263464   4.863   4.712  16.168  0.6096  0.4259  0.8314
14017TIP3   OH263465   3.948   4.404   5.259 -0.3556  0.5266  0.5203
14017TIP3    H163466   3.886   4.431   5.328 -1.3592 -0.5608  0.0644
14017TIP3    H263467   3.906   4.331   5.216  1.1685 -0.1043  0.0341
14018TIP3   OH263468   2.519   5.252   5.183  0.1297 -0.0358 -0.6824
14018TIP3    H163469   2.462   5.194   5.235 -0.5016 -0.5805 -1.9270
14018TIP3    H263470   2.527   5.331   5.236  0.4638 -0.9935  0.7688
14019TIP3   OH263471   4.415   4.053  14.411  0.6278  0.7494  0.2367
14019TIP3    H163472   4.324   4.033  14.431  1.1095  0.6504  2.6057
14019TIP3    H263473   4.450   4.092  14.492  3.2222 -1.1132  0.1605
14020TIP3   OH263474   3.331   2.606   3.486  0.5938 -0.0198 -0.0110
14020TIP3    H163475   3.350   2.607   3.392 -0.0826  1.5191 -0.1478
14020TIP3    H263476   3.348   2.695   3.515  2.3269 -0.8342  1.6777
14021TIP3   OH263477   6.115   1.690   0.791 -0.0143  0.1996 -0.3749
14021TIP3    H163478   6.041   1.735   0.831  0.0737  0.3472 -0.3772
14021TIP3    H263479   6.157   1.757   0.737  0.1344  0.1235 -0.3539
14022TIP3   OH263480   3.847   1.928   3.873 -0.5886 -0.5005  0.1578
14022TIP3    H163481   3.810   1.984   3.942  0.5343  0.4845 -0.0123
14022TIP3    H263482   3.881   1.852   3.921  2.4485  1.2784  1.1430
14023TIP3   OH263483   0.012   4.216  14.934 -0.1210  0.1077 -0.2637
14023TIP3    H163484   0.050   4.146  14.882 -0.6520 -0.9590  0.7418
14023TIP3    H263485  -0.083   4.204  14.925 -0.2577 -0.8507  1.8456
14024TIP3   OH263486   3.636   1.243   6.015 -0.5457 -0.3159  0.3541
14024TIP3    H163487   3.592   1.323   6.044 -1.4368  0.0460 -1.8075
14024TIP3    H263488   3.675   1.267   5.931  2.3673 -1.1496  1.3505
14025TIP3   OH263489   4.057   6.468  16.508 -0.2835 -0.0769 -0.4249
14025TIP3    H163490   4.121   6.447  16.576  0.9000  0.2439 -1.3876
14025TIP3    H263491   3.976   6.486  16.555  0.6312  0.6801  0.9347
14026TIP3   OH263492   1.401   0.666   0.806 -0.3627  0.0924  0.0018
14026TIP3    H163493   1.428   0.618   0.727  2.2982 -0.2578  1.0364
14026TIP3    H263494   1.314   0.700   0.784 -0.2819 -1.0998 -2.5753
14027TIP3   OH263495   0.247   3.575  11.617 -0.5059  0.2289 -0.0320
14027TIP3    H163496   0.181   3.597  11.551 -0.0178  1.9739 -0.0003
14027TIP3    H263497   0.257   3.656  11.667 -1.0912 -1.1140  2.4129
14028TIP3   OH263498   0.451   2.412   1.931 -0.2161  0.0182 -0.6251
14028TIP3    H163499   0.481   2.342   1.874  2.7956  0.3147  0.3932
14028TIP3    H263500   0.403   2.368   2.001 -0.2599 -0.7750 -1.1486
14029TIP3   OH263501   2.885   2.161  15.358 -0.0268 -0.2928  0.5036
14029TIP3    H163502   2.924   2.233  15.406  0.9764  0.7448 -1.7386
14029TIP3    H263503   2.902   2.084  15.412  3.2403  0.4350  0.7110
14030TIP3   OH263504   3.120   2.430   7.259  0.4123  0.2557  0.7571
14030TIP3    H163505   3.109   2.367   7.188  1.0787  0.5667  0.3690
14030TIP3    H263506   3.214   2.448   7.261  0.5070 -0.2807  2.1968
14031TIP3   OH263507   6.660   4.977  10.992  0.1873 -0.1233  0.3084
14031TIP3    H163508   6.734   4.924  11.022 -0.1356 -0.5382  0.3818
14031TIP3    H263509   6.637   4.939  10.907  0.2385  0.1914  0.1500
14032TIP3   OH263510   2.287   5.857  12.160  0.2322  0.2429  0.0030
14032TIP3    H163511   2.331   5.839  12.077 -1.4127 -1.2984 -0.5766
14032TIP3    H263512   2.332   5.935  12.194  1.1146  0.7574 -2.1800
14033TIP3   OH263513   0.443   4.184  15.699 -1.1158  0.7434 -0.3445
14033TIP3    H163514   0.489   4.101  15.689 -0.1400  1.3564 -1.0858
14033TIP3    H263515   0.351   4.162  15.687 -0.7865 -0.0808 -1.5178
14034TIP3   OH263516   6.643   6.148  15.824  0.3821  0.2971  0.2367
14034TIP3    H163517   6.619   6.069  15.873  1.5860 -0.5330 -0.4389
14034TIP3    H263518   6.729   6.172  15.858  1.4619 -0.5622 -1.6941
14035TIP3   OH263519   3.268   3.002   1.090 -0.6394  0.0621  0.6438
14035TIP3    H163520   3.281   2.932   1.026 -1.4494  0.7345 -0.2933
14035TIP3    H263521   3.221   2.961   1.162 -0.7898 -0.4401  0.2602
14036TIP3   OH263522   4.422   2.563   5.357  0.1327  0.2534 -0.1859
14036TIP3    H163523   4.439   2.614   5.436 -0.1926  1.7768 -1.0755
14036TIP3    H263524   4.461   2.477   5.376  1.8226  1.1957  0.8533
14037TIP3   OH263525   2.409   2.168   4.424  0.3616  0.2896 -0.0328
14037TIP3    H163526   2.336   2.195   4.368 -0.8956  1.2080  1.9147
14037TIP3    H263527   2.433   2.081   4.392 -2.5363 -0.6531  0.0602
14038TIP3   OH263528   1.922   5.904  15.344 -0.2386  0.0894  0.7905
14038TIP3    H163529   1.876   5.855  15.413 -0.8931  0.1781  0.4270
14038TIP3    H263530   1.877   5.988  15.341 -0.1393  0.1270  0.3289
14039TIP3   OH263531   3.054   3.907  16.849  0.2607 -0.1410 -0.0931
14039TIP3    H163532   3.029   3.837  16.788  0.9627 -0.1684 -0.3521
14039TIP3    H263533   3.014   3.986  16.813 -2.1074 -0.6611  1.1712
14040TIP3   OH263534   1.675   6.774   4.476  0.4602  1.1524  0.4492
14040TIP3    H163535   1.731   6.783   4.399  0.3075  0.8051  0.2957
14040TIP3    H263536   1.636   6.687   4.468  0.4192  1.1257  0.9041
14041TIP3   OH263537   4.889   3.803   1.672  0.4186  0.4312  0.5674
14041TIP3    H163538   4.851   3.839   1.592  0.6247 -0.8365 -0.1230
14041TIP3    H263539   4.856   3.714   1.677  1.2885  0.1321  1.3132
14042TIP3   OH263540   6.189   0.877  10.916  0.0391  0.1957 -0.1718
14042TIP3    H163541   6.253   0.933  10.872 -1.4883  0.3632 -2.3307
14042TIP3    H263542   6.193   0.794  10.869  0.5536 -0.7442  1.4405
14043TIP3   OH263543   2.864   0.212  12.804 -0.6569  0.9191  0.1155
14043TIP3    H163544   2.953   0.203  12.771 -0.6707  2.6737 -0.4991
14043TIP3    H263545   2.809   0.204  12.727 -0.9337  1.3480  0.2645
14044TIP3   OH263546   3.580   4.875  14.751  0.1823 -0.5323  0.4152
14044TIP3    H163547   3.557   4.884  14.844 -2.8173 -1.5018 -0.1348
14044TIP3    H263548   3.530   4.944  14.708  0.2059 -1.1746 -0.6574
14045TIP3   OH263549   0.314   1.009   2.507  0.3662 -0.3525 -0.1556
14045TIP3    H163550   0.296   0.933   2.564 -0.9629  0.3673  0.4251
14045TIP3    H263551   0.266   0.990   2.427 -1.1721  0.4992  0.5252
14046TIP3   OH263552   3.028   4.702  13.505 -0.4626  0.7546  0.2620
14046TIP3    H163553   2.979   4.702  13.423  0.2249 -0.1935 -0.1587
14046TIP3    H263554   2.961   4.697  13.573 -1.0256  1.3566 -0.2331
14047TIP3   OH263555   4.767   1.188   2.031 -0.1770 -0.3581 -0.1608
14047TIP3    H163556   4.782   1.099   2.000 -0.4736 -0.4203 -0.1354
14047TIP3    H263557   4.854   1.224   2.047 -0.0649 -0.7815  0.2108
14048TIP3   OH263558   5.276   3.997   5.484  0.4530  0.6875  0.2385
14048TIP3    H163559   5.284   3.916   5.534  1.8155  0.9130  0.4470
14048TIP3    H263560   5.275   4.066   5.551  1.2723  0.9332  0.0153
14049TIP3   OH263561   3.170   1.315  11.379  0.3617  0.5129 -0.2963
14049TIP3    H163562   3.235   1.279  11.319  0.0872 -1.1486  0.3522
14049TIP3    H263563   3.108   1.363  11.323  1.0599  0.4657 -1.1208
14050TIP3   OH263564   2.514   3.562  14.211 -0.5206  0.3812 -0.2057
14050TIP3    H163565   2.600   3.573  14.170 -1.5348  3.2927 -1.8688
14050TIP3    H263566   2.472   3.493  14.159  0.6614 -0.8648  0.4439
14051TIP3   OH263567   5.268   4.075  15.804  0.7074 -0.0566  0.2021
14051TIP3    H163568   5.178   4.091  15.778  0.9755 -1.0950 -1.5388
14051TIP3    H263569   5.269   3.983  15.830  0.6676  0.6882  3.2095
14052TIP3   OH263570   0.165   0.602   4.155  0.0495  0.3749 -0.8804
14052TIP3    H163571   0.210   0.518   4.157  0.3457  0.5371 -0.7028
14052TIP3    H263572   0.234   0.667   4.168 -0.6456  0.4842  4.3200
14053TIP3   OH263573   5.881   3.692  13.369  0.1491  0.5830 -0.2805
14053TIP3    H163574   5.905   3.697  13.461  0.0201 -0.2916 -0.1940
14053TIP3    H263575   5.787   3.706  13.367 -0.4583 -2.6823  0.1072
14054TIP3   OH263576   3.382   1.095  16.433  0.3498  0.2505  0.0683
14054TIP3    H163577   3.360   1.078  16.524 -1.2576  0.1778 -0.3075
14054TIP3    H263578   3.298   1.112  16.390  1.2016  1.6819 -1.1283
14055TIP3   OH263579   4.777   1.073  11.981  0.1668  0.3962  0.1601
14055TIP3    H163580   4.822   1.150  12.015 -0.5400  1.1183 -0.4869
14055TIP3    H263581   4.754   1.097  11.891  0.4557 -0.7975 -0.2421
14056TIP3   OH263582   4.597   0.723   6.408  0.0612  0.0205 -0.0272
14056TIP3    H163583   4.530   0.655   6.404 -1.1553  1.2335 -0.8322
14056TIP3    H263584   4.549   0.803   6.426  1.4499  0.7268  0.6746
14057TIP3   OH263585   0.619   4.404   0.163  0.4202  0.8315  0.1040
14057TIP3    H163586   0.569   4.348   0.104 -0.3596 -0.3955  1.8338
14057TIP3    H263587   0.679   4.345   0.207  0.8680  1.6852  0.6670
14058TIP3   OH263588   5.601   5.539   4.613 -0.3621 -0.0973 -0.7821
14058TIP3    H163589   5.660   5.468   4.639 -1.3529  0.0208  2.1682
14058TIP3    H263590   5.632   5.615   4.663 -0.8892  0.9001 -1.9216
14059TIP3   OH263591   4.094   2.768  12.325 -0.1154 -0.7241 -0.0080
14059TIP3    H163592   4.183   2.789  12.294  0.0504  0.3560  1.1332
14059TIP3    H263593   4.038   2.784  12.249  0.3481  1.3754  0.0264
14060TIP3   OH263594   1.259   6.223   3.735 -0.0917 -0.1098 -0.0765
14060TIP3    H163595   1.288   6.176   3.813 -0.7211 -0.5194 -0.0801
14060TIP3    H263596   1.163   6.223   3.742 -0.1077  2.1592  0.5120
14061TIP3   OH263597   3.943   2.138   4.908 -0.6846 -0.6966  0.4571
14061TIP3    H163598   3.907   2.177   4.828  1.7385 -0.0216 -0.3734
14061TIP3    H263599   4.006   2.073   4.878  2.2652  1.4104  1.6490
14062TIP3   OH263600   2.949   3.854   1.631 -0.5077  0.0460  0.4085
14062TIP3    H163601   2.911   3.843   1.718  0.3644  2.5360  1.1845
14062TIP3    H263602   3.041   3.876   1.647  0.4031 -2.1446 -1.2890
14063TIP3   OH263603   0.943   2.551   5.426  0.1444  0.8380  0.9055
14063TIP3    H163604   0.865   2.592   5.464 -1.1297 -0.6874  0.0454
14063TIP3    H263605   0.953   2.592   5.341 -1.9577 -1.4310 -0.5589
14064TIP3   OH263606   0.810   0.711  10.722 -0.0886 -0.0561  0.1175
14064TIP3    H163607   0.717   0.735  10.717  0.0462  0.4036 -0.2046
14064TIP3    H263608   0.856   0.786  10.685  0.4343 -0.1348  0.5946
14065TIP3   OH263609   3.324   0.213  15.976  0.8756  0.0596 -0.1814
14065TIP3    H163610   3.248   0.255  16.017 -0.0403 -1.8480  0.2097
14065TIP3    H263611   3.391   0.213  16.044 -0.0021 -1.3739  0.7532
14066TIP3   OH263612   3.637   0.181  14.760 -0.2975 -0.6994  0.2603
14066TIP3    H163613   3.647   0.129  14.680 -0.4197  1.4753 -1.2471
14066TIP3    H263614   3.563   0.239  14.742 -0.1290  0.0487  1.8349
14067TIP3   OH263615   4.183   3.345   1.739 -0.4007 -0.4231 -0.0993
14067TIP3    H163616   4.223   3.415   1.688 -1.7006  1.9397  1.8930
14067TIP3    H263617   4.092   3.342   1.708 -0.6414 -0.4421  0.5971
14068TIP3   OH263618   1.061   2.045   1.970 -0.8193 -0.0381  0.2261
14068TIP3    H163619   0.971   2.012   1.963 -1.1761  0.5301  1.7052
14068TIP3    H263620   1.088   2.019   2.058  0.8102 -0.9933 -0.5168
14069TIP3   OH263621   3.866   4.632   2.567  0.4828  0.1908  0.2405
14069TIP3    H163622   3.868   4.580   2.487 -3.2778  0.8082 -0.4161
14069TIP3    H263623   3.955   4.668   2.574  1.4179 -1.2419 -2.6727
14070TIP3   OH263624   3.004   2.466   4.547  0.2653  0.1743 -0.4617
14070TIP3    H163625   2.911   2.475   4.527  0.3641  0.8593 -0.6238
14070TIP3    H263626   3.030   2.385   4.504 -0.6607 -1.0110  1.0743
14071TIP3   OH263627   6.087   4.742   1.939  0.0675 -0.3927  0.0448
14071TIP3    H163628   6.023   4.799   1.897  0.0246 -1.3471 -1.2793
14071TIP3    H263629   6.084   4.661   1.888  2.2575 -0.5048 -0.0239
14072TIP3   OH263630   2.333   4.630  13.173  0.3768 -0.0041 -0.1724
14072TIP3    H163631   2.376   4.715  13.173 -2.4449  1.5569 -1.2890
14072TIP3    H263632   2.299   4.620  13.262  0.3084  0.2727 -0.1666
14073TIP3   OH263633   0.389   0.756  13.696  0.3898 -0.5133 -0.1536
14073TIP3    H163634   0.409   0.793  13.782 -2.9548  0.3256  0.4121
14073TIP3    H263635   0.403   0.829  13.635 -0.6043 -0.0059  0.1969
14074TIP3   OH263636   3.011   5.914  15.883  0.5210 -0.4792  0.4818
14074TIP3    H163637   3.061   5.833  15.890  2.5827  0.5976 -0.7006
14074TIP3    H263638   2.971   5.910  15.796 -0.3291 -0.7333  0.8820
14075TIP3   OH263639   4.269   6.292   2.442  0.2159 -0.5694 -0.0528
14075TIP3    H163640   4.295   6.360   2.504 -2.1945  1.4720 -1.1038
14075TIP3    H263641   4.322   6.216   2.467  0.8971  0.7511  3.1092
14076TIP3   OH263642   2.914   5.909   1.710 -0.2622  0.4523  0.0627
14076TIP3    H163643   2.922   5.962   1.789  0.9300  0.7547 -0.2323
14076TIP3    H263644   2.992   5.854   1.710 -0.4598  0.1582 -0.6832
14077TIP3   OH263645   0.567   0.699  14.594  0.2314  0.5822 -0.1013
14077TIP3    H163646   0.489   0.655  14.628  1.0920 -0.7788  0.1709
14077TIP3    H263647   0.608   0.738  14.671  0.6678 -0.0706 -0.0010
14078TIP3   OH263648   1.389   1.091  12.146  0.0353 -0.7603 -0.7516
14078TIP3    H163649   1.440   1.087  12.227 -1.1268  1.3255  0.1569
14078TIP3    H263650   1.298   1.085  12.175 -0.3569 -2.1657 -2.1402
14079TIP3   OH263651   3.282   6.246  11.568 -0.6103  0.0189 -0.0292
14079TIP3    H163652   3.199   6.279  11.533  0.4950  1.3564 -1.5556
14079TIP3    H263653   3.257   6.187  11.639 -2.8663  0.1092 -0.6843
14080TIP3   OH263654   0.726   3.132  11.136  0.1177 -0.6583  0.0758
14080TIP3    H163655   0.816   3.165  11.129 -0.2763  0.6323  0.7240
14080TIP3    H263656   0.679   3.177  11.066 -0.2948 -0.3230  0.5606
14081TIP3   OH263657   6.483   3.766  17.212  0.0974 -0.0409  0.2098
14081TIP3    H163658   6.459   3.694  17.271 -0.1290 -0.5698 -0.5197
14081TIP3    H263659   6.485   3.726  17.125  0.1934  0.7893 -0.1748
14082TIP3   OH263660   2.384   6.720   3.457 -0.1618  0.0444 -0.0613
14082TIP3    H163661   2.473   6.740   3.489 -0.2914  1.7050 -0.6634
14082TIP3    H263662   2.356   6.646   3.512  2.5752 -2.3612 -1.6097
14083TIP3   OH263663   4.008   1.693   1.519 -0.4790  0.1578  0.2400
14083TIP3    H163664   3.941   1.691   1.451  0.7502 -3.8743 -1.1693
14083TIP3    H263665   3.973   1.637   1.589  0.2166  0.4096  0.8041
14084TIP3   OH263666   6.094   2.781  12.528 -0.1717 -0.3302  0.5248
14084TIP3    H163667   6.139   2.764  12.445  0.7082 -0.7131  1.0658
14084TIP3    H263668   6.025   2.715  12.533 -0.0562 -0.4741  0.2242
14085TIP3   OH263669   5.203   1.556   4.239  0.5722  0.0451  0.1366
14085TIP3    H163670   5.130   1.495   4.232  1.9694 -1.7902  0.8146
14085TIP3    H263671   5.165   1.642   4.219 -0.7640 -1.3493 -4.5574
14086TIP3   OH263672   5.379   0.120  15.126  0.1863 -0.3353  1.0190
14086TIP3    H163673   5.324   0.046  15.151 -0.1884 -0.6819 -0.7033
14086TIP3    H263674   5.399   0.105  15.034  4.7078 -1.2090  1.9147
14087TIP3   OH263675   5.272   6.773   2.133 -0.2303  0.0499 -0.4616
14087TIP3    H163676   5.284   6.783   2.039 -0.6952 -0.1588 -0.5451
14087TIP3    H263677   5.338   6.831   2.172 -0.9062  1.1524 -0.9145
14088TIP3   OH263678   1.008   2.169  10.676 -0.4602 -0.1854  1.2670
14088TIP3    H163679   0.919   2.199  10.654 -0.3910  0.3871  1.7527
14088TIP3    H263680   1.005   2.074  10.663  0.0738  0.1769 -3.0987
14089TIP3   OH263681   6.301   1.120  15.152 -0.4728 -0.3300  0.0947
14089TIP3    H163682   6.277   1.171  15.075  1.3315  0.2745 -0.1192
14089TIP3    H263683   6.236   1.146  15.218 -1.3720 -0.0203 -0.8808
14090TIP3   OH263684   1.079   0.688   3.357  0.6588 -0.3263 -0.1821
14090TIP3    H163685   1.034   0.738   3.290 -0.1629 -3.4594 -2.1922
14090TIP3    H263686   1.157   0.654   3.313  1.4675 -0.4112  1.2476
14091TIP3   OH263687   3.792   4.601  12.361 -0.2411 -0.3799  0.3539
14091TIP3    H163688   3.812   4.554  12.280 -0.1804  0.1547  0.0493
14091TIP3    H263689   3.757   4.535  12.420  1.1735 -1.0823  0.4398
14092TIP3   OH263690   5.532   6.352   0.693  0.0547 -0.1616 -0.2203
14092TIP3    H163691   5.534   6.380   0.601 -0.0775 -0.7995 -0.4232
14092TIP3    H263692   5.607   6.294   0.702  1.3198  1.4955  0.6245
14093TIP3   OH263693   5.027   2.366  11.886  0.4531  0.0315  0.1917
14093TIP3    H163694   4.999   2.311  11.812  1.4877 -0.3321  0.0563
14093TIP3    H263695   5.044   2.303  11.957 -1.5038  0.4397  1.1064
14094TIP3   OH263696   5.808   2.780   5.702 -0.0269 -0.3245  0.1533
14094TIP3    H163697   5.864   2.736   5.766 -0.4959  0.5186  1.1825
14094TIP3    H263698   5.868   2.832   5.649  0.2327  0.0805  0.8351
14095TIP3   OH263699   5.509   4.389  14.012 -0.0874 -0.0509 -0.0194
14095TIP3    H163700   5.558   4.337  14.076  0.5993  1.2739  0.5793
14095TIP3    H263701   5.558   4.379  13.930  1.7548  1.9040  0.7492
14096TIP3   OH263702   0.260   5.188  11.366  0.1345  0.1639  0.5723
14096TIP3    H163703   0.292   5.264  11.415  1.3613 -0.9642  1.5978
14096TIP3    H263704   0.319   5.182  11.291  0.4360 -0.1445  0.8332
14097TIP3   OH263705   3.654   0.749   0.274 -0.2146 -0.3827 -0.2732
14097TIP3    H163706   3.734   0.797   0.289 -0.2663 -0.2980 -0.2708
14097TIP3    H263707   3.584   0.805   0.309 -0.3693 -0.0298 -1.1230
14098TIP3   OH263708   1.622   4.373  15.199  0.2368  0.1952  0.2702
14098TIP3    H163709   1.576   4.389  15.117  0.3297 -0.1945  0.1380
14098TIP3    H263710   1.708   4.342  15.173 -0.4618 -2.1264  0.4445
14099TIP3   OH263711   0.540   0.967  15.407  0.1538  0.0981 -0.2921
14099TIP3    H163712   0.542   0.872  15.395  0.6133  0.3148 -2.1618
14099TIP3    H263713   0.448   0.990  15.393  0.2514  0.0509 -1.0660
14100TIP3   OH263714   1.422   4.292   3.984 -0.0165  0.8281 -0.1776
14100TIP3    H163715   1.477   4.255   3.915  0.5557  3.1955 -1.0621
14100TIP3    H263716   1.333   4.286   3.949 -0.0265 -0.3413  0.0157
14101TIP3   OH263717   1.715   6.765  13.755 -0.4103 -0.4371  0.3821
14101TIP3    H163718   1.675   6.822  13.820  1.8482  0.7193  0.8597
14101TIP3    H263719   1.795   6.733  13.797  0.9994  0.1619 -1.6890
14102TIP3   OH263720   3.449   6.272  11.303  0.2238 -0.0241 -0.0286
14102TIP3    H163721   3.422   6.225  11.382  2.3878 -1.1147  0.1401
14102TIP3    H263722   3.436   6.209  11.232 -1.2012  0.7643 -0.4996
14103TIP3   OH263723   3.359   2.954  14.366  0.3472  0.2048 -0.2469
14103TIP3    H163724   3.435   2.974  14.310 -0.2026  1.0445 -0.7204
14103TIP3    H263725   3.390   2.884  14.424  1.1003 -0.3135 -1.2380
14104TIP3   OH263726   1.939   6.636   6.240 -0.1605 -0.2575  0.3972
14104TIP3    H163727   1.895   6.574   6.298 -0.0566 -0.8701 -0.1742
14104TIP3    H263728   2.018   6.590   6.211  0.1007  0.2751  0.2418
14105TIP3   OH263729   6.275   1.469   3.268  0.0971  0.0188  0.0422
14105TIP3    H163730   6.207   1.420   3.314  1.1584 -1.7144 -0.1256
14105TIP3    H263731   6.239   1.557   3.258 -1.3462 -0.3474  1.5677
14106TIP3   OH263732   0.557   6.688   3.153 -0.5043  0.3770  0.1107
14106TIP3    H163733   0.555   6.783   3.167  0.5346  0.5398 -0.7534
14106TIP3    H263734   0.609   6.654   3.226 -0.8696  0.4650  0.4166
14107TIP3   OH263735   0.876   1.390   1.472 -0.4795  0.1951 -0.1695
14107TIP3    H163736   0.969   1.379   1.450 -0.1362  0.4359  1.0908
14107TIP3    H263737   0.876   1.418   1.564 -1.8202 -0.2164 -0.0227
14108TIP3   OH263738   0.368   1.397  11.316  0.2099  0.4508  0.2687
14108TIP3    H163739   0.298   1.434  11.261 -0.1919  0.2255  0.6247
14108TIP3    H263740   0.364   1.303  11.300  0.4291  0.4352  0.2989
14109TIP3   OH263741   4.178   6.045  12.281  0.0940 -0.3354 -0.4570
14109TIP3    H163742   4.210   6.104  12.350 -2.2756  1.4285 -0.7445
14109TIP3    H263743   4.217   5.961  12.302  3.2407  1.1444  0.2980
14110TIP3   OH263744   3.364   1.623   2.665  0.0395  0.3890  0.5732
14110TIP3    H163745   3.284   1.670   2.687  0.0856  1.3734 -1.1789
14110TIP3    H263746   3.416   1.687   2.616  0.9622 -0.9096 -0.1816
14111TIP3   OH263747   2.246   5.160   3.253 -0.4423 -0.3706  0.0587
14111TIP3    H163748   2.337   5.143   3.229 -0.0833 -0.2070  1.2565
14111TIP3    H263749   2.195   5.098   3.200  0.2125  0.5489 -1.7585
14112TIP3   OH263750   1.667   0.714   0.563 -0.3497 -0.4111  0.0343
14112TIP3    H163751   1.698   0.643   0.507  1.6084  0.7311 -0.4019
14112TIP3    H263752   1.741   0.736   0.619 -0.6468  1.7230 -0.2983
14113TIP3   OH263753   4.828   3.583  11.665  0.1089 -0.3581 -0.7788
14113TIP3    H163754   4.808   3.677  11.658  0.6435 -0.2452 -0.8335
14113TIP3    H263755   4.835   3.553  11.575 -2.5791 -1.0307 -0.8678
14114TIP3   OH263756   6.316   5.441  11.759 -0.4566  0.3859 -0.1414
14114TIP3    H163757   6.384   5.502  11.788  0.7204 -0.8965 -0.1047
14114TIP3    H263758   6.260   5.428  11.836  1.5069 -1.4769  1.0941
14115TIP3   OH263759   0.112   5.014   1.954 -0.9279 -0.5280 -0.2633
14115TIP3    H163760   0.112   5.090   1.896 -0.6125  1.1927  1.8538
14115TIP3    H263761   0.197   5.016   1.997 -1.5506 -1.0600  1.0628
14116TIP3   OH263762   0.455   5.612   3.427  0.0477 -0.0336  0.1429
14116TIP3    H163763   0.374   5.567   3.403  1.1746 -1.1522 -1.8486
14116TIP3    H263764   0.497   5.553   3.490 -0.6343  0.5454  1.1741
14117TIP3   OH263765   1.249   6.337  13.655  0.0146 -0.4148  0.2358
14117TIP3    H163766   1.254   6.432  13.652  1.8301 -0.4859 -0.9633
14117TIP3    H263767   1.306   6.312  13.727  1.0940 -0.6205 -0.6587
14118TIP3   OH263768   4.836   0.148   1.918 -0.3515  0.6393  0.4342
14118TIP3    H163769   4.810   0.059   1.940 -0.5541  0.9111  1.3453
14118TIP3    H263770   4.930   0.142   1.898 -0.3826  0.2143  0.4220
14119TIP3   OH263771   5.519   3.963   2.367  0.2564  0.0467  0.0283
14119TIP3    H163772   5.438   4.013   2.362 -0.5985 -0.8662  2.9235
14119TIP3    H263773   5.491   3.872   2.377  1.6255 -0.3500  0.5967
14120TIP3   OH263774   6.074   4.177   6.950  0.1842 -0.1375  0.4280
14120TIP3    H163775   6.025   4.243   6.901 -1.2094 -1.1807  0.3677
14120TIP3    H263776   6.092   4.218   7.035  0.8624  0.9393 -0.2168
14121TIP3   OH263777   4.812   6.275   4.559  0.3272  0.1749  0.2863
14121TIP3    H163778   4.741   6.262   4.622 -0.0151  0.7075  0.0139
14121TIP3    H263779   4.892   6.259   4.609 -0.0026 -2.2266  0.2014
14122TIP3   OH263780   0.782   3.196   0.308  0.3422  0.2912 -0.4050
14122TIP3    H163781   0.857   3.160   0.355  0.2811 -1.4320 -1.5298
14122TIP3    H263782   0.708   3.184   0.367  0.8781  1.7931  0.6192
14123TIP3   OH263783   5.371   1.018   5.930  0.5352  0.9848 -0.0206
14123TIP3    H163784   5.453   1.068   5.925 -0.3910  2.6001  0.4783
14123TIP3    H263785   5.380   0.965   6.009  0.7962  1.7514  0.4798
14124TIP3   OH263786   1.684   3.206   4.267 -0.2575 -0.0845  0.3978
14124TIP3    H163787   1.623   3.195   4.194  0.2814  2.3954 -0.5326
14124TIP3    H263788   1.670   3.129   4.322 -1.9396 -1.1591 -1.4037
14125TIP3   OH263789   1.596   4.562  14.977 -0.7003 -0.2373  0.0134
14125TIP3    H163790   1.520   4.593  14.928 -0.5269  1.6063  0.8042
14125TIP3    H263791   1.668   4.619  14.948  0.2810 -1.6065 -0.3439
14126TIP3   OH263792   2.122   4.184  13.943 -0.1765 -0.3801 -0.1832
14126TIP3    H163793   2.201   4.166  13.891 -1.5286 -0.5657 -2.2651
14126TIP3    H263794   2.118   4.279  13.947 -0.3734 -0.3521 -0.9346
14127TIP3   OH263795   5.323   2.391   2.158 -0.1538 -0.0648  0.0477
14127TIP3    H163796   5.249   2.433   2.202  0.2788 -1.2926  2.0605
14127TIP3    H263797   5.351   2.321   2.218  1.6921 -0.6073 -1.3383
14128TIP3   OH263798   5.968   4.807  15.083  0.1423  0.4772 -0.0748
14128TIP3    H163799   6.045   4.778  15.132 -0.7853  1.6912  2.2495
14128TIP3    H263800   5.989   4.786  14.992  2.5111 -0.7134  0.6495
14129TIP3   OH263801   3.012   1.231  13.744 -0.3615 -0.4054 -0.0829
14129TIP3    H163802   3.091   1.250  13.695  1.1691 -2.5824  1.3537
14129TIP3    H263803   2.973   1.156  13.699 -1.5320  0.5120 -0.6502
14130TIP3   OH263804   3.440   2.010  12.500 -0.1052 -0.3337  0.2601
14130TIP3    H163805   3.461   1.959  12.578  0.9638 -1.4789 -0.7424
14130TIP3    H263806   3.440   1.946  12.429 -1.7639  0.5617 -0.5960
14131TIP3   OH263807   6.082   3.531  16.783 -0.2101 -0.3078  0.1488
14131TIP3    H163808   6.127   3.491  16.709  1.4822  1.0819  0.3607
14131TIP3    H263809   6.034   3.459  16.824  1.3370 -1.7563 -0.4740
14132TIP3   OH263810   3.409   3.322  11.524  0.4097 -0.2058 -0.2230
14132TIP3    H163811   3.375   3.325  11.434  0.7983  0.6971 -0.3552
14132TIP3    H263812   3.335   3.292  11.577 -1.0162  2.8061 -0.3247
14133TIP3   OH263813   6.042   3.434   3.824  0.2131  0.0871 -0.4720
14133TIP3    H163814   6.070   3.436   3.732 -1.1705  0.5441 -0.9019
14133TIP3    H263815   5.954   3.397   3.821 -0.8117  2.3308  0.3958
14134TIP3   OH263816   1.042   2.009   5.933  0.1885  0.0508 -0.9445
14134TIP3    H163817   1.010   2.040   6.018 -0.4180 -1.8251 -0.4474
14134TIP3    H263818   1.000   2.066   5.869  0.0950  1.0409 -0.0291
14135TIP3   OH263819   0.937   5.365   5.391 -0.1716  0.2979  0.0864
14135TIP3    H163820   0.843   5.370   5.374 -0.4484 -1.4237  0.9242
14135TIP3    H263821   0.970   5.302   5.326  0.1365 -0.1726  0.6811
14136TIP3   OH263822   3.868   6.625   5.477  0.5584 -0.4430 -0.3775
14136TIP3    H163823   3.831   6.676   5.549 -0.7496  0.6793 -1.7808
14136TIP3    H263824   3.831   6.538   5.487  1.0841 -0.5533  0.7818
14137TIP3   OH263825   5.682   2.108   0.206  0.1609  0.0507 -0.0647
14137TIP3    H163826   5.616   2.175   0.186  0.5907  0.7888  0.9046
14137TIP3    H263827   5.753   2.125   0.146 -0.2220 -0.2884 -0.6215
14138TIP3   OH263828   5.292   5.756  17.112 -0.1623  0.5116 -0.0343
14138TIP3    H163829   5.347   5.796  17.179  1.5330 -0.3195 -0.8849
14138TIP3    H263830   5.245   5.686  17.158  2.2498 -1.1852  0.0359
14139TIP3   OH263831   1.498   0.023  10.956  0.3281  0.2824 -0.6944
14139TIP3    H163832   1.571  -0.001  10.899 -1.3262  0.3086 -2.9682
14139TIP3    H263833   1.428  -0.037  10.931 -0.4357  0.1781  1.5024
14140TIP3   OH263834   4.551   5.429  11.212  0.4549  0.1270  0.0302
14140TIP3    H163835   4.552   5.391  11.124 -0.4104  1.8675 -0.7939
14140TIP3    H263836   4.462   5.416  11.243  1.2117 -2.1770  1.5217
14141TIP3   OH263837   5.128   0.550  15.515  0.2404 -0.1098 -0.3755
14141TIP3    H163838   5.187   0.606  15.466 -0.4304 -0.1157 -1.2167
14141TIP3    H263839   5.060   0.526  15.452 -1.1799  0.6716  0.8135
14142TIP3   OH263840   0.636   4.130   4.290 -0.2798 -0.4521 -0.2531
14142TIP3    H163841   0.609   4.040   4.307 -0.1701 -0.3059  0.7523
14142TIP3    H263842   0.563   4.168   4.241 -0.2164 -1.1502 -0.9080
14143TIP3   OH263843   1.125   2.342   2.107 -0.9351 -0.6105 -0.0816
14143TIP3    H163844   1.208   2.333   2.153 -0.4739 -2.6552 -1.1757
14143TIP3    H263845   1.079   2.412   2.153  0.3512 -1.1201  2.0985
14144TIP3   OH263846   3.132   2.981  11.757  0.0410  0.3087  0.2581
14144TIP3    H163847   3.221   3.002  11.731 -0.8209  2.9116 -0.9259
14144TIP3    H263848   3.128   2.885  11.753  2.2428  0.2009 -1.5172
14145TIP3   OH263849   1.722   4.900  11.510  0.2623  0.3238  0.1372
14145TIP3    H163850   1.783   4.832  11.481 -0.5035  0.3603 -1.7495
14145TIP3    H263851   1.637   4.856  11.510 -0.1540  1.1004 -0.5333
14146TIP3   OH263852   0.636   1.804   0.433 -0.6878 -0.4648  0.4605
14146TIP3    H163853   0.555   1.856   0.435 -0.5488 -0.2330  0.1698
14146TIP3    H263854   0.696   1.856   0.380 -0.3322 -0.6177  0.7140
14147TIP3   OH263855   3.989   5.760   6.091 -0.1291  0.0814 -0.1540
14147TIP3    H163856   4.022   5.678   6.129 -1.7982 -1.7168 -2.2926
14147TIP3    H263857   4.050   5.827   6.122  0.7224 -1.7557  2.5416
14148TIP3   OH263858   3.612   4.656   0.368 -0.6607  0.0620  0.4281
14148TIP3    H163859   3.640   4.672   0.278  0.9663 -0.9866  0.6977
14148TIP3    H263860   3.555   4.729   0.389  2.7752  3.0684  0.1741
14149TIP3   OH263861   5.885   3.373   2.648  0.1895  0.3651  0.2383
14149TIP3    H163862   5.932   3.303   2.693 -1.2227 -2.4891 -2.4072
14149TIP3    H263863   5.948   3.407   2.584 -0.6302 -2.3978 -2.2369
14150TIP3   OH263864   3.209   3.374  13.533  0.1202  0.1968  0.0831
14150TIP3    H163865   3.272   3.326  13.480  0.7297  1.4998 -0.4299
14150TIP3    H263866   3.130   3.379  13.479  0.3513  0.5317 -0.2216
14151TIP3   OH263867   2.680   2.642  13.168 -0.2534 -0.5467 -0.1036
14151TIP3    H163868   2.725   2.687  13.240 -0.6241 -1.0992  0.4844
14151TIP3    H263869   2.730   2.666  13.090  0.6723 -0.6305  0.4523
14152TIP3   OH263870   1.418   5.943   5.088 -0.4221 -0.1702  0.0864
14152TIP3    H163871   1.493   5.887   5.068 -0.3568 -0.8919  2.1199
14152TIP3    H263872   1.409   5.999   5.011  2.2136 -0.0598 -0.2395
14153TIP3   OH263873   2.041   3.616   4.379 -0.1850 -0.4412 -0.4009
14153TIP3    H163874   1.964   3.559   4.384 -0.5415  0.1628  1.8227
14153TIP3    H263875   2.012   3.700   4.416  1.0835  0.3399 -1.0979
14154TIP3   OH263876   5.858   2.377   1.611 -0.2413 -0.0702  0.0753
14154TIP3    H163877   5.932   2.430   1.641  0.3020 -0.9056  0.2302
14154TIP3    H263878   5.892   2.288   1.608 -1.1247 -0.4030 -0.2630
14155TIP3   OH263879   0.497   4.921  11.305  0.0329  0.6381  0.1019
14155TIP3    H163880   0.422   4.903  11.248 -0.5450  0.3392  0.9395
14155TIP3    H263881   0.549   4.986  11.257  0.3512 -0.6912 -1.4344
14156TIP3   OH263882   0.059   4.153  15.361  0.7582  1.0692 -0.1467
14156TIP3    H163883   0.149   4.122  15.367  0.3101 -0.3119 -0.0948
14156TIP3    H263884   0.062   4.227  15.300  1.7055  0.1010 -1.3123
14157TIP3   OH263885   4.488   0.129   0.851  0.2283  0.1405  0.5334
14157TIP3    H163886   4.520   0.087   0.931  2.1692 -1.3678 -0.9371
14157TIP3    H263887   4.555   0.195   0.830  0.0731  0.0733 -0.2020
14158TIP3   OH263888   2.879   6.496  12.686 -0.3169  0.1295  1.2143
14158TIP3    H163889   2.885   6.487  12.781  0.0633  0.7810  1.2619
14158TIP3    H263890   2.924   6.419  12.651  0.4858  0.4285  1.5686
14159TIP3   OH263891   3.474   1.360  12.122  0.2414  0.3689  0.0704
14159TIP3    H163892   3.405   1.409  12.077  0.3937  0.3792 -0.1527
14159TIP3    H263893   3.475   1.396  12.211 -1.1781 -0.7793  0.5811
14160TIP3   OH263894   5.117   2.369   4.457 -0.1774 -0.2076  0.4182
14160TIP3    H163895   5.038   2.387   4.508 -1.1201 -2.7499  0.0248
14160TIP3    H263896   5.149   2.285   4.492  0.9213 -0.4646 -1.0808
14161TIP3   OH263897   4.531   0.883  14.309 -0.3705 -0.3774 -0.3216
14161TIP3    H163898   4.480   0.824  14.254  2.1453 -0.8523 -2.3207
14161TIP3    H263899   4.583   0.934  14.247  0.6070  1.0133  1.5492
14162TIP3   OH263900   6.558   6.746  11.128 -0.9982 -0.1950  0.2076
14162TIP3    H163901   6.587   6.757  11.218 -2.2175 -1.0221  0.7224
14162TIP3    H263902   6.515   6.660  11.126 -0.7281 -0.3286 -1.2289
14163TIP3   OH263903   3.247   4.670   5.761 -0.2487 -0.3506 -0.2093
14163TIP3    H163904   3.173   4.658   5.702 -0.7792  0.3282  0.3041
14163TIP3    H263905   3.322   4.683   5.703 -0.4835 -1.2603 -0.7348
14164TIP3   OH263906   0.384   6.065   2.511  0.3201 -0.0092  0.3373
14164TIP3    H163907   0.305   6.119   2.513 -0.2115 -0.6629 -1.2386
14164TIP3    H263908   0.398   6.039   2.602 -1.3015  0.0966  0.6414
14165TIP3   OH263909   6.198   3.127  12.996  0.2243 -0.4521  0.5412
14165TIP3    H163910   6.132   3.073  13.039 -1.8744  1.5317 -0.0225
14165TIP3    H263911   6.230   3.186  13.064 -0.1440 -0.0104  0.3381
14166TIP3   OH263912   4.075   1.348  16.223  0.2797 -0.4518 -0.0944
14166TIP3    H163913   4.025   1.275  16.187  0.4463 -0.4054 -0.4204
14166TIP3    H263914   4.085   1.409  16.150 -1.3493  0.7283  0.6075
14167TIP3   OH263915   2.177   4.213  11.128  0.5695  0.0512 -0.3975
14167TIP3    H163916   2.151   4.284  11.068 -0.5629  0.2126  0.2461
14167TIP3    H263917   2.096   4.164  11.142  0.4621  0.7773  1.9967
14168TIP3   OH263918   2.791   5.834  12.530 -0.2339  0.7344  0.2062
14168TIP3    H163919   2.781   5.928  12.546 -0.8522  1.1985 -2.3924
14168TIP3    H263920   2.702   5.800  12.536 -0.2087  0.5924 -0.1664
14169TIP3   OH263921   0.024   3.956   4.446 -0.0746 -0.2322 -0.0210
14169TIP3    H163922  -0.053   3.962   4.390 -0.0633 -1.0323 -0.1256
14169TIP3    H263923   0.062   4.044   4.443 -1.0761  0.2209  0.1767
14170TIP3   OH263924   2.703   5.966   1.529  0.3273 -0.8050 -0.0134
14170TIP3    H163925   2.762   5.950   1.602  0.9206  1.6735  0.1290
14170TIP3    H263926   2.751   6.025   1.471 -1.6966  0.7505 -0.2340
14171TIP3   OH263927   2.486   1.512   4.762 -0.0966 -0.2697  0.1118
14171TIP3    H163928   2.529   1.518   4.677  0.8531  3.5151  0.6812
14171TIP3    H263929   2.392   1.519   4.742 -0.0750 -1.9049 -0.7118
14172TIP3   OH263930   6.220   1.905  16.460  0.1897  0.2016 -0.0854
14172TIP3    H163931   6.194   1.817  16.490 -1.7374  0.5228 -0.7050
14172TIP3    H263932   6.255   1.891  16.372  1.3277 -0.1063  0.3906
14173TIP3   OH263933   3.501   3.830   1.524 -0.1738  0.1159 -0.6739
14173TIP3    H163934   3.464   3.747   1.492  0.8806 -0.2395 -0.9959
14173TIP3    H263935   3.564   3.855   1.457  0.8780  0.2142  0.3365
14174TIP3   OH263936   1.966   5.376  13.816  0.0427 -0.1820 -0.2334
14174TIP3    H163937   1.934   5.295  13.857  1.4564 -0.9074 -0.5054
14174TIP3    H263938   1.965   5.441  13.886 -3.5489  0.3309 -0.5906
14175TIP3   OH263939   0.918   0.749  15.318  0.0002  0.0778 -0.2009
14175TIP3    H163940   0.901   0.677  15.378 -2.7271  0.2907 -0.5830
14175TIP3    H263941   0.931   0.707  15.233  0.6164 -0.0562 -0.0444
14176TIP3   OH263942   4.226   0.975   4.052  0.2757 -0.0366  0.1253
14176TIP3    H163943   4.150   0.917   4.050 -1.8775  2.2154  3.9516
14176TIP3    H263944   4.296   0.923   4.092 -0.5259 -0.9754  0.3323
14177TIP3   OH263945   0.186   1.743  15.863 -0.4746  0.0516 -0.6494
14177TIP3    H163946   0.151   1.788  15.786  0.0296  1.2594 -0.2056
14177TIP3    H263947   0.279   1.766  15.864 -0.9285  2.3272  1.7476
14178TIP3   OH263948   6.641   1.520   5.931 -0.0291 -0.6602  0.6683
14178TIP3    H163949   6.643   1.427   5.952  1.6886 -0.7341  0.3495
14178TIP3    H263950   6.687   1.562   6.004  1.0448 -0.3081 -0.1878
14179TIP3   OH263951   1.005   1.793   2.671 -0.3662  0.5617 -0.1844
14179TIP3    H163952   0.952   1.782   2.592 -0.2523  0.6365 -0.2733
14179TIP3    H263953   0.971   1.729   2.733 -1.7479  1.8009  0.3925
14180TIP3   OH263954   3.236   2.918  16.892  0.4251  0.4179  0.2721
14180TIP3    H163955   3.235   2.872  16.808 -0.7893 -0.2955  0.6482
14180TIP3    H263956   3.263   2.852  16.955 -2.1264 -0.0888  0.9386
14181TIP3   OH263957   3.346   5.715   2.397  0.0612  0.3273  0.4148
14181TIP3    H163958   3.326   5.700   2.490  0.9380 -2.3914  0.2495
14181TIP3    H263959   3.376   5.805   2.394 -1.3131  0.9490  2.5196
14182TIP3   OH263960   3.175   0.754  12.526 -0.0870 -0.6827  0.7365
14182TIP3    H163961   3.258   0.768  12.571  0.5131 -1.1829 -0.1829
14182TIP3    H263962   3.182   0.666  12.489 -0.9200 -0.6301  0.4211
14183TIP3   OH263963   6.704   1.659  14.592 -0.7499 -0.7003  0.0185
14183TIP3    H163964   6.779   1.717  14.606  0.0841 -1.8490  0.4571
14183TIP3    H263965   6.718   1.586  14.652 -2.7402 -0.4947  0.8073
14184TIP3   OH263966   2.307   2.650   2.287  0.8452 -0.3751 -0.0192
14184TIP3    H163967   2.377   2.713   2.299  1.1720 -0.3715 -1.7454
14184TIP3    H263968   2.350   2.564   2.294  0.5463 -0.4329  1.4734
14185TIP3   OH263969   3.032   4.096  16.143 -0.4987 -0.4323 -0.0756
14185TIP3    H163970   2.940   4.070  16.137 -1.1922  1.7846 -0.0475
14185TIP3    H263971   3.056   4.120  16.053 -1.1449  2.4855  0.4302
14186TIP3   OH263972   2.730   1.402  17.293 -0.7188  0.0148  0.3292
14186TIP3    H163973   2.673   1.327  17.310  1.3566 -1.8952 -0.5908
14186TIP3    H263974   2.748   1.439  17.379 -0.1579 -1.8735  1.0847
14187TIP3   OH263975   1.852   0.495   2.033 -0.2326  0.7494  0.1404
14187TIP3    H163976   1.806   0.471   2.113 -0.8817  1.2618 -0.0721
14187TIP3    H263977   1.818   0.435   1.966  1.0249 -0.3380  0.4399
14188TIP3   OH263978   5.763   5.569  15.114 -0.4943  0.7982  0.2766
14188TIP3    H163979   5.741   5.506  15.045  0.1643  0.4067  0.4060
14188TIP3    H263980   5.690   5.630  15.116 -0.7939  0.4697 -0.3704
14189TIP3   OH263981   4.005   4.296   5.616 -0.3303  0.1622  0.5978
14189TIP3    H163982   3.987   4.264   5.705  0.6049  1.4833  1.2917
14189TIP3    H263983   3.932   4.263   5.564 -0.3865 -1.5057  1.6276
14190TIP3   OH263984   0.961   2.243  16.945  0.1531  0.2428 -0.4742
14190TIP3    H163985   0.917   2.214  16.866 -1.9300  1.0640  0.3193
14190TIP3    H263986   1.041   2.190  16.949 -0.1673 -0.4833 -2.5862
14191TIP3   OH263987   4.040   5.724  13.461  0.0200 -0.0584  0.4200
14191TIP3    H163988   4.020   5.742  13.553  0.2704 -0.5035  0.5681
14191TIP3    H263989   3.964   5.676  13.428 -0.4442  0.8372  0.1520
14192TIP3   OH263990   2.660   2.237   4.203  0.2827 -0.1433  0.1150
14192TIP3    H163991   2.568   2.222   4.181  0.6526 -0.2962 -1.3936
14192TIP3    H263992   2.688   2.156   4.245 -0.0750 -0.3588 -0.0574
14193TIP3   OH263993   5.651   4.164  14.130  0.5835  0.3456 -0.0291
14193TIP3    H163994   5.606   4.089  14.169  1.3170  0.0567  0.2739
14193TIP3    H263995   5.727   4.126  14.087  1.3162  0.9936  0.6757
14194TIP3   OH263996   5.608   4.984   3.054 -0.0118  0.5499  0.2527
14194TIP3    H163997   5.669   5.011   3.123 -0.3075 -1.7703  1.5581
14194TIP3    H263998   5.522   4.996   3.093 -0.3826  2.3254 -1.0014
14195TIP3   OH263999   3.903   1.925  16.123  0.5022 -0.9328 -0.3090
14195TIP3    H164000   3.840   1.991  16.149 -0.4507 -2.6081  1.9695
14195TIP3    H264001   3.989   1.964  16.139  0.1960  1.4043 -3.5147
14196TIP3   OH264002   1.701   3.825  12.444 -0.2217 -0.3249  0.5726
14196TIP3    H164003   1.679   3.773  12.367 -2.2122  1.9371 -0.5055
14196TIP3    H264004   1.648   3.788  12.514 -0.6923 -0.5276  0.1189
14197TIP3   OH264005   2.078   5.130   3.652  0.5384 -0.4102  0.2444
14197TIP3    H164006   2.013   5.061   3.665  0.8510 -0.4424  1.8563
14197TIP3    H264007   2.147   5.110   3.715  2.0223 -0.2321 -1.2442
14198TIP3   OH264008   6.584   2.137   3.875 -0.0311 -1.0076 -0.8970
14198TIP3    H164009   6.671   2.097   3.865  1.3604  1.5760  0.1159
14198TIP3    H264010   6.562   2.167   3.786  1.5444  0.9605 -0.6930
14199TIP3   OH264011   2.200   6.355   3.878  0.4553  0.0161 -0.7969
14199TIP3    H164012   2.161   6.285   3.825 -2.5517  1.0940 -0.1562
14199TIP3    H264013   2.244   6.411   3.814  1.7738 -1.6465 -1.4553
14200TIP3   OH264014   1.898   2.244  11.280 -0.5371 -0.3705  0.2764
14200TIP3    H164015   1.881   2.151  11.263 -1.0744 -0.1832 -0.2513
14200TIP3    H264016   1.903   2.284  11.194  0.9098 -0.0979  0.4661
14201TIP3   OH264017   1.717   1.810  15.870  0.4059 -0.9740 -0.5670
14201TIP3    H164018   1.788   1.839  15.927  0.9431 -0.5738 -1.4233
14201TIP3    H264019   1.745   1.725  15.838  1.2394 -0.1401 -2.1263
14202TIP3   OH264020   0.482   3.749  11.533 -0.2637 -0.0048 -0.4373
14202TIP3    H164021   0.430   3.690  11.588 -0.0213 -0.5468 -0.7699
14202TIP3    H264022   0.554   3.694  11.501 -0.8118  0.0828 -1.9016
14203TIP3   OH264023   5.850   2.945  12.509 -0.4274  0.1525  0.1124
14203TIP3    H164024   5.942   2.925  12.527 -0.5380 -1.1009 -0.5242
14203TIP3    H264025   5.829   2.888  12.435 -2.0226 -0.4279  0.9712
14204TIP3   OH264026   5.036   5.514   0.944 -0.1654 -0.3349 -0.6110
14204TIP3    H164027   4.955   5.470   0.917 -0.6423 -0.2707  0.6585
14204TIP3    H264028   5.042   5.499   1.038  1.7345 -1.0208 -0.7857
14205TIP3   OH264029   6.641   2.112   3.099 -0.5481 -0.1631 -0.0698
14205TIP3    H164030   6.672   2.031   3.059  0.3599  1.1311 -2.1870
14205TIP3    H264031   6.550   2.121   3.069 -0.6920 -0.4600  0.2774
14206TIP3   OH264032   6.562   4.126  14.225  0.1984  0.6136 -0.4522
14206TIP3    H164033   6.467   4.126  14.212  0.1310  0.9259 -0.0028
14206TIP3    H264034   6.595   4.192  14.165  0.2381 -0.1167 -1.2612
14207TIP3   OH264035   1.010   2.330  11.720 -0.1000 -0.0395 -0.1626
14207TIP3    H164036   1.042   2.267  11.655 -1.1779 -1.0700  0.2699
14207TIP3    H264037   0.938   2.375  11.676 -0.9855 -0.9027  0.3645
14208TIP3   OH264038   6.678   4.399   1.499  0.2728  0.0367  0.4385
14208TIP3    H164039   6.614   4.467   1.521  1.1906  1.8346 -2.0141
14208TIP3    H264040   6.632   4.342   1.438  0.6961  0.8616 -0.6874
14209TIP3   OH264041   0.236   2.247   1.388  0.2948  0.0143 -0.4204
14209TIP3    H164042   0.144   2.230   1.368  0.6180  0.1590 -2.2120
14209TIP3    H264043   0.284   2.211   1.313  1.6960  0.0482  0.4246
14210TIP3   OH264044   4.359   2.403   1.044  0.0839 -0.8013 -0.2791
14210TIP3    H164045   4.337   2.311   1.034 -1.2344 -0.6893  1.2666
14210TIP3    H264046   4.323   2.428   1.129 -0.8131  1.4877 -1.2381
14211TIP3   OH264047   2.116   4.675   0.611 -0.1815 -0.3823  0.4795
14211TIP3    H164048   2.156   4.666   0.525  1.0242  0.4816  0.9330
14211TIP3    H264049   2.037   4.727   0.596  0.0403 -0.2081 -0.0847
14212TIP3   OH264050   0.489   3.110   3.159  0.3276 -0.0955 -0.1493
14212TIP3    H164051   0.493   3.190   3.107  1.0731 -0.0430 -0.0207
14212TIP3    H264052   0.510   3.040   3.097  1.1574 -0.0390  0.0657
14213TIP3   OH264053   3.797   2.378  16.019 -0.5006 -0.1829  0.0003
14213TIP3    H164054   3.735   2.450  16.025  0.7243  0.9052 -0.0704
14213TIP3    H264055   3.863   2.407  15.956 -0.2413 -1.5748 -0.4214
14214TIP3   OH264056   4.745   0.724   6.025  0.3739 -0.1554 -0.4327
14214TIP3    H164057   4.766   0.742   6.116  0.6710  0.8784 -0.6810
14214TIP3    H264058   4.681   0.654   6.027 -0.2325  0.4163  0.6065
14215TIP3   OH264059   5.951   1.010  14.568  0.4144  0.2322  0.4725
14215TIP3    H164060   6.008   0.961  14.508  1.1597 -0.6230  1.8270
14215TIP3    H264061   5.906   1.073  14.512  2.3352  0.6222 -0.7455
14216TIP3   OH264062   3.680   6.074   1.473  0.1071 -0.4022  0.3572
14216TIP3    H164063   3.698   6.014   1.401  1.2340 -1.5272  1.5093
14216TIP3    H264064   3.761   6.123   1.486 -0.1623 -0.0338  0.6973
14217TIP3   OH264065   1.489   2.412   2.677  0.4422  0.0381  0.4296
14217TIP3    H164066   1.431   2.459   2.737 -1.0258 -0.0479 -0.8398
14217TIP3    H264067   1.429   2.364   2.619  1.8528 -1.9315  0.5026
14218TIP3   OH264068   1.932   4.162  13.509  0.6864 -0.0871  0.4613
14218TIP3    H164069   1.992   4.098  13.470 -2.3143 -1.0963 -3.0106
14218TIP3    H264070   1.954   4.244  13.465  0.1363 -0.2628 -0.1514
14219TIP3   OH264071   0.094   1.012  12.617 -0.0564  0.0270 -0.2181
14219TIP3    H164072   0.066   0.922  12.629  0.2257 -0.2716 -1.6906
14219TIP3    H264073   0.041   1.062  12.680  0.7840 -1.2977  1.6501
14220TIP3   OH264074   4.729   3.981  11.947 -0.0984 -0.1346 -0.3327
14220TIP3    H164075   4.731   3.888  11.967  0.6268 -0.1747 -0.5336
14220TIP3    H264076   4.819   4.001  11.919 -0.3702  0.5122 -0.7803
14221TIP3   OH264077   2.336   3.403  15.447  0.4577 -0.3672 -0.1968
14221TIP3    H164078   2.391   3.481  15.444  1.5111 -1.0017  1.2877
14221TIP3    H264079   2.278   3.416  15.522  1.6562 -1.5861  1.0152
14222TIP3   OH264080   4.116   4.342  12.318  0.3253 -0.1418  0.4807
14222TIP3    H164081   4.045   4.342  12.381 -0.8857  4.3211 -0.5224
14222TIP3    H264082   4.147   4.432  12.316  3.8554 -1.1831 -1.5527
14223TIP3   OH264083   3.986   5.954  12.609  0.0184  0.0333 -0.0421
14223TIP3    H164084   4.020   6.043  12.605 -1.0257  0.4807  0.5461
14223TIP3    H264085   3.928   5.946  12.533  1.1870 -0.6323 -0.8887
14224TIP3   OH264086   2.682   6.553   3.258 -0.6548 -0.6482 -0.3789
14224TIP3    H164087   2.687   6.514   3.171  1.2964 -1.2607 -0.0445
14224TIP3    H264088   2.773   6.577   3.279 -1.4006  1.6799  0.5298
14225TIP3   OH264089   6.393   0.939  11.488 -0.5399  0.5144 -0.0580
14225TIP3    H164090   6.408   0.993  11.411  1.7359  0.4849  0.2850
14225TIP3    H264091   6.478   0.898  11.506 -1.6162 -1.4382  1.0074
14226TIP3   OH264092   2.911   4.892  13.722  0.3810 -0.1965  0.3841
14226TIP3    H164093   2.847   4.952  13.759 -0.9424 -1.2524 -0.0983
14226TIP3    H264094   2.947   4.845  13.798  1.9760  1.6553  0.8405
14227TIP3   OH264095   4.937   0.513   1.920  0.1368 -0.0735 -0.0523
14227TIP3    H164096   4.980   0.427   1.912 -0.4551 -0.2473 -2.1474
14227TIP3    H264097   4.937   0.547   1.831 -1.4480  1.2125  0.3933
14228TIP3   OH264098   5.138   0.800  11.430 -0.6327  0.1940  0.2824
14228TIP3    H164099   5.091   0.803  11.514  0.7727 -0.0860  1.1203
14228TIP3    H264100   5.187   0.718  11.433 -1.3027 -0.2756 -1.2472
14229TIP3   OH264101   5.409   4.668  16.525  0.1489  0.0205 -0.2955
14229TIP3    H164102   5.408   4.685  16.431 -0.8489  2.2614  0.0460
14229TIP3    H264103   5.443   4.749  16.564  0.0636 -0.6592  1.2947
14230TIP3   OH264104   4.675   2.300   6.237  0.4151 -0.2868  0.3713
14230TIP3    H164105   4.585   2.273   6.254  0.9921 -1.2710  1.9820
14230TIP3    H264106   4.686   2.380   6.288  0.8091 -0.8232  1.1355
14231TIP3   OH264107   3.477   2.116   5.898  0.1363  0.0568  0.0509
14231TIP3    H164108   3.503   2.048   5.959 -1.4270 -1.1689 -0.5748
14231TIP3    H264109   3.558   2.163   5.878  1.1255 -1.1581  1.0525
14232TIP3   OH264110   6.025   1.697   0.195 -0.2752  0.0118  0.3318
14232TIP3    H164111   6.057   1.606   0.197 -0.5180 -0.0862 -0.0505
14232TIP3    H264112   5.932   1.689   0.174 -0.4084  0.3290  0.7889
14233TIP3   OH264113   5.159   6.008  12.555 -0.1232 -0.2453  0.4535
14233TIP3    H164114   5.149   5.923  12.512 -0.4326  1.1487 -2.4593
14233TIP3    H264115   5.097   6.065  12.510  2.3226  2.2957  0.0246
14234TIP3   OH264116   0.249   3.051   6.024 -0.2262  0.2363 -0.0004
14234TIP3    H164117   0.164   3.015   6.046  0.6507 -1.7782  0.2743
14234TIP3    H264118   0.304   3.033   6.101  1.7328 -3.0457 -1.9223
14235TIP3   OH264119   4.011   2.755  15.658 -0.5113 -0.2203  0.4287
14235TIP3    H164120   4.088   2.801  15.625 -0.8040  0.7079  0.9857
14235TIP3    H264121   3.973   2.816  15.722 -1.0316 -1.1586  1.0361
14236TIP3   OH264122   3.690   0.218   3.037  0.1420  0.2879  0.0892
14236TIP3    H164123   3.700   0.281   3.108  0.2934 -0.0761  0.3988
14236TIP3    H264124   3.757   0.242   2.974 -1.0139  1.5904 -0.6872
14237TIP3   OH264125   3.582   0.452   3.855  0.3373 -0.3162 -0.2302
14237TIP3    H164126   3.607   0.537   3.890  0.0526 -0.9959  1.7592
14237TIP3    H264127   3.643   0.390   3.894 -1.0724 -1.3305  0.4555
14238TIP3   OH264128   1.495   4.298  12.031 -0.2567  0.5219  0.2998
14238TIP3    H164129   1.415   4.316  12.081 -0.6839  0.5258 -0.3790
14238TIP3    H264130   1.544   4.380  12.033  0.7292 -0.0466  2.4750
14239TIP3   OH264131   3.215   5.048   0.081  0.0426  0.3566  0.6058
14239TIP3    H164132   3.291   5.050   0.022  0.0976  0.5285  0.6815
14239TIP3    H264133   3.141   5.032   0.024 -0.1013  2.0067  0.2790
14240TIP3   OH264134   1.733   4.194   6.500  0.2782  0.5615  0.6707
14240TIP3    H164135   1.666   4.155   6.555  0.7309  0.1769  0.9545
14240TIP3    H264136   1.687   4.263   6.452 -1.0073 -1.5444 -1.3355
14241TIP3   OH264137   2.626   2.788   1.643  0.7720  0.0275  0.7687
14241TIP3    H164138   2.578   2.870   1.630 -0.4886 -0.8678 -0.5475
14241TIP3    H264139   2.692   2.788   1.573  0.0456 -0.5537  0.0605
14242TIP3   OH264140   5.175   3.910   0.780  0.4742 -0.0824 -0.2023
14242TIP3    H164141   5.138   3.989   0.741 -0.2228 -0.4657 -0.3275
14242TIP3    H264142   5.159   3.919   0.874 -3.0714 -1.7801 -0.4956
14243TIP3   OH264143   0.711   3.612  13.230  0.2437 -0.5542  0.0149
14243TIP3    H164144   0.758   3.577  13.306 -0.5987 -0.8008  0.4333
14243TIP3    H264145   0.678   3.697  13.260  2.8183  1.0288 -1.1846
14244TIP3   OH264146   3.652   6.501   4.119 -0.3153  0.4985  0.2841
14244TIP3    H164147   3.662   6.476   4.027 -0.7098 -1.0302  0.6318
14244TIP3    H264148   3.724   6.562   4.135  1.4850 -1.3889 -0.2951
14245TIP3   OH264149   3.129   4.517  14.036 -0.0354 -0.1242  0.0589
14245TIP3    H164150   3.123   4.422  14.041  2.5761 -0.3254  0.6334
14245TIP3    H264151   3.163   4.543  14.122 -0.9912  1.3834  0.0238
14246TIP3   OH264152   1.498   0.680   2.000  0.0890 -0.1100 -0.8002
14246TIP3    H164153   1.516   0.637   2.084  0.4326  1.4921 -0.0198
14246TIP3    H264154   1.548   0.629   1.936  0.0945 -1.1469 -0.0041
14247TIP3   OH264155   1.159   2.324   0.491  0.1259 -1.0016  0.0341
14247TIP3    H164156   1.215   2.275   0.431 -0.7812 -1.9904 -0.0516
14247TIP3    H264157   1.158   2.413   0.457  1.2469 -1.0799 -0.2285
14248TIP3   OH264158   6.341   0.477   5.705  0.4170  0.0121  0.9955
14248TIP3    H164159   6.395   0.489   5.783  0.9241 -1.7172  0.9354
14248TIP3    H264160   6.403   0.471   5.633  0.0300  0.1058  0.6457
14249TIP3   OH264161   0.163   1.879  13.976 -0.2966  0.7075 -0.1680
14249TIP3    H164162   0.214   1.827  14.039  0.3309  1.9326  0.3727
14249TIP3    H264163   0.222   1.890  13.901  0.0488  1.6356  0.2204
14250TIP3   OH264164   3.797   1.737   6.117  0.1525 -0.0094  0.1846
14250TIP3    H164165   3.886   1.750   6.085 -0.3239  1.3151 -0.7207
14250TIP3    H264166   3.806   1.678   6.191  1.6421 -0.8692 -0.6275
14251TIP3   OH264167   4.098   0.014   0.748  0.0506 -0.6612  0.3276
14251TIP3    H164168   4.164  -0.032   0.800 -1.3457 -1.7111  1.2199
14251TIP3    H264169   4.139   0.098   0.727  3.3300 -2.7281 -2.6270
14252TIP3   OH264170   6.014   6.064  15.893 -0.4619  0.0463  0.5040
14252TIP3    H164171   6.090   6.112  15.859  0.4334 -1.3357  0.4608
14252TIP3    H264172   5.944   6.082  15.830 -0.3083  1.6697  0.7614
14253TIP3   OH264173   5.573   6.606   6.380 -1.0222 -0.2904  0.3703
14253TIP3    H164174   5.568   6.699   6.403 -0.6216  0.3839 -1.9369
14253TIP3    H264175   5.574   6.560   6.464 -2.3740  1.7074  1.5564
14254TIP3   OH264176   6.015   5.547  13.501 -0.0356 -0.0089  0.3443
14254TIP3    H164177   6.044   5.504  13.582  1.2143  1.2653  0.6036
14254TIP3    H264178   5.956   5.484  13.461 -1.5745 -0.2591  2.7890
14255TIP3   OH264179   3.704   3.898  11.900  0.4348  0.2017 -0.2780
14255TIP3    H164180   3.633   3.929  11.844  1.1348  1.4982 -0.4927
14255TIP3    H264181   3.759   3.845  11.842 -0.2102 -0.6189 -0.1636
14256TIP3   OH264182   2.386   6.554   2.746  0.4120  0.0993 -0.1476
14256TIP3    H164183   2.480   6.538   2.758  0.2268 -0.5522  0.5003
14256TIP3    H264184   2.363   6.507   2.666  0.4430 -0.5645  0.2287
14257TIP3   OH264185   0.948   6.625   1.544 -0.3994  0.1683 -0.7012
14257TIP3    H164186   0.904   6.653   1.624  1.9395  1.9867  0.0979
14257TIP3    H264187   0.882   6.632   1.476 -1.6362  1.6577  0.5831
14258TIP3   OH264188   5.762   5.745  11.985  0.1153  0.2560 -0.6487
14258TIP3    H164189   5.731   5.831  12.016  0.9910 -0.0674  1.3029
14258TIP3    H264190   5.691   5.685  12.010  0.8226 -0.0057  0.8355
14259TIP3   OH264191   6.526   6.074  16.916 -0.2805 -0.1778 -0.1973
14259TIP3    H164192   6.498   6.161  16.890  0.6941  0.0158 -0.6376
14259TIP3    H264193   6.522   6.022  16.836 -1.3404 -0.6874  0.1627
14260TIP3   OH264194   2.127   5.894   2.156 -0.1779 -0.0419 -0.1316
14260TIP3    H164195   2.032   5.889   2.150 -0.1135 -0.7077 -0.6154
14260TIP3    H264196   2.143   5.979   2.198 -0.8548  2.3470 -4.1253
14261TIP3   OH264197   0.372   4.764   4.233  0.4092 -0.1138  0.6932
14261TIP3    H164198   0.317   4.727   4.301  0.6494 -1.7137  0.0672
14261TIP3    H264199   0.445   4.804   4.280 -1.9343  3.4708  1.6465
14262TIP3   OH264200   0.231   5.816  16.566  0.2265  0.1748  0.6866
14262TIP3    H164201   0.268   5.904  16.565 -1.6289  1.0185  0.0281
14262TIP3    H264202   0.240   5.786  16.656 -0.8201  1.8577  1.4117
14263TIP3   OH264203   2.774   4.986   1.344 -0.0716 -0.1836  0.2953
14263TIP3    H164204   2.752   4.993   1.437  1.6451 -0.8512  0.8049
14263TIP3    H264205   2.756   5.073   1.308 -0.8408  0.0595  1.2258
14264TIP3   OH264206   6.313   6.336  11.635  0.1988  0.1015  0.0993
14264TIP3    H164207   6.278   6.414  11.679 -0.5511 -0.5811  0.7480
14264TIP3    H264208   6.350   6.369  11.553 -0.5190  1.0754  0.1466
14265TIP3   OH264209   5.617   0.411  16.595  0.5695  0.1659  0.1832
14265TIP3    H164210   5.535   0.365  16.574  0.2251  0.2132  1.3172
14265TIP3    H264211   5.684   0.364  16.545 -0.1925  0.3719 -1.0785
14266TIP3   OH264212   0.887   0.647   0.582  0.0722  0.9543 -0.2924
14266TIP3    H164213   0.822   0.594   0.535 -0.5392 -0.0532  1.5937
14266TIP3    H264214   0.837   0.722   0.615 -0.4302 -0.2866  1.9486
14267TIP3   OH264215   2.319   3.609   3.845 -0.2242  0.2780 -0.1844
14267TIP3    H164216   2.356   3.534   3.891 -3.0580 -0.1288  1.6616
14267TIP3    H264217   2.280   3.572   3.766  0.1032  0.1307 -0.2776
14268TIP3   OH264218   3.980   2.923  13.895 -0.1622 -0.5192 -0.2046
14268TIP3    H164219   4.053   2.882  13.849 -0.0842  0.3659 -0.8938
14268TIP3    H264220   3.923   2.849  13.919  0.1732 -1.0744 -1.0479
14269TIP3   OH264221   4.143   4.946   4.682 -0.5935 -1.3402  0.1818
14269TIP3    H164222   4.077   5.014   4.668 -0.5105 -0.9120  1.6665
14269TIP3    H264223   4.104   4.889   4.748  1.0908 -0.2067  2.2590
14270TIP3   OH264224   1.763   5.888  12.848 -1.2552 -0.2552  0.3671
14270TIP3    H164225   1.823   5.962  12.836 -0.5513 -0.9048 -0.2317
14270TIP3    H264226   1.799   5.819  12.793 -1.9846 -1.0046  0.8070
14271TIP3   OH264227   3.466   1.855  13.872 -0.2298 -0.4825  0.2896
14271TIP3    H164228   3.467   1.759  13.874  0.4785 -0.4694  1.3259
14271TIP3    H264229   3.547   1.881  13.916 -0.4086  0.5973  0.0141
14272TIP3   OH264230   5.733   5.570   4.348 -0.1342 -0.1513  0.4166
14272TIP3    H164231   5.818   5.573   4.391  0.9256  0.2059 -1.5620
14272TIP3    H264232   5.677   5.522   4.409  0.7452  1.7809  2.9306
14273TIP3   OH264233   5.796   3.494  14.629  0.2455  0.3566  0.3535
14273TIP3    H164234   5.794   3.460  14.719  2.9548  0.3826  0.5148
14273TIP3    H264235   5.722   3.555  14.625 -1.3882 -1.4070  1.7732
14274TIP3   OH264236   4.175   4.718  13.068 -0.0116  0.5194 -0.1051
14274TIP3    H164237   4.180   4.659  12.993 -1.9637 -0.6152  0.5838
14274TIP3    H264238   4.124   4.793  13.036 -0.1382  0.4122 -0.1592
14275TIP3   OH264239   4.533   3.830  13.054  0.1901  0.3975 -0.4432
14275TIP3    H164240   4.560   3.748  13.012  2.0483 -0.2330  1.7622
14275TIP3    H264241   4.456   3.807  13.105  0.1860  0.2418 -0.5182
14276TIP3   OH264242   4.449   2.336  13.807 -0.3187  0.6305 -0.4983
14276TIP3    H164243   4.484   2.284  13.879  0.6915 -1.0650 -2.1332
14276TIP3    H264244   4.362   2.364  13.838 -0.4795 -1.1638  0.8509
14277TIP3   OH264245   5.263   5.473  15.552 -0.3167 -0.1898 -0.2963
14277TIP3    H164246   5.342   5.526  15.540  0.5434 -1.3431  0.0088
14277TIP3    H264247   5.209   5.523  15.613  0.4567  0.3592 -0.0424
14278TIP3   OH264248   4.149   6.146  16.395 -0.2316 -0.7717  0.2858
14278TIP3    H164249   4.167   6.053  16.410  2.2589 -0.4041  0.0629
14278TIP3    H264250   4.145   6.184  16.483  0.0522 -0.9064  0.3589
14279TIP3   OH264251   0.127   5.062   6.051  0.1177  0.3314 -0.0450
14279TIP3    H164252   0.135   5.099   6.139 -0.0397  0.2676 -0.0021
14279TIP3    H264253   0.032   5.057   6.037  0.1216 -0.6951  0.2190
14280TIP3   OH264254   1.014   0.770   4.341  0.1612  0.4233  0.6813
14280TIP3    H164255   1.084   0.747   4.280 -1.6206 -0.6901 -1.1191
14280TIP3    H264256   0.960   0.833   4.292 -0.7232  0.3615  1.5407
14281TIP3   OH264257   3.555   3.947  11.176 -0.3325  0.5277  0.2793
14281TIP3    H164258   3.525   3.859  11.150  0.7783  0.1838  0.0838
14281TIP3    H264259   3.504   3.968  11.254 -0.1077 -0.6278  0.7665
14282TIP3   OH264260   0.345   3.151  15.147 -0.2241  0.5662 -0.3408
14282TIP3    H164261   0.257   3.152  15.109 -0.4525  0.7275  0.1794
14282TIP3    H264262   0.362   3.058  15.165  0.0297  0.4485 -1.1495
14283TIP3   OH264263   4.976   4.641   0.344 -0.1105  0.4031 -1.0112
14283TIP3    H164264   5.043   4.709   0.351 -0.3672  0.6307 -0.7074
14283TIP3    H264265   4.930   4.644   0.429  0.9364 -1.2834 -0.3493
14284TIP3   OH264266   2.750   2.320   2.329  0.5119 -0.1748  0.2990
14284TIP3    H164267   2.707   2.236   2.315  4.4915 -2.2734 -1.1768
14284TIP3    H264268   2.729   2.371   2.250 -0.2400 -0.6222  0.1998
14285TIP3   OH264269   5.880   4.130   1.753  0.3257 -0.4406  0.6490
14285TIP3    H164270   5.825   4.140   1.831  0.7827  1.6477  0.7649
14285TIP3    H264271   5.905   4.219   1.729  3.5614 -1.2435  0.5101
14286TIP3   OH264272   6.686   5.099   5.397  0.5453 -0.5408 -0.4270
14286TIP3    H164273   6.708   5.108   5.489 -0.3353 -1.0512 -0.1531
14286TIP3    H264274   6.591   5.084   5.396  0.5024 -0.2611 -1.4292
14287TIP3   OH264275   6.354   0.041  10.472  0.2708 -0.3980  0.0657
14287TIP3    H164276   6.332  -0.004  10.554 -1.3596  0.9327  0.4034
14287TIP3    H264277   6.335  -0.024  10.404 -0.2294 -0.8715  0.6384
14288TIP3   OH264278   2.860   1.627   4.681 -0.0530 -0.1853 -0.2914
14288TIP3    H164279   2.943   1.614   4.634  0.6306 -0.9126  1.0590
14288TIP3    H264280   2.797   1.648   4.612  1.0284 -0.6420 -1.4669
14289TIP3   OH264281   1.879   2.369  14.907 -0.2434  0.6160 -0.5622
14289TIP3    H164282   1.808   2.426  14.878 -0.0060  0.5222 -1.3404
14289TIP3    H264283   1.845   2.280  14.898 -0.4344  0.6104  0.1714
14290TIP3   OH264284   2.090   4.716   2.151  0.3673 -0.4718  0.5312
14290TIP3    H164285   2.089   4.791   2.091  0.8887 -2.1071 -1.6671
14290TIP3    H264286   1.998   4.705   2.177  0.1681  0.4598  0.2623
14291TIP3   OH264287   4.532   3.072   0.686  0.1756 -0.4280 -0.3150
14291TIP3    H164288   4.592   3.112   0.623 -0.9925  0.7341 -0.7287
14291TIP3    H264289   4.569   3.094   0.771  1.2711 -1.2323 -0.5546
14292TIP3   OH264290   2.117   4.994  16.111 -0.0014 -0.2288  0.1680
14292TIP3    H164291   2.042   5.051  16.093 -1.0045 -1.8040 -0.8934
14292TIP3    H264292   2.186   5.028  16.055 -0.7341 -0.3306 -0.8209
14293TIP3   OH264293   4.250   3.793  11.815  0.1704 -0.0743  0.3131
14293TIP3    H164294   4.207   3.707  11.816  1.0115 -0.5888  3.7704
14293TIP3    H264295   4.337   3.775  11.779 -0.4695 -0.1290 -1.2885
14294TIP3   OH264296   6.741   4.108   4.197  0.4903 -0.7621  0.2311
14294TIP3    H164297   6.734   4.182   4.137  1.6756 -0.9966 -0.2136
14294TIP3    H264298   6.751   4.031   4.141 -4.2139 -1.8703  0.4958
14295TIP3   OH264299   2.496   1.843  10.570 -0.2041  0.1580 -0.3742
14295TIP3    H164300   2.571   1.791  10.600 -0.7693  0.1594  1.1125
14295TIP3    H264301   2.512   1.855  10.476  0.0349 -2.5297 -0.7534
14296TIP3   OH264302   6.706   3.526   3.905  0.1574  0.2358 -0.0579
14296TIP3    H164303   6.736   3.483   3.825  0.2902  0.9297 -0.3920
14296TIP3    H264304   6.785   3.568   3.940  0.1590 -0.3017  0.5912
14297TIP3   OH264305   0.326   6.631  14.376  0.3365  0.3953 -0.1457
14297TIP3    H164306   0.342   6.538  14.391  1.1233  0.9285  3.0743
14297TIP3    H264307   0.389   6.676  14.433  0.1273  2.9316 -1.7493
14298TIP3   OH264308   4.349   4.996  12.763 -0.1295 -0.1088 -0.0590
14298TIP3    H164309   4.359   4.903  12.781 -1.0256 -0.5676 -1.6893
14298TIP3    H264310   4.427   5.020  12.714  1.0931  0.5350  2.0888
14299TIP3   OH264311   5.722   0.687   2.865  0.0329 -0.8027 -0.0726
14299TIP3    H164312   5.683   0.607   2.901 -0.9069 -0.6465 -0.7129
14299TIP3    H264313   5.695   0.757   2.924 -0.9419 -0.6496 -0.6749
14300TIP3   OH264314   1.987   3.649  11.445 -0.3904  0.5960 -0.4812
14300TIP3    H164315   1.951   3.726  11.400 -2.3349 -0.5982 -1.0925
14300TIP3    H264316   1.922   3.580  11.431  1.1137 -1.0885  0.3534
14301TIP3   OH264317   4.845   6.402   1.801  0.3709 -0.0902 -0.2303
14301TIP3    H164318   4.842   6.389   1.895 -0.3992 -0.2532 -0.2705
14301TIP3    H264319   4.762   6.445   1.780 -0.9157 -2.8161 -1.2354
14302TIP3   OH264320   2.461   0.903  12.993 -0.2110  0.0225 -0.0737
14302TIP3    H164321   2.517   0.826  12.988 -1.2736 -0.7141 -1.1487
14302TIP3    H264322   2.372   0.869  12.981 -1.0739  0.9678  2.8769
14303TIP3   OH264323   6.140   6.730   2.869 -0.4378  0.3113  1.2645
14303TIP3    H164324   6.223   6.698   2.905 -1.0484  0.3078  2.7063
14303TIP3    H264325   6.099   6.652   2.832  0.6519  0.4939 -0.4402
14304TIP3   OH264326   2.924   4.603   0.403 -0.4843 -0.2587  0.1194
14304TIP3    H164327   2.923   4.696   0.382 -3.2309  0.0327  1.1256
14304TIP3    H264328   2.854   4.565   0.351 -0.5771 -1.4193  1.0336
14305TIP3   OH264329   0.601   6.641   2.336 -0.1726 -0.3176  0.6102
14305TIP3    H164330   0.535   6.707   2.315  0.5118  0.4502  0.8538
14305TIP3    H264331   0.646   6.625   2.254 -0.0496 -0.1535  0.6447
14306TIP3   OH264332   2.133   4.840  12.927  0.1035 -0.3583  0.5827
14306TIP3    H164333   2.070   4.901  12.889  1.5360  1.4046  0.9266
14306TIP3    H264334   2.180   4.804  12.852 -0.5277 -0.8227  0.4002
14307TIP3   OH264335   4.773   3.397   3.408 -0.1917 -0.7259 -0.1964
14307TIP3    H164336   4.815   3.481   3.392  0.4996 -0.8694  0.7720
14307TIP3    H264337   4.835   3.349   3.462  0.5970 -2.9015 -2.8333
14308TIP3   OH264338   6.289   1.696   4.432 -0.1542 -0.4970  0.0785
14308TIP3    H164339   6.334   1.732   4.356 -0.2558 -1.5832 -0.5206
14308TIP3    H264340   6.199   1.682   4.403  0.0951 -2.1110 -0.0558
14309TIP3   OH264341   0.435   1.171   3.301  0.1433  0.2830  0.5748
14309TIP3    H164342   0.388   1.143   3.379 -3.6099 -0.3497 -1.6436
14309TIP3    H264343   0.463   1.090   3.259 -0.9127  0.3661 -0.3508
14310TIP3   OH264344   1.563   4.194   1.341  0.0524 -0.6201  0.0039
14310TIP3    H164345   1.470   4.180   1.322 -0.0319  2.2079 -2.3241
14310TIP3    H264346   1.607   4.118   1.304 -1.0955 -0.3651 -2.0157
14311TIP3   OH264347   6.740   0.625   1.590 -0.8027  0.3569  0.6378
14311TIP3    H164348   6.724   0.656   1.501  0.1272 -2.4952 -0.6339
14311TIP3    H264349   6.726   0.530   1.586  1.5937 -0.2279  2.9253
14312TIP3   OH264350   4.774   4.855  16.928 -0.4574  0.5836 -0.6917
14312TIP3    H164351   4.750   4.799  16.854 -2.1235  1.6666 -1.0312
14312TIP3    H264352   4.794   4.794  16.998  1.5527 -0.4874 -2.0795
14313TIP3   OH264353   1.969   0.376  12.149  0.2846 -0.6858  0.8777
14313TIP3    H164354   1.912   0.447  12.120 -2.1682 -3.1347 -0.7598
14313TIP3    H264355   1.934   0.350  12.234  1.3890  0.1868  1.6335
14314TIP3   OH264356   6.085   2.779  10.849  0.5428 -0.3612  0.3795
14314TIP3    H164357   6.012   2.752  10.793  0.3808  0.1546  0.3380
14314TIP3    H264358   6.161   2.732  10.814  0.3038 -0.6074  0.1862
14315TIP3   OH264359   4.790   0.445  11.318  0.0235 -0.1979  0.1666
14315TIP3    H164360   4.807   0.440  11.412 -0.5290  0.2184  0.2948
14315TIP3    H264361   4.794   0.539  11.298 -1.6948 -0.1025  0.1349
14316TIP3   OH264362   5.360   1.835  11.706  0.9844  0.2874  0.3545
14316TIP3    H164363   5.377   1.928  11.720  1.2635  0.4764 -1.1234
14316TIP3    H264364   5.359   1.797  11.794  1.2910  1.6058  0.9437
14317TIP3   OH264365   6.385   2.384   3.188  0.3083 -0.3692  0.0596
14317TIP3    H164366   6.400   2.368   3.095  2.1629 -1.0810  0.4344
14317TIP3    H264367   6.304   2.434   3.191  1.0782  1.1370 -2.0657
14318TIP3   OH264368   6.073   3.315   5.957  0.2121 -0.2609 -0.2550
14318TIP3    H164369   6.070   3.277   6.045 -0.8164 -0.1235 -0.2234
14318TIP3    H264370   6.083   3.409   5.971 -2.9709  0.1737 -0.1485
14319TIP3   OH264371   1.544   2.014  14.632 -0.0438  0.3666 -0.0674
14319TIP3    H164372   1.459   2.042  14.599 -0.4954 -1.0510 -0.1428
14319TIP3    H264373   1.524   1.963  14.710  0.9075  2.1313  1.3990
14320TIP3   OH264374   2.064   3.317  16.817 -0.4763  0.4487 -0.1232
14320TIP3    H164375   2.073   3.370  16.897  0.3728  0.4368 -0.2038
14320TIP3    H264376   2.077   3.227  16.847 -0.1559  0.4448 -0.2773
14321TIP3   OH264377   5.565   2.880   1.315 -0.1184  0.0353 -0.3268
14321TIP3    H164378   5.523   2.794   1.314  1.4190 -0.7490  0.1550
14321TIP3    H264379   5.648   2.867   1.270 -1.1137  1.9942 -3.0046
14322TIP3   OH264380   2.596   6.673  13.032 -0.0537 -0.6704  0.4296
14322TIP3    H164381   2.651   6.657  12.955 -2.8958 -4.3767 -1.1185
14322TIP3    H264382   2.631   6.614  13.099  1.6224  1.6350  1.7313
14323TIP3   OH264383   6.623   2.147   4.217 -0.4066 -0.1404 -0.7281
14323TIP3    H164384   6.562   2.139   4.290  0.1280  0.0120 -0.2586
14323TIP3    H264385   6.568   2.142   4.139 -0.8953 -1.1484 -0.3391
14324TIP3   OH264386   0.311   2.126   4.078 -0.1748 -0.2833  0.0584
14324TIP3    H164387   0.324   2.049   4.023 -1.2509 -0.4054 -0.0326
14324TIP3    H264388   0.364   2.108   4.156 -0.1949 -0.9836 -0.0848
14325TIP3   OH264389   2.273   0.159  11.768 -0.5577 -0.1581 -0.2947
14325TIP3    H164390   2.343   0.133  11.707  0.7481 -0.0157  1.0844
14325TIP3    H264391   2.312   0.228  11.821 -2.4017  1.2919 -0.7169
14326TIP3   OH264392   0.996   1.212   3.479  0.0626  0.2141 -0.3719
14326TIP3    H164393   0.969   1.120   3.480 -1.2364  0.4869 -2.8587
14326TIP3    H264394   1.091   1.210   3.484 -0.0109 -1.0842  2.3021
14327TIP3   OH264395   1.153   4.657  12.873  0.6519  0.4432 -0.0104
14327TIP3    H164396   1.062   4.640  12.898  0.1233  2.2419 -0.5668
14327TIP3    H264397   1.163   4.612  12.789  0.7027 -0.8645  0.6740
14328TIP3   OH264398   4.821   4.528  14.925  0.1907  0.0728 -0.3079
14328TIP3    H164399   4.733   4.540  14.960  0.0368 -1.9057  0.0622
14328TIP3    H264400   4.877   4.518  15.002  0.6355  0.5699 -0.5573
14329TIP3   OH264401   0.629   5.736  16.834 -0.3126  0.4088 -0.4404
14329TIP3    H164402   0.566   5.710  16.767  0.8663  0.3091 -1.5546
14329TIP3    H264403   0.715   5.724  16.792  0.4084  2.0963  0.4511
14330TIP3   OH264404   2.455   4.167   6.299  0.7580  0.5925  0.6941
14330TIP3    H164405   2.517   4.219   6.247  0.8432 -1.6108 -1.5813
14330TIP3    H264406   2.371   4.212   6.289  0.9306  0.6349 -0.7827
14331TIP3   OH264407   5.933   5.904   6.573  0.2042  0.1437  0.3497
14331TIP3    H164408   5.979   5.822   6.557  1.2384  0.5789  0.9957
14331TIP3    H264409   5.954   5.959   6.497 -0.6622 -0.2451 -0.1878
14332TIP3   OH264410   6.446   2.057   2.770  0.1169 -0.1913 -0.0567
14332TIP3    H164411   6.397   1.986   2.729  0.6742 -0.8550  0.4012
14332TIP3    H264412   6.380   2.105   2.821 -0.3108 -0.2069 -0.5896
14333TIP3   OH264413   6.665   2.766  10.726 -1.0994  0.0310 -0.4512
14333TIP3    H164414   6.747   2.719  10.715 -1.1389 -0.3633  0.7326
14333TIP3    H264415   6.627   2.730  10.806 -1.7613  1.1765 -0.2141
14334TIP3   OH264416   6.333   5.266  13.043  0.4143  0.6468  0.0915
14334TIP3    H164417   6.407   5.326  13.035  1.1852 -0.0498  1.5758
14334TIP3    H264418   6.331   5.243  13.136 -0.6394 -0.6347 -0.2195
14335TIP3   OH264419   4.279   5.192   4.844 -0.0383  0.3302 -0.0210
14335TIP3    H164420   4.348   5.234   4.896 -0.1628 -0.8324  1.1485
14335TIP3    H264421   4.239   5.130   4.904 -0.0337 -1.2633 -1.5711
14336TIP3   OH264422   1.180   2.100   0.941  0.1463 -0.3668  0.1384
14336TIP3    H164423   1.142   2.181   0.905 -1.1830  0.1482  2.4408
14336TIP3    H264424   1.114   2.033   0.923  0.5619 -0.6189 -0.4521
14337TIP3   OH264425   4.084   0.503   0.330  0.6931 -0.2254 -0.0911
14337TIP3    H164426   4.100   0.591   0.297  1.1501 -0.7675 -1.4232
14337TIP3    H264427   4.145   0.493   0.403 -0.5166  1.1024  1.1675
14338TIP3   OH264428   5.844   3.775   0.673  0.0074 -0.1356 -0.0159
14338TIP3    H164429   5.822   3.718   0.599  3.5004 -0.6394 -0.8471
14338TIP3    H264430   5.806   3.731   0.749  0.8749 -2.5359 -0.8841
14339TIP3   OH264431   5.780   1.514  13.733  0.0222  0.5495 -0.0481
14339TIP3    H164432   5.795   1.598  13.690 -0.4783  0.4204 -0.4794
14339TIP3    H264433   5.688   1.515  13.757 -0.3347 -0.4095 -1.2520
14340TIP3   OH264434   3.622   6.779  15.688 -0.3745 -0.1187  0.2594
14340TIP3    H164435   3.587   6.772  15.599  0.9747  0.2113 -0.3197
14340TIP3    H264436   3.591   6.864  15.719 -0.1351  0.1483 -0.2250
14341TIP3   OH264437   5.048   2.822   0.328  0.2585  0.6795  0.4759
14341TIP3    H164438   5.054   2.917   0.325  0.5927  0.6379 -0.7419
14341TIP3    H264439   5.039   2.795   0.237 -0.7275 -0.4134  0.8672
14342TIP3   OH264440   4.187   1.638   0.551  0.5001  0.2133 -0.2547
14342TIP3    H164441   4.224   1.550   0.542  0.5153  0.2241 -0.3033
14342TIP3    H264442   4.247   1.694   0.501  0.2216  0.1763 -0.6410
14343TIP3   OH264443   0.082   1.049   0.360 -0.1773 -0.1332  0.0071
14343TIP3    H164444   0.040   0.988   0.422 -1.3856 -0.0415 -0.6997
14343TIP3    H264445   0.047   1.135   0.383  1.3600  0.3195  0.8564
14344TIP3   OH264446   2.315   3.137   0.351  0.0367 -0.2071 -0.2974
14344TIP3    H164447   2.398   3.096   0.326  0.8199 -0.0712  1.8808
14344TIP3    H264448   2.272   3.073   0.408 -0.4928  0.4577  0.0674
14345TIP3   OH264449   3.495   4.791  12.367 -0.1290 -0.1007 -0.0016
14345TIP3    H164450   3.561   4.799  12.299 -0.0874  0.5591  0.1115
14345TIP3    H264451   3.544   4.772  12.447 -0.0527  0.6288  0.1280
14346TIP3   OH264452   4.868   5.700  16.507 -0.1986 -0.1777  0.3345
14346TIP3    H164453   4.775   5.719  16.500 -0.2236 -0.2993  0.3259
14346TIP3    H264454   4.902   5.766  16.566 -0.4037 -0.4978  0.8161
14347TIP3   OH264455   0.391   3.112  16.648  0.7728 -0.3650 -0.5419
14347TIP3    H164456   0.440   3.051  16.703  0.1688 -0.3544  0.0172
14347TIP3    H264457   0.400   3.196  16.692 -0.5151 -0.5332  0.0841
14348TIP3   OH264458   0.276   4.837   5.647 -0.6966 -0.6542  0.6560
14348TIP3    H164459   0.309   4.750   5.625 -0.5884 -0.6598  0.8352
14348TIP3    H264460   0.217   4.860   5.575 -0.0839 -0.5272  0.1756
14349TIP3   OH264461   4.406   5.851   2.391  0.2940  0.2039  0.1906
14349TIP3    H164462   4.362   5.828   2.473  0.7706 -0.0108  0.3935
14349TIP3    H264463   4.496   5.870   2.417  0.9949 -1.8074 -0.5076
14350TIP3   OH264464   4.081   5.661  16.749 -0.4784  0.1436  0.4728
14350TIP3    H164465   4.009   5.723  16.740  0.5283  1.1805 -0.9302
14350TIP3    H264466   4.039   5.575  16.756 -1.8422  0.7854  0.3684
14351TIP3   OH264467   5.934   6.500   2.813 -0.2845 -0.3759 -0.5086
14351TIP3    H164468   5.962   6.410   2.831 -1.0517 -0.9195 -1.8496
14351TIP3    H264469   5.868   6.518   2.880  0.1011 -0.7042 -0.0379
14352TIP3   OH264470   5.638   1.440   5.484 -0.3293 -0.0531  0.1634
14352TIP3    H164471   5.659   1.365   5.540 -0.6779  0.8215  1.5164
14352TIP3    H264472   5.696   1.509   5.514  0.0514  0.2180 -1.1371
14353TIP3   OH264473   5.872   4.925   6.589  0.1252 -0.5140 -0.1312
14353TIP3    H164474   5.944   4.878   6.547  1.0422 -0.8663  1.7603
14353TIP3    H264475   5.910   5.009   6.615  0.2801 -1.2011  2.0415
14354TIP3   OH264476   1.348   5.722  13.215  0.5155  0.3230 -0.1037
14354TIP3    H164477   1.347   5.648  13.275  1.4905  1.5216  1.4779
14354TIP3    H264478   1.436   5.758  13.222  0.7271  0.4146 -2.4438
14355TIP3   OH264479   6.092   3.781  15.251  0.0430  0.0785 -0.7163
14355TIP3    H164480   6.126   3.847  15.190 -0.3143  0.6432 -0.3138
14355TIP3    H264481   6.136   3.801  15.334 -0.5832  0.2485 -0.4192
14356TIP3   OH264482   5.488   1.249   0.197 -0.5072  0.3027  0.1665
14356TIP3    H164483   5.557   1.306   0.230  2.8510 -2.4325 -1.4780
14356TIP3    H264484   5.450   1.297   0.123 -0.6747  1.9546  1.2578
14357TIP3   OH264485   1.287   2.571   5.724  0.7458  0.1710 -0.1686
14357TIP3    H164486   1.292   2.477   5.704 -0.2879 -0.3483  1.7950
14357TIP3    H264487   1.239   2.608   5.650 -3.0589 -1.6910  1.0908
14358TIP3   OH264488   3.360   2.199   0.531  0.3434  0.2378 -0.1034
14358TIP3    H164489   3.370   2.167   0.441 -1.6851  0.3874 -0.4250
14358TIP3    H264490   3.269   2.180   0.554  0.9101 -0.1098  2.0749
14359TIP3   OH264491   6.639   4.370  14.131 -0.2005  0.6594  0.9513
14359TIP3    H164492   6.597   4.447  14.092 -0.9220 -0.6786 -1.0646
14359TIP3    H264493   6.725   4.366  14.089 -0.3265  0.1458  0.7335
14360TIP3   OH264494   6.305   6.748   1.732 -0.5837  0.3096  0.1456
14360TIP3    H164495   6.261   6.676   1.686 -0.1225  1.2982 -1.9396
14360TIP3    H264496   6.397   6.741   1.707  0.1213 -0.3404  2.6271
14361TIP3   OH264497   1.469   5.723   1.831 -0.0078 -0.6853 -0.3774
14361TIP3    H164498   1.548   5.738   1.884  1.3227 -1.3251 -2.0731
14361TIP3    H264499   1.465   5.628   1.820  0.7713 -0.5119 -2.7847
14362TIP3   OH264500   3.825   2.988   1.261 -0.8245 -0.1686  0.3134
14362TIP3    H164501   3.740   2.944   1.254 -0.7748 -0.3588  0.8870
14362TIP3    H264502   3.889   2.917   1.267 -0.5800 -0.0324 -0.5130
14363TIP3   OH264503   4.239   2.015   1.548  0.5217  0.9592 -0.7713
14363TIP3    H164504   4.304   2.040   1.482  0.2041  0.2077 -1.3761
14363TIP3    H264505   4.290   1.997   1.626  1.1949 -0.8808 -1.5944
14364TIP3   OH264506   3.023   2.125  12.840  0.1144 -0.0327  0.2239
14364TIP3    H164507   3.110   2.164  12.830  0.3146  0.6626  3.5228
14364TIP3    H264508   3.040   2.039  12.879 -0.6415  1.0215  3.0877
14365TIP3   OH264509   1.602   5.615   2.479 -0.4144  0.1546 -0.0184
14365TIP3    H164510   1.614   5.709   2.497  1.2919 -0.0117 -0.0898
14365TIP3    H264511   1.667   5.572   2.536 -1.3822 -1.0171  0.2407
14366TIP3   OH264512   1.096   4.874   4.058 -0.0672  0.3029  0.1137
14366TIP3    H164513   1.037   4.898   3.987 -1.2141 -3.4718 -0.4649
14366TIP3    H264514   1.173   4.838   4.014 -0.1319 -0.6650  0.7534
14367TIP3   OH264515   5.393   1.696  13.087  0.3548 -0.5741 -0.0401
14367TIP3    H164516   5.342   1.620  13.060  1.7320 -1.4065 -0.3749
14367TIP3    H264517   5.470   1.659  13.131  0.9097  0.6372  0.0430
14368TIP3   OH264518   5.277   1.487  15.874 -0.0110 -0.5320  0.3517
14368TIP3    H164519   5.341   1.554  15.901 -0.1570 -0.7726  1.3215
14368TIP3    H264520   5.249   1.516  15.787 -1.2717  1.5955  1.3807
14369TIP3   OH264521   0.470   5.330   3.638  0.2070 -0.0547  0.0329
14369TIP3    H164522   0.439   5.402   3.692 -0.8557  0.1228 -0.7802
14369TIP3    H264523   0.556   5.308   3.674  0.3089  1.2460  0.6424
14370TIP3   OH264524   5.520   3.384  11.684  0.1367  0.1470 -0.0744
14370TIP3    H164525   5.489   3.409  11.597 -1.4937  1.5756  0.8425
14370TIP3    H264526   5.508   3.463  11.737 -0.6500 -1.1824  1.8417
14371TIP3   OH264527   5.033   4.524  14.150 -0.1110 -0.1205 -0.7928
14371TIP3    H164528   5.095   4.478  14.094 -0.4201 -1.2181 -0.2770
14371TIP3    H264529   5.069   4.612  14.160  0.4343 -0.1966 -1.9255
14372TIP3   OH264530   0.517   4.457   1.282  0.3396  1.0804 -0.2656
14372TIP3    H164531   0.470   4.446   1.200 -1.0090  0.2872  0.5776
14372TIP3    H264532   0.469   4.525   1.329 -0.8409 -0.6312  1.1485
14373TIP3   OH264533   0.764   4.630   1.176 -0.1316 -1.0065 -0.4910
14373TIP3    H164534   0.855   4.619   1.205  0.1516  2.2742  0.2024
14373TIP3    H264535   0.715   4.646   1.257 -1.3595 -2.4938 -0.8881
14374TIP3   OH264536   6.538   1.779  16.331  0.0703 -0.1891 -0.6467
14374TIP3    H164537   6.538   1.839  16.406  0.4893 -2.7842  1.5969
14374TIP3    H264538   6.611   1.808  16.277  0.3344  1.2238  0.4110
14375TIP3   OH264539   6.393   4.294   1.972  0.4720  0.2594 -0.3091
14375TIP3    H164540   6.397   4.293   2.068  0.5994 -1.5923 -0.2997
14375TIP3    H264541   6.407   4.203   1.947  0.2309  0.6861 -2.0911
14376TIP3   OH264542   0.452   1.768  11.431  0.2494  0.3011  0.1652
14376TIP3    H164543   0.375   1.734  11.476  1.1932 -0.0256  1.5928
14376TIP3    H264544   0.501   1.814  11.499  2.1966 -1.0061 -0.2719
14377TIP3   OH264545   1.052   4.843   1.655 -0.2205  0.4760  0.0842
14377TIP3    H164546   0.974   4.803   1.692 -0.9721  0.1942 -1.7273
14377TIP3    H264547   1.041   4.937   1.670 -1.1738  0.4874 -0.6125
14378TIP3   OH264548   3.640   5.722  12.332 -0.1730 -0.1966  0.1171
14378TIP3    H164549   3.693   5.793  12.366 -0.1469 -0.4670  0.6613
14378TIP3    H264550   3.667   5.645  12.383 -1.8870 -0.1114  1.2237
14379TIP3   OH264551   1.584   1.108   1.441 -0.2047  0.2638 -0.0344
14379TIP3    H164552   1.539   1.025   1.458 -0.4979  0.4235 -0.0328
14379TIP3    H264553   1.514   1.171   1.426  0.0262  0.0989 -2.0520
14380TIP3   OH264554   5.167   0.349  16.140 -0.2275 -0.5404  0.0323
14380TIP3    H164555   5.183   0.437  16.174 -2.3603  0.5153 -1.4216
14380TIP3    H264556   5.213   0.346  16.056  0.8428 -1.2984  0.6179
14381TIP3   OH264557   0.276   2.747   4.892  0.5543  0.5081 -0.2946
14381TIP3    H164558   0.186   2.719   4.911  0.7942 -0.1802 -0.1212
14381TIP3    H264559   0.273   2.842   4.896  0.4550  0.5041  2.8761
14382TIP3   OH264560   4.315   2.620   0.803  0.2947  0.9874 -0.3796
14382TIP3    H164561   4.380   2.681   0.768  0.7033 -0.1857 -1.7631
14382TIP3    H264562   4.363   2.565   0.865  0.8838 -0.3953 -1.9810
14383TIP3   OH264563   5.228   1.659   1.991 -0.4511  0.2887 -0.1458
14383TIP3    H164564   5.312   1.692   2.023 -0.6295  1.1484 -0.5492
14383TIP3    H264565   5.251   1.580   1.942 -0.0692 -0.4627  1.2055
14384TIP3   OH264566   1.424   2.076  13.395 -0.2580 -0.4048 -0.9452
14384TIP3    H164567   1.335   2.112  13.392  0.2138  0.7116 -2.7128
14384TIP3    H264568   1.425   2.010  13.326  0.3097 -0.3523 -0.9858
14385TIP3   OH264569   6.559   4.738   0.435  0.4116  0.5358 -0.3649
14385TIP3    H164570   6.597   4.656   0.404  1.8683  0.4903  1.3474
14385TIP3    H264571   6.622   4.770   0.501 -1.6776  1.3856  1.3485
14386TIP3   OH264572   2.975   6.638  12.474 -0.4236  0.6077 -0.9160
14386TIP3    H164573   2.955   6.732  12.477  0.9797  0.9134  0.3387
14386TIP3    H264574   2.921   6.601  12.544 -0.1638  0.6717 -0.6778
14387TIP3   OH264575   6.542   2.274   5.177  0.3179  0.1977 -0.8437
14387TIP3    H164576   6.554   2.351   5.232 -1.9952  0.3316 -0.4245
14387TIP3    H264577   6.456   2.286   5.137 -0.2450 -2.2671 -0.5656
14388TIP3   OH264578   5.070   0.136  16.263  0.1353 -0.2811 -0.2515
14388TIP3    H164579   5.145   0.093  16.305 -0.1252  0.6172  1.2149
14388TIP3    H264580   5.107   0.211  16.217 -0.0082  1.5743  2.4220
14389TIP3   OH264581   6.256   1.555  12.282  0.3411  0.6487  0.3139
14389TIP3    H164582   6.294   1.535  12.367  0.2825 -1.6868 -0.1435
14389TIP3    H264583   6.170   1.593  12.302 -0.0530 -0.7054  1.3180
14390TIP3   OH264584   5.095   1.929   2.995 -0.2983  0.1823 -0.0639
14390TIP3    H164585   5.113   1.916   2.902 -0.2501  0.7998 -0.1456
14390TIP3    H264586   5.163   1.879   3.040  0.1393  0.5063 -0.3627
14391TIP3   OH264587   6.413   2.667  13.150  0.1286  0.1170 -0.0393
14391TIP3    H164588   6.346   2.713  13.201 -1.3999 -2.0659  0.0441
14391TIP3    H264589   6.386   2.678  13.059  0.9181  1.0701 -0.1759
14392TIP3   OH264590   3.348   5.272   0.175  0.3486 -0.1544 -0.4415
14392TIP3    H164591   3.294   5.195   0.159 -2.0984  1.3851 -0.1590
14392TIP3    H264592   3.371   5.303   0.087  0.0831 -0.3884 -0.5969
14393TIP3   OH264593   1.742   5.669   3.719  0.1813 -0.6663 -0.2504
14393TIP3    H164594   1.809   5.651   3.785  0.8362  0.4088 -0.6070
14393TIP3    H264595   1.709   5.756   3.740 -0.5105 -0.8387 -0.5849
14394TIP3   OH264596   2.029   4.439  16.056  0.2455  0.5312 -0.7485
14394TIP3    H164597   1.987   4.508  16.005  0.1622  0.8207 -0.2984
14394TIP3    H264598   2.120   4.438  16.026 -0.3131 -0.9420 -2.6253
14395TIP3   OH264599   6.363   2.390  11.503  0.0102 -0.3481 -0.0631
14395TIP3    H164600   6.307   2.316  11.480  0.5297 -1.3829  1.7953
14395TIP3    H264601   6.339   2.458  11.441 -0.5521 -2.0326 -1.8024
14396TIP3   OH264602   0.215   4.082  13.680  0.0610 -0.1024 -0.1101
14396TIP3    H164603   0.304   4.078  13.647 -0.7436 -0.2887 -2.3974
14396TIP3    H264604   0.207   4.170  13.718  0.7225  0.5429 -1.4145
14397TIP3   OH264605   5.251   5.250  11.106  0.2389 -0.6587 -0.2408
14397TIP3    H164606   5.200   5.322  11.143  0.1124 -0.4461 -0.8140
14397TIP3    H264607   5.300   5.290  11.034  0.1602 -1.1462 -0.5686
14398TIP3   OH264608   2.591   2.053   1.191  0.2588  0.5795 -0.2163
14398TIP3    H164609   2.607   2.120   1.257 -1.3892 -1.2251  2.2452
14398TIP3    H264610   2.660   1.988   1.207 -0.1621  0.1263 -0.2193
14399TIP3   OH264611   5.000   5.838   1.076 -0.1296 -0.1425  0.1870
14399TIP3    H164612   5.076   5.799   1.120 -1.2242 -1.3148  1.0869
14399TIP3    H264613   4.944   5.869   1.147 -1.9880 -2.1788 -0.3051
14400TIP3   OH264614   6.240   4.442   3.110 -0.1424  0.0284  0.1528
14400TIP3    H164615   6.173   4.391   3.065  0.2905  0.8284 -1.4706
14400TIP3    H264616   6.214   4.439   3.202  0.8623 -4.7128  0.5800
14401TIP3   OH264617   0.283   2.635  10.453 -0.9660  0.0006 -0.0041
14401TIP3    H164618   0.272   2.702  10.521 -0.9891  0.0853 -0.0923
14401TIP3    H264619   0.193   2.610  10.430 -0.9806  0.6348 -0.6688
14402TIP3   OH264620   3.458   5.068  16.744 -0.0186 -0.0487 -0.2397
14402TIP3    H164621   3.509   4.994  16.713 -2.3006 -1.0312 -2.0159
14402TIP3    H264622   3.479   5.138  16.682  0.4127  0.0787  0.0467
14403TIP3   OH264623   0.510   6.493   5.521  0.0848  0.0612 -0.2542
14403TIP3    H164624   0.586   6.437   5.506  0.5186  0.9964 -1.8410
14403TIP3    H264625   0.547   6.581   5.531 -0.7292  0.4058 -0.1792
14404TIP3   OH264626   0.415   4.694   5.321  0.6880  0.2776  0.4681
14404TIP3    H164627   0.362   4.636   5.376  1.9476 -1.6710 -0.2749
14404TIP3    H264628   0.501   4.696   5.363  1.1200  0.2993 -0.4001
14405TIP3   OH264629   1.592   3.595   3.395 -0.5672 -0.2169  0.0973
14405TIP3    H164630   1.643   3.664   3.438 -1.0091 -0.7425  1.5183
14405TIP3    H264631   1.501   3.624   3.403 -0.8099 -1.2208  1.2414
14406TIP3   OH264632   3.449   1.854  15.696 -0.5393  0.5279 -0.1211
14406TIP3    H164633   3.527   1.895  15.733 -1.4682  2.1734  0.0849
14406TIP3    H264634   3.380   1.921  15.703 -2.1887 -1.1358  0.4515
14407TIP3   OH264635   3.676   3.476   0.150  0.0218  0.1246  0.0309
14407TIP3    H164636   3.691   3.571   0.151  2.8353 -0.2307 -0.4406
14407TIP3    H264637   3.653   3.454   0.240 -1.7745  1.3237 -0.0663
14408TIP3   OH264638   6.057   4.927  16.993  0.3831  0.1093 -0.1510
14408TIP3    H164639   6.078   4.844  17.037 -2.4787 -1.3083 -1.2206
14408TIP3    H264640   6.081   4.912  16.902 -0.2268  0.4279 -0.3660
14409TIP3   OH264641   1.004   6.667   2.154 -0.4707  0.2188  0.5727
14409TIP3    H164642   1.055   6.592   2.124  1.0918  0.6234  2.0657
14409TIP3    H264643   0.919   6.658   2.110 -0.0634 -1.9828  0.1464
14410TIP3   OH264644   5.484   4.137  17.160 -0.3473  0.1501 -0.6052
14410TIP3    H164645   5.446   4.219  17.130  0.5655  0.2875 -1.3962
14410TIP3    H264646   5.535   4.160  17.237 -0.6284  0.2015 -0.4299
14411TIP3   OH264647   0.535   2.348   0.808 -0.4867  0.3200 -0.3732
14411TIP3    H164648   0.516   2.256   0.827 -4.2850  1.2420  1.0949
14411TIP3    H264649   0.468   2.375   0.746 -0.2437  2.3881  0.1756
14412TIP3   OH264650   2.413   1.231   4.674 -0.1730  0.3417 -0.2974
14412TIP3    H164651   2.396   1.325   4.668  1.7222  0.6927 -0.6743
14412TIP3    H264652   2.370   1.194   4.597 -2.5226  0.5951  0.8076
14413TIP3   OH264653   5.468   0.929  10.664  0.1692  0.0946 -0.3100
14413TIP3    H164654   5.452   1.011  10.617 -0.5212  1.2934  1.8489
14413TIP3    H264655   5.381   0.888  10.671  0.7118 -1.5876 -2.5881
14414TIP3   OH264656   0.875   0.481   5.200  0.4120 -0.1003 -0.1817
14414TIP3    H164657   0.914   0.565   5.224  1.9935 -0.3456 -1.7083
14414TIP3    H264658   0.784   0.502   5.178  0.1742  0.8239  1.4813
14415TIP3   OH264659   0.614   3.748   1.245  0.1187  0.1758 -0.4536
14415TIP3    H164660   0.522   3.755   1.271  0.4379  0.2344  0.6863
14415TIP3    H264661   0.611   3.705   1.159 -0.9195 -0.7582  0.0296
14416TIP3   OH264662   1.263   1.195  12.432 -0.4647 -0.4266 -0.0849
14416TIP3    H164663   1.222   1.245  12.503  1.2359 -0.2612  0.8604
14416TIP3    H264664   1.245   1.245  12.353  0.6264  1.4093  0.7453
14417TIP3   OH264665   1.909   6.066  13.330  0.1745 -0.0063  0.1450
14417TIP3    H164666   1.920   6.116  13.411 -1.6551  1.6828 -0.5763
14417TIP3    H264667   1.944   5.979  13.351  0.6804  0.6745  2.4139
14418TIP3   OH264668   5.111   6.122   1.017  0.2461 -0.1433  0.3230
14418TIP3    H164669   5.076   6.035   0.997 -0.5112  0.4332 -0.9189
14418TIP3    H264670   5.175   6.139   0.948 -1.1173  1.1282 -0.6908
14419TIP3   OH264671   4.244   2.343  12.035 -0.1950 -0.0640 -0.5738
14419TIP3    H164672   4.315   2.345  12.099 -0.3239 -0.6371 -0.4126
14419TIP3    H264673   4.166   2.318  12.085 -0.2852 -0.5773 -0.9673
14420TIP3   OH264674   5.249   4.523   2.371  0.1281  0.3358 -0.3282
14420TIP3    H164675   5.297   4.527   2.454  0.0321  3.6009 -0.2993
14420TIP3    H264676   5.158   4.538   2.395  0.0821  1.1919 -0.9962
14421TIP3   OH264677   2.077   3.630   5.571  0.3744  0.2050 -0.2649
14421TIP3    H164678   2.165   3.629   5.533  0.4309 -1.8943 -0.1999
14421TIP3    H264679   2.070   3.547   5.618 -2.0685 -0.3075 -1.3261
14422TIP3   OH264680   5.095   0.519  16.775 -0.3322 -0.3194 -0.4319
14422TIP3    H164681   5.147   0.468  16.837 -1.1439 -2.3891 -1.3849
14422TIP3    H264682   5.005   0.491  16.790 -0.5460 -0.9193 -2.5421
14423TIP3   OH264683   5.822   4.002   0.226 -0.0831  0.3517  0.4318
14423TIP3    H164684   5.863   3.917   0.207  0.6944  0.4987  1.3932
14423TIP3    H264685   5.894   4.064   0.225 -0.4195  0.7654  1.2169
14424TIP3   OH264686   6.153   3.879  14.477 -0.1318 -0.0267 -0.5560
14424TIP3    H164687   6.094   3.835  14.416 -0.0447 -1.7344  0.5116
14424TIP3    H264688   6.098   3.941  14.524 -0.9556 -1.1222 -0.0432
14425TIP3   OH264689   4.772   5.306  14.019  0.0188 -0.0882 -0.2622
14425TIP3    H164690   4.834   5.286  13.949 -0.2604  1.0907 -0.8785
14425TIP3    H264691   4.798   5.392  14.050 -0.0944 -0.4407  0.8387
14426TIP3   OH264692   3.143   3.878  16.397  0.0420  0.4166 -0.1001
14426TIP3    H164693   3.223   3.917  16.361 -0.1442  1.9286  1.0151
14426TIP3    H264694   3.093   3.850  16.320  0.9633  0.8351 -0.8671
14427TIP3   OH264695   2.441   2.252   3.658 -0.4389  0.1992  0.4905
14427TIP3    H164696   2.455   2.158   3.661 -0.3156  0.1250 -1.1847
14427TIP3    H264697   2.505   2.289   3.718  0.0457 -0.7473  0.5638
14428TIP3   OH264698   5.002   6.558   6.147  0.5113 -0.3222 -0.0228
14428TIP3    H164699   5.025   6.616   6.074  0.8450  0.9369  1.0422
14428TIP3    H264700   4.930   6.603   6.191  0.9807 -0.5722  1.0156
14429TIP3   OH264701   1.462   0.889   3.842 -1.0686 -0.6695 -0.2465
14429TIP3    H164702   1.406   0.820   3.806 -3.7768  0.5993  1.2075
14429TIP3    H264703   1.461   0.873   3.937 -0.5655  0.5228 -0.0238
14430TIP3   OH264704   5.720   6.783   5.758  0.6328  0.7110  0.0479
14430TIP3    H164705   5.715   6.707   5.700 -1.7783  1.1123 -0.3980
14430TIP3    H264706   5.744   6.855   5.701 -2.4882  1.2548 -0.7612
14431TIP3   OH264707   2.670   2.207  12.334  0.9344 -0.6296 -0.3010
14431TIP3    H164708   2.613   2.132  12.347 -0.4936  0.1516 -1.6922
14431TIP3    H264709   2.712   2.191  12.249  0.5195  0.1803 -0.6694
14432TIP3   OH264710   5.374   2.685  14.329 -0.0879  0.2045 -0.3818
14432TIP3    H164711   5.393   2.700  14.421  0.8516  1.6110 -0.7527
14432TIP3    H264712   5.460   2.681  14.287 -0.4803 -0.9894 -1.1344
14433TIP3   OH264713   3.994   4.190  14.895 -0.1898 -0.4972 -0.5371
14433TIP3    H164714   4.079   4.193  14.940  0.8931 -0.5075 -2.4681
14433TIP3    H264715   3.997   4.262  14.833 -1.9619 -0.0154 -0.1253
14434TIP3   OH264716   0.600   3.313  15.547  0.8506 -0.6766  0.5277
14434TIP3    H164717   0.528   3.273  15.497  0.3380 -0.1346  0.8093
14434TIP3    H264718   0.640   3.375  15.486  1.1213 -1.0241  0.3502
14435TIP3   OH264719   6.337   1.526  15.820 -0.0122  0.0590 -0.6537
14435TIP3    H164720   6.348   1.605  15.872 -0.6306 -0.5639  0.4600
14435TIP3    H264721   6.330   1.455  15.884  2.2277 -1.1530 -1.6483
14436TIP3   OH264722   0.233   2.709   5.683  0.0347  0.4057  0.4447
14436TIP3    H164723   0.230   2.795   5.641  0.7092 -0.5968 -1.8116
14436TIP3    H264724   0.141   2.683   5.690 -0.1546  1.1446  0.8147
14437TIP3   OH264725   2.945   1.340  11.577 -0.1778  0.3732  0.0197
14437TIP3    H164726   2.995   1.350  11.496  0.8415  0.6157  0.6503
14437TIP3    H264727   2.930   1.430  11.607 -1.9710  0.3526 -0.7060
14438TIP3   OH264728   1.798   3.666  16.437  0.0994  0.3595  0.5065
14438TIP3    H164729   1.846   3.610  16.497  0.3249  0.0131  0.0071
14438TIP3    H264730   1.707   3.660  16.467  0.1879  0.0806  0.7242
14439TIP3   OH264731   2.394   4.642  16.597 -0.4029 -0.1063  0.2899
14439TIP3    H164732   2.380   4.695  16.519 -2.3028 -0.2787  0.4718
14439TIP3    H264733   2.489   4.627  16.599 -0.2324  0.4524 -1.5886
14440TIP3   OH264734   5.383   0.161  17.177 -0.1341  0.0238 -0.4346
14440TIP3    H164735   5.458   0.160  17.238 -1.4408  1.8962  1.3453
14440TIP3    H264736   5.423   0.168  17.090  1.7707 -0.3602  0.3505
14441TIP3   OH264737   5.252   4.249   1.144 -0.3657  0.1006  0.0291
14441TIP3    H164738   5.166   4.235   1.103 -0.0517  0.2878 -0.6927
14441TIP3    H264739   5.282   4.160   1.164 -1.6424  0.0892  2.2371
14442TIP3   OH264740   0.121   4.346  15.160  0.0981 -0.1304 -0.4493
14442TIP3    H164741   0.130   4.441  15.170 -0.0244 -0.1238 -0.3996
14442TIP3    H264742   0.069   4.334  15.080  0.1483 -0.1568 -0.4783
14443TIP3   OH264743   4.012   5.068  14.672 -0.2445  0.0459  0.2472
14443TIP3    H164744   3.942   5.129  14.646 -0.4843 -0.7567 -1.1018
14443TIP3    H264745   3.968   5.005  14.729 -0.7800 -0.7519 -1.0021
14444TIP3   OH264746   5.977   4.726   1.250 -0.1146 -0.1457 -0.1719
14444TIP3    H164747   6.007   4.651   1.199  0.7472 -0.7236  1.1382
14444TIP3    H264748   6.038   4.796   1.228 -1.8701  0.7351 -2.6464
14445TIP3   OH264749   2.651   4.708   3.089  0.1669  0.3996  0.5492
14445TIP3    H164750   2.733   4.691   3.135  1.3562 -0.0532 -1.6300
14445TIP3    H264751   2.594   4.634   3.111 -0.2550  1.3712  3.1596
14446TIP3   OH264752   5.308   0.741   3.007 -0.1134  0.2354 -0.0031
14446TIP3    H164753   5.392   0.695   2.999 -0.4559 -0.4151  0.1209
14446TIP3    H264754   5.327   0.830   2.977  0.3076 -0.2717 -1.3317
14447TIP3   OH264755   6.721   4.653  16.838  0.4950 -0.2825 -0.5494
14447TIP3    H164756   6.772   4.622  16.763 -0.4068  0.3764 -1.4640
14447TIP3    H264757   6.644   4.596  16.839  0.1438  0.1925 -0.5785
14448TIP3   OH264758   5.311   5.080  17.150 -0.1523  0.0505 -0.5508
14448TIP3    H164759   5.238   5.140  17.166 -0.9430 -0.9462 -0.3721
14448TIP3    H264760   5.374   5.101  17.220 -0.7949  0.0856  0.0288
14449TIP3   OH264761   0.064   5.710  12.320 -0.0199  0.4495 -0.1532
14449TIP3    H164762   0.152   5.725  12.353  0.4113  0.2919 -1.1910
14449TIP3    H264763   0.011   5.779  12.360  0.6614  0.7982  0.1566
14450TIP3   OH264764   5.554   1.816   1.393  0.1830 -0.1596 -0.2685
14450TIP3    H164765   5.521   1.730   1.368 -1.0778 -0.4590  2.1109
14450TIP3    H264766   5.485   1.877   1.368 -0.6112 -0.3418  1.3049
14451TIP3   OH264767   4.222   5.860  16.408  0.4124 -0.1179  0.6897
14451TIP3    H164768   4.307   5.833  16.374 -0.0164 -0.2811 -0.2990
14451TIP3    H264769   4.160   5.796  16.373 -0.7764  2.4775 -2.5098
14452TIP3   OH264770   5.077   4.085  14.332  0.6877 -0.1896  0.8267
14452TIP3    H164771   5.096   4.154  14.396  1.5535 -0.7581  1.1973
14452TIP3    H264772   5.113   4.119  14.250 -0.4523  0.5553  0.6205
14453TIP3   OH264773   5.610   4.280  11.206  0.4219  0.0903  0.5104
14453TIP3    H164774   5.558   4.294  11.126  0.0019 -1.8437  0.4050
14453TIP3    H264775   5.553   4.309  11.277  0.4980  1.0900  0.1779
14454TIP3   OH264776   0.326   2.621  12.271 -0.2405  0.3874  0.0071
14454TIP3    H164777   0.257   2.672  12.228 -2.3349  2.1106  4.6857
14454TIP3    H264778   0.397   2.683  12.285  0.8984 -0.4528 -1.7006
14455TIP3   OH264779   4.215   3.778  13.896 -0.0315  0.4360 -0.5752
14455TIP3    H164780   4.185   3.755  13.808  1.0008 -1.2557 -0.5197
14455TIP3    H264781   4.246   3.696  13.933  3.5911  1.7829 -0.2268
14456TIP3   OH264782   3.176   1.225  16.299 -0.0960 -0.1860  0.1626
14456TIP3    H164783   3.119   1.278  16.354 -0.0089 -1.1473  1.2214
14456TIP3    H264784   3.208   1.285  16.232  0.7978  1.3609  1.8902
14457TIP3   OH264785   4.871   6.632  12.432 -0.4333  0.5355  0.4549
14457TIP3    H164786   4.820   6.591  12.502  1.1848  0.1704  1.4835
14457TIP3    H264787   4.851   6.580  12.355  1.8407 -2.6853  1.7789
14458TIP3   OH264788   0.956   6.771  17.135  0.1378  0.2200 -0.3232
14458TIP3    H164789   1.003   6.823  17.071  1.5989  0.3074  0.7597
14458TIP3    H264790   1.024   6.718  17.178 -0.9280 -0.5842  0.4440
14459TIP3   OH264791   4.017   4.390  16.389  0.0149 -0.0832  0.4129
14459TIP3    H164792   4.041   4.340  16.311 -1.7863  0.1035 -0.3144
14459TIP3    H264793   4.064   4.472  16.380 -0.1318 -0.0831 -0.4707
14460TIP3   OH264794   5.698   5.260   0.317  0.6954 -1.0398 -0.0514
14460TIP3    H164795   5.695   5.303   0.231 -1.1316 -0.9665  0.0191
14460TIP3    H264796   5.791   5.263   0.341  1.2637 -1.0588 -2.0088
14461TIP3   OH264797   1.644   2.603   2.558  0.2427  0.0990 -0.7134
14461TIP3    H164798   1.701   2.639   2.627 -1.9029  2.0418  0.1860
14461TIP3    H264799   1.586   2.542   2.604 -0.1213  0.1316 -1.1214
14462TIP3   OH264800   4.466   5.484  15.733 -0.2018 -0.2065  0.2401
14462TIP3    H164801   4.404   5.414  15.716  0.1281 -0.4972  0.2388
14462TIP3    H264802   4.464   5.538  15.654  0.5311 -0.9543 -0.3007
14463TIP3   OH264803   2.423   4.413  13.000  0.1268  0.3864 -0.3700
14463TIP3    H164804   2.475   4.437  12.923  0.9940  0.1532  0.1278
14463TIP3    H264805   2.420   4.493  13.052  1.1592  0.0519  0.2427
14464TIP3   OH264806   6.275   4.825  16.032 -0.2191 -0.0506  0.1882
14464TIP3    H164807   6.357   4.819  15.982 -0.1988 -1.5149  0.3384
14464TIP3    H264808   6.214   4.868  15.972  0.7500  1.4944  0.2419
14465TIP3   OH264809   0.020   4.074  17.067 -0.3913 -0.2762  0.4631
14465TIP3    H164810   0.003   4.008  17.000  0.3495 -0.8489  0.8202
14465TIP3    H264811  -0.007   4.157  17.027 -0.6485 -0.7051 -0.2642
14466TIP3   OH264812   0.902   5.952  17.059 -0.1028 -0.3534 -0.4421
14466TIP3    H164813   0.899   5.860  17.085 -0.8360 -0.2657 -0.1885
14466TIP3    H264814   0.836   5.994  17.113  1.9811  0.8279  1.3097
14467TIP3   OH264815   2.839   6.097   4.648 -0.0104 -0.3214  0.1545
14467TIP3    H164816   2.795   6.142   4.576 -0.3780  0.2195  0.7095
14467TIP3    H264817   2.858   6.166   4.711  0.6200 -0.7349  0.4255
14468TIP3   OH264818   1.582   0.151   2.781  0.0676 -0.0770 -0.5028
14468TIP3    H164819   1.548   0.099   2.853 -0.2314 -2.2412 -2.1147
14468TIP3    H264820   1.674   0.167   2.804 -0.2485  0.0218  0.7399
14469TIP3   OH264821   3.232   5.788   3.161 -0.4106  0.5848  0.3077
14469TIP3    H164822   3.174   5.716   3.137 -0.5343  0.2326  1.5859
14469TIP3    H264823   3.230   5.790   3.257  2.4451 -0.0938  0.4686
14470TIP3   OH264824   3.885   4.901   2.854 -0.2034  0.1387  0.0559
14470TIP3    H164825   3.894   4.995   2.841 -1.8452  0.4065  0.6464
14470TIP3    H264826   3.837   4.871   2.777 -1.2420  0.0926  0.7113
14471TIP3   OH264827   1.116   1.929  16.379  0.1541 -0.0854  0.2790
14471TIP3    H164828   1.193   1.872  16.382  0.9867  1.0309  1.0867
14471TIP3    H264829   1.134   1.996  16.445 -1.6567  0.0387  0.7001
14472TIP3   OH264830   2.797   2.849   2.955  0.4463 -0.2726  0.0088
14472TIP3    H164831   2.878   2.892   2.931 -0.7649  1.5454 -1.0348
14472TIP3    H264832   2.800   2.765   2.909  0.7081  0.7699 -1.9847
14473TIP3   OH264833   5.749   2.873   2.641  0.0605 -0.0579 -0.3392
14473TIP3    H164834   5.743   2.968   2.653 -0.6722  0.1724 -2.1019
14473TIP3    H264835   5.677   2.838   2.693 -1.4308  0.6360 -1.8335
14474TIP3   OH264836   3.001   3.567   2.596  0.2189  0.1165 -0.1369
14474TIP3    H164837   3.017   3.599   2.507  0.2018 -0.3946 -0.3263
14474TIP3    H264838   2.996   3.472   2.587 -1.8450  0.1491  0.0668
14475TIP3   OH264839   0.026   5.132  13.130  0.5375  0.0242  0.4523
14475TIP3    H164840  -0.066   5.157  13.140 -0.1738 -2.7305  2.0814
14475TIP3    H264841   0.027   5.079  13.050  0.5542 -0.3851  0.7171
14476TIP3   OH264842   1.713   4.446  17.204 -1.0402  0.6437  0.2478
14476TIP3    H164843   1.633   4.499  17.204 -1.0336  0.6861  1.6254
14476TIP3    H264844   1.712   4.401  17.288 -1.4041 -2.1155 -1.1363
14477TIP3   OH264845   4.221   1.331  12.021 -0.4040 -0.3591  0.4364
14477TIP3    H164846   4.305   1.353  12.061  0.4589 -4.2613  1.1317
14477TIP3    H264847   4.161   1.319  12.095 -1.1736  0.6797  0.0183
14478TIP3   OH264848   4.752   2.629  14.863 -0.3688 -0.0757 -0.0341
14478TIP3    H164849   4.817   2.603  14.798  0.1828  0.4457  0.2975
14478TIP3    H264850   4.795   2.699  14.913 -0.4604 -0.9918  1.4037
14479TIP3   OH264851   5.209   0.054   0.420  0.2509  0.2979  1.0908
14479TIP3    H164852   5.202   0.071   0.514 -1.4296  2.0265  0.7245
14479TIP3    H264853   5.282   0.110   0.391 -0.1871  0.9221  1.1595
14480TIP3   OH264854   6.605   0.626  17.175  0.3594  0.0578  0.0095
14480TIP3    H164855   6.673   0.576  17.131  0.7363  1.1438 -0.6920
14480TIP3    H264856   6.530   0.620  17.116  0.4295  0.3735 -0.1131
14481TIP3   OH264857   1.235   3.240  13.541 -0.1091 -0.2508 -0.0501
14481TIP3    H164858   1.257   3.202  13.627 -0.6715 -0.5665 -0.0423
14481TIP3    H264859   1.228   3.334  13.558  2.5150  0.0620 -0.3169
14482TIP3   OH264860   1.014   2.088  16.139  0.2198  0.2615  0.0939
14482TIP3    H164861   0.957   2.030  16.088 -1.0965  2.0980 -0.6379
14482TIP3    H264862   0.976   2.087  16.227  1.0500 -1.0251  0.4706
14483TIP3   OH264863   3.035   6.711  17.183  0.2059  0.3844  0.2278
14483TIP3    H164864   3.039   6.709  17.087  1.9940  0.8681  0.2542
14483TIP3    H264865   2.942   6.709  17.203 -0.2066 -2.3484 -1.4499
14484TIP3   OH264866   1.837   2.422   1.921  0.5749  0.3363 -0.1503
14484TIP3    H164867   1.863   2.370   1.845 -1.4283  0.9993 -1.4003
14484TIP3    H264868   1.742   2.435   1.909  0.2730  0.8386  2.2535
14485TIP3   OH264869   0.158   3.209   0.572  0.0901 -0.3432  0.0099
14485TIP3    H164870   0.161   3.299   0.540 -0.3541 -0.8064 -1.4045
14485TIP3    H264871   0.237   3.200   0.626  1.2983  0.2643 -1.5820
14486TIP3   OH264872   1.391   2.053  12.666 -0.6946 -0.1701  0.3510
14486TIP3    H164873   1.459   2.085  12.724 -0.2352 -2.0197  0.8975
14486TIP3    H264874   1.398   2.109  12.588 -0.0273  1.0722  1.2693
14487TIP3   OH264875   0.150   4.757   2.160 -0.1735  0.4210  0.5407
14487TIP3    H164876   0.137   4.845   2.125 -1.9963 -0.0634 -0.0987
14487TIP3    H264877   0.198   4.771   2.242  1.0295  1.8459 -0.3586
14488TIP3   OH264878   5.350   4.459  11.912  0.2667 -0.3850 -0.0060
14488TIP3    H164879   5.324   4.547  11.886 -0.6508 -0.2338  1.2857
14488TIP3    H264880   5.359   4.411  11.830  1.3513  1.0392 -0.7643
14489TIP3   OH264881   6.768   1.685  12.902  0.4311 -0.2763  0.5730
14489TIP3    H164882   6.820   1.764  12.916  0.0908 -0.0472  0.5673
14489TIP3    H264883   6.679   1.711  12.925  0.1931 -0.4560 -0.1204
14490TIP3   OH264884   0.294   3.813   3.333 -0.0314  0.5007 -0.4123
14490TIP3    H164885   0.209   3.810   3.378 -0.1818  1.0277 -0.6451
14490TIP3    H264886   0.350   3.864   3.392  0.2452 -0.1866 -0.0704
14491TIP3   OH264887   3.964   1.060  16.379 -0.1515 -0.6892 -0.2051
14491TIP3    H164888   3.959   0.999  16.453 -0.8918 -1.3920 -0.8133
14491TIP3    H264889   4.058   1.072  16.365  0.0578  1.1194  2.1521
14492TIP3   OH264890   1.183   1.407  12.205  0.3702  0.1086  0.5914
14492TIP3    H164891   1.159   1.496  12.180 -1.3336  0.1870  2.2775
14492TIP3    H264892   1.116   1.351  12.165  1.4478 -0.4506 -0.4880
14493TIP3   OH264893   3.149   2.274   3.970 -0.1194  0.5843  0.8819
14493TIP3    H164894   3.176   2.346   3.913 -0.1907  1.7890  2.2879
14493TIP3    H264895   3.077   2.232   3.924  0.2348  1.1181 -0.1901
14494TIP3   OH264896   6.213   1.445  11.823  0.7109  0.0981  0.2882
14494TIP3    H164897   6.179   1.533  11.838  1.3830  0.1669  1.4645
14494TIP3    H264898   6.204   1.401  11.907  2.4791 -0.2449  0.3273
14495TIP3   OH264899   1.584   6.576  15.172 -0.2155  0.1177 -0.1212
14495TIP3    H164900   1.651   6.538  15.115 -0.9490  0.0344 -0.9523
14495TIP3    H264901   1.502   6.536  15.142 -0.7139  0.6492  0.5038
14496TIP3   OH264902   3.994   3.974  11.848  0.2916 -0.2988  0.5378
14496TIP3    H164903   3.956   3.924  11.919 -1.1306 -1.2842 -0.8466
14496TIP3    H264904   4.081   3.935  11.835  0.5519 -0.1270  1.6762
14497TIP3   OH264905   0.418   1.955  14.591  0.4437  0.0083 -0.0383
14497TIP3    H164906   0.444   1.910  14.511 -1.4279  1.5274 -1.5793
14497TIP3    H264907   0.485   1.930  14.655  0.4187 -3.5721 -1.2125
14498TIP3   OH264908   1.274   4.757  14.448  0.0635 -0.0847  0.4927
14498TIP3    H164909   1.318   4.826  14.498  0.6873 -0.1403  0.0305
14498TIP3    H264910   1.293   4.777  14.357 -1.5847  0.3638  0.2180
14499TIP3   OH264911   0.235   5.171  12.770 -0.2761  0.8180 -0.2343
14499TIP3    H164912   0.150   5.174  12.728 -1.0354 -0.5811  1.1013
14499TIP3    H264913   0.296   5.148  12.700 -1.5235 -1.7499 -0.5957
14500TIP3   OH264914   0.431   4.155   4.536 -0.2421  0.1343  0.2736
14500TIP3    H164915   0.418   4.071   4.579 -0.9067 -0.2135 -0.6001
14500TIP3    H264916   0.479   4.134   4.456 -0.9869  0.5028 -0.2748
14501TIP3   OH264917   3.103   6.674  16.503 -0.0939  0.2388 -0.4605
14501TIP3    H164918   3.089   6.580  16.506  0.3936  0.1490 -0.8345
14501TIP3    H264919   3.163   6.691  16.576 -1.5415  0.5269  0.7186
14502TIP3   OH264920   1.822   1.209   4.821  0.7149  0.4914  0.7442
14502TIP3    H164921   1.754   1.211   4.888  0.9890  0.2932  1.0311
14502TIP3    H264922   1.774   1.216   4.738  0.5071  3.4420  0.9923
14503TIP3   OH264923   3.658   4.540  15.763 -0.2030  0.2377  0.2582
14503TIP3    H164924   3.563   4.556  15.759 -0.2556 -0.3023 -1.2925
14503TIP3    H264925   3.693   4.617  15.808 -1.1637  1.3821 -0.8773
14504TIP3   OH264926   5.343   0.140   3.369 -0.7319  0.0343 -0.1955
14504TIP3    H164927   5.384   0.200   3.307 -0.6412  0.0016 -0.1673
14504TIP3    H264928   5.252   0.169   3.374 -0.5398  0.5481  0.2922
14505TIP3   OH264929   2.824   2.633  11.785  0.4595  0.1376  0.1135
14505TIP3    H164930   2.892   2.607  11.848  0.0615  1.2336  1.0330
14505TIP3    H264931   2.836   2.727  11.774 -1.5591  0.5692  1.1452
14506TIP3   OH264932   2.029   2.872   4.307  0.0929  0.1393  0.6039
14506TIP3    H164933   2.080   2.949   4.280  0.4025 -0.2528  0.0618
14506TIP3    H264934   1.955   2.870   4.246  1.0987 -1.0777 -0.6099
14507TIP3   OH264935   2.445   1.587  14.061  0.1391  0.0810 -0.3948
14507TIP3    H164936   2.377   1.623  14.005 -1.1358  0.1235  1.1108
14507TIP3    H264937   2.509   1.550  14.000 -2.3593 -2.1051 -1.9106
14508TIP3   OH264938   0.357   6.386  11.162 -0.5785 -0.3656  0.4621
14508TIP3    H164939   0.359   6.301  11.206 -1.6934  0.2006  1.6805
14508TIP3    H264940   0.273   6.388  11.117 -1.1287  0.5511  1.4743
14509TIP3   OH264941   0.525   2.106  12.778 -0.0838  0.2062  0.1354
14509TIP3    H164942   0.513   2.098  12.683 -1.0778 -2.4794  0.3823
14509TIP3    H264943   0.567   2.024  12.803 -3.5439 -1.1128  2.4489
14510TIP3   OH264944   2.854   5.147   2.133 -0.1451 -0.4923 -0.6943
14510TIP3    H164945   2.766   5.139   2.096 -0.2491 -1.9586 -0.1895
14510TIP3    H264946   2.911   5.105   2.067  0.3918  1.6112 -1.6528
14511TIP3   OH264947   5.993   5.272   4.028 -0.0899  0.1550 -0.3021
14511TIP3    H164948   6.073   5.268   4.081 -0.3569 -0.3612  0.0709
14511TIP3    H264949   6.015   5.331   3.956  0.8506 -0.5144 -0.5762
14512TIP3   OH264950   0.784   5.838  16.284  0.0305 -0.3593 -0.1144
14512TIP3    H164951   0.855   5.861  16.224 -0.0310 -1.8301 -0.7892
14512TIP3    H264952   0.802   5.888  16.363  1.6641 -0.4889 -0.3770
14513TIP3   OH264953   6.584   2.105  17.007  0.1733  0.3839  0.2099
14513TIP3    H164954   6.678   2.087  16.999  0.2406 -0.6177  2.4222
14513TIP3    H264955   6.567   2.099  17.101 -2.1833  0.1553 -0.1819
14514TIP3   OH264956   5.325   0.855   4.072 -0.0634 -0.1544 -0.6022
14514TIP3    H164957   5.303   0.763   4.059  1.4754 -1.0008  1.9991
14514TIP3    H264958   5.244   0.894   4.105 -0.2857 -1.0034 -0.1013
14515TIP3   OH264959   2.673   0.585   1.793 -0.2733 -0.1701  0.1997
14515TIP3    H164960   2.590   0.543   1.770 -0.9647  0.6697  1.1091
14515TIP3    H264961   2.667   0.602   1.887  0.1384  1.5892 -0.0573
14516TIP3   OH264962   1.069   1.970  14.094  0.0517  1.0293 -0.2510
14516TIP3    H164963   0.982   1.934  14.079  0.0726  0.7083  0.3646
14516TIP3    H264964   1.083   2.031  14.022 -0.2165  0.2168 -1.0139
14517TIP3   OH264965   4.351   3.251   1.444  0.3562 -0.2637 -0.5597
14517TIP3    H164966   4.286   3.189   1.410  1.5743 -2.1327  0.3518
14517TIP3    H264967   4.403   3.200   1.505  0.4717  2.0796  1.4719
14518TIP3   OH264968   1.781   4.328  12.277 -0.8669  0.2476  0.0994
14518TIP3    H164969   1.723   4.403  12.271 -2.0763 -0.6483  0.2734
14518TIP3    H264970   1.830   4.342  12.358 -1.6034  0.4897  0.5131
14519TIP3   OH264971   0.123   4.372   4.899  0.0585 -0.3407 -0.1073
14519TIP3    H164972   0.176   4.449   4.879  1.2229 -1.0850 -0.0132
14519TIP3    H264973   0.156   4.304   4.840 -1.3488 -0.6291 -0.6094
14520TIP3   OH264974   4.944   6.470   2.138  0.4385  0.0493  0.3438
14520TIP3    H164975   5.031   6.475   2.099  0.3646  0.1141  0.1885
14520TIP3    H264976   4.943   6.542   2.202 -0.1344  1.2127 -0.9274
14521TIP3   OH264977   5.980   4.249   4.742  0.4689 -0.2441  0.3257
14521TIP3    H164978   5.920   4.323   4.750 -1.1491 -1.5146  0.5620
14521TIP3    H264979   6.039   4.259   4.817 -0.6142  0.0633  1.1827
14522TIP3   OH264980   5.559   3.525  12.627  0.1264 -0.1658  0.5400
14522TIP3    H164981   5.626   3.539  12.693  0.1696  1.4071  0.2060
14522TIP3    H264982   5.509   3.607  12.626 -1.3873 -1.0612  0.3215
14523TIP3   OH264983   0.694   1.270   2.274 -0.1576  0.0795 -0.0145
14523TIP3    H164984   0.634   1.259   2.200 -2.3039 -2.3539  1.8396
14523TIP3    H264985   0.682   1.189   2.326  0.4422  2.0053  3.4585
14524TIP3   OH264986   5.333   6.572  12.627 -0.1640 -0.0062 -0.5089
14524TIP3    H164987   5.402   6.627  12.664  1.0317 -2.0923  0.5156
14524TIP3    H264988   5.257   6.589  12.683 -0.0481  1.1437 -0.6773
14525TIP3   OH264989   0.030   4.165  12.158  0.5456  0.5774 -0.1319
14525TIP3    H164990  -0.064   4.162  12.174  0.6446  0.1821  0.4198
14525TIP3    H264991   0.044   4.105  12.084  0.7090 -1.7301  1.6556
14526TIP3   OH264992   0.379   3.751  14.989 -0.0994 -0.1480 -0.2393
14526TIP3    H164993   0.427   3.725  14.910  1.2755  1.1240  0.1438
14526TIP3    H264994   0.407   3.840  15.007 -0.6046 -0.2955  1.5272
14527TIP3   OH264995   4.366   4.499  13.443 -0.3102 -0.3164 -0.6582
14527TIP3    H164996   4.359   4.593  13.422  0.0065 -0.1075  0.1320
14527TIP3    H264997   4.275   4.469  13.446 -0.4155 -0.0268 -0.9115
14528TIP3   OH264998   6.067   3.369   0.495 -0.1452  0.1536  0.0340
14528TIP3    H164999   6.004   3.300   0.518  0.2972  0.0014  0.8367
14528TIP3    H265000   6.075   3.421   0.575 -0.0033  0.7734 -0.3790
14529TIP3   OH265001   3.685   6.030   5.633  0.1712  0.5093 -0.2667
14529TIP3    H165002   3.621   6.035   5.704  0.0944  0.4264 -0.3304
14529TIP3    H265003   3.633   6.017   5.554  0.2356  0.9635 -0.3874
14530TIP3   OH265004   5.473   1.923  15.295  0.2921  0.1116 -0.1519
14530TIP3    H165005   5.483   1.924  15.200 -0.6261 -0.0215 -0.2596
14530TIP3    H265006   5.413   1.851  15.313  0.0284  0.4681  0.4791
14531TIP3   OH265007   5.242   0.993  12.318  0.6175  1.1165 -0.2390
14531TIP3    H165008   5.236   1.034  12.232 -0.5395  0.5239 -0.4616
14531TIP3    H265009   5.221   1.063  12.380  2.2744  1.7578 -0.3634
14532TIP3   OH265010   2.806   6.380   3.670  0.4742  0.2001  0.1808
14532TIP3    H165011   2.713   6.397   3.687  0.1499 -1.4557  0.1761
14532TIP3    H265012   2.815   6.392   3.575  0.2114  0.0975  0.1416
14533TIP3   OH265013   5.689   4.737   3.873 -0.3963  0.1719  0.0068
14533TIP3    H165014   5.719   4.686   3.798 -1.7381 -0.1740 -0.3292
14533TIP3    H265015   5.763   4.738   3.933  0.1822 -0.8382 -0.6640
14534TIP3   OH265016   0.217   2.677  15.009 -0.2507  0.3473  0.3230
14534TIP3    H165017   0.231   2.652  15.100  1.3894 -2.1506 -0.5175
14534TIP3    H265018   0.166   2.605  14.972 -0.5969  1.1494 -0.8204
14535TIP3   OH265019   0.423   3.991  14.757 -0.5788 -0.1610 -0.6545
14535TIP3    H165020   0.475   3.980  14.837  0.5373  0.0269 -1.3269
14535TIP3    H265021   0.478   3.954  14.688 -1.2775  0.2053 -1.4219
14536TIP3   OH265022   3.300   0.338  11.520 -0.4571  0.1119 -0.0041
14536TIP3    H165023   3.204   0.336  11.516 -0.4213  0.2565 -1.6787
14536TIP3    H265024   3.326   0.249  11.497 -0.1804  0.4731 -1.1517
14537TIP3   OH265025   4.606   0.997  15.633  0.6144  0.1635 -0.1885
14537TIP3    H165026   4.696   1.020  15.658  0.3181 -1.9016  3.3665
14537TIP3    H265027   4.616   0.921  15.575  1.2371 -1.8919  2.4484
14538TIP3   OH265028   0.968   1.667  15.390 -0.1465  0.0175  0.3192
14538TIP3    H165029   0.945   1.712  15.472 -0.1183 -0.3648  0.5400
14538TIP3    H265030   0.897   1.690  15.330  0.2719  0.9973  0.1830
14539TIP3   OH265031   2.620   5.800   3.572 -0.0187 -0.0695  0.3793
14539TIP3    H165032   2.600   5.752   3.653 -1.0996 -0.1684  0.0732
14539TIP3    H265033   2.659   5.734   3.514  0.7762  0.0060  0.8156
14540TIP3   OH265034   4.288   3.797   2.605 -0.6076  0.6363 -0.7131
14540TIP3    H165035   4.374   3.840   2.597  0.3556 -0.9022  0.7421
14540TIP3    H265036   4.250   3.833   2.684 -0.4686 -0.0339 -0.3339
14541TIP3   OH265037   4.083   0.821  11.767  0.2252  0.1063 -0.1763
14541TIP3    H165038   4.138   0.850  11.841  1.3639 -0.1643 -0.8953
14541TIP3    H265039   4.117   0.735  11.744 -1.1886 -0.5251  0.0097
14542TIP3   OH265040   5.662   2.798   0.145 -0.6275  0.1814 -0.4209
14542TIP3    H165041   5.660   2.731   0.076 -0.4107  0.3149 -0.5588
14542TIP3    H265042   5.742   2.779   0.194 -0.3769  0.5569 -0.6800
14543TIP3   OH265043   3.386   5.768  11.191 -0.1958 -0.7209 -0.0873
14543TIP3    H165044   3.457   5.705  11.179 -1.4360 -2.1685 -0.0670
14543TIP3    H265045   3.315   5.735  11.137 -1.3711 -0.1153  1.0415
14544TIP3   OH265046   3.532   6.615   3.328  0.0419  0.5444  0.3293
14544TIP3    H165047   3.577   6.554   3.269 -1.9150 -0.6727 -0.0196
14544TIP3    H265048   3.480   6.558   3.385 -0.7728  1.8497  0.9209
14545TIP3   OH265049   3.712   5.204  11.000 -0.0089  0.6930  0.1647
14545TIP3    H165050   3.764   5.123  11.006  0.4686  1.0399  1.0015
14545TIP3    H265051   3.622   5.174  10.991  0.0579  0.0388  1.3729
14546TIP3   OH265052   3.672   0.905   2.771 -0.3939 -0.1453 -0.5476
14546TIP3    H165053   3.650   0.943   2.856 -3.6700 -1.9669 -0.3783
14546TIP3    H265054   3.645   0.971   2.708  0.2562  0.4490 -0.2172
14547TIP3   OH265055   5.078   0.841  14.712 -0.4369 -0.5852 -0.4001
14547TIP3    H165056   5.031   0.865  14.793 -2.0734 -1.8961 -0.9072
14547TIP3    H265057   5.024   0.772  14.673  1.0443 -0.9220 -1.9361
14548TIP3   OH265058   5.119   6.612   0.642  0.7645  0.0155  0.3915
14548TIP3    H165059   5.197   6.556   0.638  0.2184 -0.7665  0.3757
14548TIP3    H265060   5.070   6.590   0.563  0.0765 -0.1923  0.8689
14549TIP3   OH265061   4.841   4.609   2.933 -0.3356 -0.3515 -0.5317
14549TIP3    H165062   4.805   4.691   2.967 -1.4064 -1.0112 -0.0078
14549TIP3    H265063   4.846   4.551   3.010 -0.5071 -1.0787 -1.0546
14550TIP3   OH265064   2.795   6.736   6.457 -0.0047 -0.0851  0.0341
14550TIP3    H165065   2.789   6.644   6.432  0.6273  0.0323 -0.5618
14550TIP3    H265066   2.880   6.765   6.424 -0.3399  0.8064 -0.0762
14551TIP3   OH265067   4.306   5.887  13.881  0.7500  0.0664 -0.1451
14551TIP3    H165068   4.398   5.911  13.892  0.5717  0.5324  0.3704
14551TIP3    H265069   4.290   5.821  13.948  0.6775  0.0786 -0.1508
14552TIP3   OH265070   3.564   3.111  13.460 -0.2035  0.2047  0.4464
14552TIP3    H165071   3.484   3.058  13.450  0.6823 -0.9514 -1.1194
14552TIP3    H265072   3.623   3.056  13.512  0.3129  0.1106 -0.2189
14553TIP3   OH265073   2.373   1.406  10.543 -0.0392 -0.7465  0.3096
14553TIP3    H165074   2.396   1.445  10.628  2.7050 -1.1498 -0.1547
14553TIP3    H265075   2.316   1.332  10.566 -1.9377  0.9594  1.4978
14554TIP3   OH265076   2.218   1.529  12.592 -0.3712 -0.4217  0.2034
14554TIP3    H165077   2.298   1.535  12.540 -1.5497  2.7364 -1.5076
14554TIP3    H265078   2.239   1.571  12.675  0.1153 -0.9364  0.3484
14555TIP3   OH265079   5.827   6.628   6.520  0.3690  0.1515 -0.1560
14555TIP3    H165080   5.834   6.657   6.429 -0.4616 -0.6223 -0.4822
14555TIP3    H265081   5.866   6.540   6.520 -0.3586 -0.1779  0.0550
14556TIP3   OH265082   4.484   0.146  15.037 -0.2491 -0.3111  0.5038
14556TIP3    H165083   4.459   0.159  14.945  1.9612 -0.3097 -0.1577
14556TIP3    H265084   4.470   0.053  15.053  2.1802 -0.9846 -0.8400
14557TIP3   OH265085   5.395   3.678  12.149 -0.6328  0.1205 -0.4646
14557TIP3    H165086   5.372   3.768  12.124  0.0694  0.6766  0.7597
14557TIP3    H265087   5.327   3.654  12.213 -0.3290  0.1202 -0.1390
14558TIP3   OH265088   6.198   3.146   5.199  0.7208 -0.3195 -0.0285
14558TIP3    H165089   6.196   3.129   5.105 -0.3784 -1.2929  0.1634
14558TIP3    H265090   6.181   3.062   5.240 -1.1903  0.5046  1.0055
14559TIP3   OH265091   5.727   3.041   5.020  0.1545 -0.4339 -0.1016
14559TIP3    H165092   5.769   2.969   5.068 -0.1631 -0.2428  0.4748
14559TIP3    H265093   5.634   3.031   5.039  0.2731  1.3615  1.7326
14560TIP3   OH265094   3.133   2.100  13.248 -0.3404 -0.3097 -0.0134
14560TIP3    H165095   3.157   2.188  13.217 -1.4307  0.1416  0.3823
14560TIP3    H265096   3.170   2.041  13.183  1.7847  0.3248  0.5206
14561TIP3   OH265097   4.687   1.793  13.916  0.6831  0.5885  0.3346
14561TIP3    H165098   4.753   1.724  13.920  0.1313 -0.2112 -2.2708
14561TIP3    H265099   4.729   1.870  13.955  2.8906 -0.0998 -0.5677
14562TIP3   OH265100   3.539   4.417   4.013  0.0175 -0.4641 -0.5403
14562TIP3    H165101   3.584   4.494   4.048 -0.1439 -0.6366  0.0510
14562TIP3    H265102   3.488   4.382   4.086 -0.4799 -0.7192 -0.9968
14563TIP3   OH265103   0.832   4.178  11.310  0.2409  0.1588  0.1442
14563TIP3    H165104   0.757   4.200  11.366 -0.8522  0.5204 -1.3859
14563TIP3    H265105   0.870   4.262  11.287  1.3753 -0.0396  1.1966
14564TIP3   OH265106   3.848   6.602   2.032 -0.3887  0.2487 -0.0473
14564TIP3    H165107   3.839   6.684   2.081 -0.8644  0.5832 -0.6819
14564TIP3    H265108   3.779   6.605   1.967  1.7228  1.0228 -2.4292
14565TIP3   OH265109   5.226   2.275  13.035  0.1039 -0.0625 -0.0597
14565TIP3    H165110   5.149   2.320  12.999 -0.7382 -0.7262  0.8552
14565TIP3    H265111   5.208   2.267  13.128  0.8422 -1.0961  0.0189
14566TIP3   OH265112   2.648   0.341   4.077  0.3702 -0.4849  0.5210
14566TIP3    H165113   2.737   0.308   4.067  1.2384  1.3191  1.8164
14566TIP3    H265114   2.615   0.298   4.156  0.1564 -0.9897  0.1615
14567TIP3   OH265115   0.401   5.523  17.025 -0.1999 -0.4590  0.1816
14567TIP3    H165116   0.436   5.442  16.987  1.2399  0.1681  0.1217
14567TIP3    H265117   0.391   5.504  17.118  1.5512 -0.2706  0.4377
14568TIP3   OH265118   4.558   3.996   3.234 -0.6262  0.1930 -0.0840
14568TIP3    H165119   4.480   4.041   3.204 -0.8820 -0.0638  0.1804
14568TIP3    H265120   4.562   3.916   3.181 -0.3705  0.3537 -0.3096
14569TIP3   OH265121   3.074   1.508  15.702  0.4958 -0.4473  0.0780
14569TIP3    H165122   3.126   1.433  15.730 -0.9176 -1.7302 -0.6141
14569TIP3    H265123   3.125   1.547  15.630  1.3874 -0.5372  0.6446
14570TIP3   OH265124   6.191   1.979   5.157 -0.8246 -0.1743  0.1558
14570TIP3    H165125   6.228   2.068   5.157 -0.6959 -0.2271  0.5309
14570TIP3    H265126   6.134   1.977   5.080 -0.5925  0.1373 -0.0266
14571TIP3   OH265127   4.561   1.992   1.664  0.0804  0.3444  0.4437
14571TIP3    H165128   4.535   1.900   1.658  1.4655 -0.0031 -0.6311
14571TIP3    H265129   4.629   1.993   1.731  0.4881  0.4777  0.0303
14572TIP3   OH265130   5.877   0.502   1.813 -0.1077  1.2027  0.3432
14572TIP3    H165131   5.946   0.569   1.814  1.2375 -0.1274  0.7816
14572TIP3    H265132   5.873   0.473   1.722  2.9362 -1.5787  0.8904
14573TIP3   OH265133   5.792   5.251   2.011  0.1629  0.0385  0.8441
14573TIP3    H165134   5.747   5.228   1.930  0.3181  1.1584  0.4297
14573TIP3    H265135   5.725   5.298   2.062  0.3200  0.0725  1.0195
14574TIP3   OH265136   5.036   0.205  11.417  0.1139  0.2683  0.4673
14574TIP3    H165137   5.128   0.230  11.412  0.7540 -1.5751  1.9870
14574TIP3    H265138   4.988   0.288  11.415  1.6635  1.2229 -1.7502
14575TIP3   OH265139   1.982   5.562  13.285 -0.1824 -0.3940 -0.3867
14575TIP3    H165140   1.997   5.474  13.318 -0.0771 -0.4916 -0.6883
14575TIP3    H265141   1.938   5.548  13.200  0.2081 -0.1683 -0.6264
14576TIP3   OH265142   3.788   1.515   4.734  0.3858  0.1531  0.2262
14576TIP3    H165143   3.793   1.423   4.759 -1.0197  0.3460  1.3291
14576TIP3    H265144   3.825   1.518   4.646  1.2352 -1.3186  0.5064
14577TIP3   OH265145   6.723   3.562   1.067  0.1525 -0.1572 -0.2363
14577TIP3    H165146   6.811   3.586   1.039 -0.6759  0.6606 -2.3483
14577TIP3    H265147   6.687   3.512   0.994 -1.6051  0.6973 -0.0079
14578TIP3   OH265148   6.416   0.105  12.488 -0.1595  0.7827  0.0651
14578TIP3    H165149   6.333   0.075  12.524  1.2244 -1.5977  1.5431
14578TIP3    H265150   6.479   0.094  12.559  1.4984  2.3151 -1.0653
14579TIP3   OH265151   2.890   3.085   3.241  0.6026 -0.2913 -0.2890
14579TIP3    H165152   2.811   3.032   3.232  0.7419 -0.4459 -0.6419
14579TIP3    H265153   2.858   3.176   3.242  0.2313 -0.3936  1.8228
14580TIP3   OH265154   3.570   2.837   6.086  0.1995  0.3626 -0.5603
14580TIP3    H165155   3.479   2.846   6.114  0.1328 -1.5683 -0.0752
14580TIP3    H265156   3.571   2.872   5.997 -0.9233  0.7807 -0.4234
14581TIP3   OH265157   2.681   5.033   5.883 -0.0164  0.2640 -0.1434
14581TIP3    H165158   2.616   5.012   5.950  2.5282 -2.0712  1.8163
14581TIP3    H265159   2.727   5.110   5.917 -0.3351  0.5972 -0.4595
14582TIP3   OH265160   1.701   5.337   0.585 -0.8066  0.2944 -0.0532
14582TIP3    H165161   1.791   5.332   0.552 -0.1868  1.2919  1.3665
14582TIP3    H265162   1.651   5.377   0.513  0.3550  1.8129 -0.0738
14583TIP3   OH265163   0.823   3.777   5.980  0.3195 -0.8124 -0.0955
14583TIP3    H165164   0.736   3.803   5.951  0.4851  0.9545  0.8524
14583TIP3    H265165   0.883   3.828   5.925  0.7395 -1.3109 -0.1067
14584TIP3   OH265166   3.463   3.959  12.633 -0.1685 -0.0574  0.3156
14584TIP3    H165167   3.545   3.926  12.595  0.2843  1.1758  0.1745
14584TIP3    H265168   3.448   3.903  12.710  0.0136 -1.2351 -0.4817
14585TIP3   OH265169   4.088   3.827  11.309  0.0778 -0.0104 -0.5887
14585TIP3    H165170   4.111   3.765  11.240  0.2402  0.6274 -1.1195
14585TIP3    H265171   3.992   3.830  11.308 -0.1144 -2.3922  1.3751
14586TIP3   OH265172   5.224   2.199   5.289  0.5609 -0.4377 -0.1854
14586TIP3    H165173   5.203   2.280   5.243 -1.2221 -1.0723 -0.5821
14586TIP3    H265174   5.154   2.189   5.354  0.0334 -2.2547 -0.9626
14587TIP3   OH265175   2.040   1.448  14.055  0.0610 -0.4613  0.2478
14587TIP3    H165176   1.947   1.467  14.068  0.0882  0.2965 -0.5701
14587TIP3    H265177   2.073   1.525  14.009  1.1363 -0.6569  0.6817
14588TIP3   OH265178   4.217   0.590  11.707  0.1617 -0.5366  0.4083
14588TIP3    H165179   4.147   0.532  11.677  0.9440 -1.2282 -0.1385
14588TIP3    H265180   4.282   0.531  11.746  1.1470 -0.1035 -0.5098
14589TIP3   OH265181   4.944   1.395  15.650  0.4327  0.3190 -0.0094
14589TIP3    H165182   4.977   1.306  15.633 -1.1836 -0.0025 -1.8919
14589TIP3    H265183   5.003   1.452  15.602  0.1731  0.0451 -0.6656
14590TIP3   OH265184   1.612   1.122  14.581  0.4934 -0.4644  0.4874
14590TIP3    H165185   1.594   1.210  14.615  1.4277 -0.4867  1.0806
14590TIP3    H265186   1.626   1.069  14.659  0.9596 -0.9056  0.1087
14591TIP3   OH265187   0.270   2.318  11.315  0.0608 -0.4707 -0.3001
14591TIP3    H165188   0.314   2.328  11.230 -0.5931  0.5416 -0.5448
14591TIP3    H265189   0.202   2.253  11.299 -1.2311  0.9930 -1.0795
14592TIP3   OH265190   1.886   2.444  12.132 -0.4700  0.2713  0.1688
14592TIP3    H165191   1.867   2.469  12.042  0.0937  0.9599  0.2257
14592TIP3    H265192   1.982   2.434  12.134 -0.5419 -0.3868  0.5330
14593TIP3   OH265193   5.886   0.655   4.690 -0.2180  0.5852  0.7069
14593TIP3    H165194   5.833   0.647   4.769 -0.0609  0.8137  0.8374
14593TIP3    H265195   5.823   0.655   4.618 -0.3807  0.6328  0.8490
14594TIP3   OH265196   5.087   5.030  12.881 -0.9566 -0.2349 -0.2271
14594TIP3    H165197   5.073   4.954  12.937  0.3044  0.4119  1.0408
14594TIP3    H265198   5.172   5.065  12.909 -0.5294  0.4537 -2.1814
14595TIP3   OH265199   4.063   1.202   2.869  0.0488 -0.3893 -0.4747
14595TIP3    H165200   4.158   1.200   2.876  0.5259  2.1263 -3.6003
14595TIP3    H265201   4.042   1.131   2.808 -0.2497 -1.4809  0.8482
14596TIP3   OH265202   2.356   0.684   3.053 -0.4906 -0.6225 -0.7387
14596TIP3    H165203   2.384   0.602   3.014 -0.7205 -0.8556 -0.4269
14596TIP3    H265204   2.436   0.736   3.062 -0.0973 -1.3759  0.3871
14597TIP3   OH265205   1.896   3.639  15.961  0.3123 -0.3489  0.0369
14597TIP3    H165206   1.816   3.589  15.981 -0.0122  0.0950 -0.1329
14597TIP3    H265207   1.904   3.700  16.035  0.2084 -0.0463 -0.2013
14598TIP3   OH265208   6.479   1.046   2.575 -0.4840  0.6699 -0.2740
14598TIP3    H165209   6.458   1.006   2.660  1.4093  2.6554  1.2429
14598TIP3    H265210   6.394   1.073   2.540 -1.3593 -0.7508  0.6613
14599TIP3   OH265211   3.544   5.875  15.229  0.2859  0.5893 -0.2190
14599TIP3    H165212   3.522   5.951  15.175  2.7566  0.0798 -2.1056
14599TIP3    H265213   3.535   5.800  15.169  0.7877 -0.2779  0.7680
14600TIP3   OH265214   3.999   1.254  12.196 -0.4223 -0.3218  0.0452
14600TIP3    H165215   3.997   1.179  12.256  1.3695  1.0899  2.0231
14600TIP3    H265216   3.927   1.310  12.226  0.2800  0.2382  0.7349
14601TIP3   OH265217   1.984   2.331  16.544 -0.1424 -0.3377 -0.9043
14601TIP3    H165218   2.006   2.283  16.464 -2.3931 -1.1943 -1.0676
14601TIP3    H265219   1.904   2.379  16.522 -0.1443  0.3457  0.4998
14602TIP3   OH265220   5.569   5.776  15.948  0.3840  0.0252  0.1940
14602TIP3    H165221   5.629   5.820  16.007  0.7156 -0.5277  0.2749
14602TIP3    H265222   5.526   5.710  16.002 -0.0956  0.2325  0.0709
14603TIP3   OH265223   3.600   5.448   1.451 -0.1416  0.2187  0.1617
14603TIP3    H165224   3.543   5.424   1.377 -2.2049  1.6719  1.1703
14603TIP3    H265225   3.674   5.492   1.411 -0.8849  0.3714 -1.1135
14604TIP3   OH265226   1.663   2.720  16.022 -0.4119 -0.0827 -0.0196
14604TIP3    H165227   1.605   2.795  16.009  0.4255  0.3669 -1.5249
14604TIP3    H265228   1.663   2.704  16.116 -2.1695  0.5255  0.1006
14605TIP3   OH265229   5.110   5.196   3.426 -0.4473  0.0438 -0.5687
14605TIP3    H165230   5.167   5.153   3.490 -0.6530  0.0279 -0.3965
14605TIP3    H265231   5.151   5.281   3.410 -0.5555  0.1677 -0.1945
14606TIP3   OH265232   5.716   6.690   3.358 -0.0796  0.1468 -0.5621
14606TIP3    H165233   5.633   6.652   3.388  0.2802 -0.6569 -0.5610
14606TIP3    H265234   5.701   6.710   3.266 -0.5016  0.6601 -0.3874
14607TIP3   OH265235   0.974   0.824   1.888 -0.0336  0.5224 -0.4347
14607TIP3    H165236   1.057   0.778   1.903  0.6951  1.8512 -0.3051
14607TIP3    H265237   0.909   0.767   1.930  0.8880 -0.2052  0.0686
14608TIP3   OH265238   5.832   0.670  11.459 -0.4703 -0.6316  0.0055
14608TIP3    H165239   5.761   0.722  11.420  0.2979  0.1318 -0.4220
14608TIP3    H265240   5.798   0.642  11.543 -1.4177 -0.5868 -0.3497
14609TIP3   OH265241   6.133   0.280  14.756  0.1474  0.2362  0.4357
14609TIP3    H165242   6.227   0.291  14.771  0.3077  0.4772 -0.6899
14609TIP3    H265243   6.103   0.228  14.830  1.1202  0.3797  0.9437
14610TIP3   OH265244   0.691   0.749  16.210  0.0467  0.1589  0.1453
14610TIP3    H165245   0.698   0.791  16.124  0.6441  1.2573  0.7108
14610TIP3    H265246   0.605   0.707  16.209  0.6498 -1.1578 -1.5538
14611TIP3   OH265247   5.712   2.852   1.029  0.2642 -0.2203 -0.6636
14611TIP3    H165248   5.776   2.839   0.959  0.8593 -1.3771  0.0694
14611TIP3    H265249   5.747   2.804   1.103 -0.5433  0.6689  0.3367
14612TIP3   OH265250   5.838   3.851  11.063  0.4195 -0.4915  0.3235
14612TIP3    H165251   5.841   3.840  10.968 -0.5523 -0.1784  0.2517
14612TIP3    H265252   5.805   3.767  11.096 -1.9422  0.2890  0.1542
14613TIP3   OH265253   2.064   2.201  11.969 -0.5114 -0.2405  0.2387
14613TIP3    H165254   1.989   2.194  11.910 -0.5509 -0.6455  0.3339
14613TIP3    H265255   2.066   2.118  12.017  1.1065 -1.0275 -1.0853
14614TIP3   OH265256   0.916   4.915  13.039 -0.2841 -0.0084  0.7018
14614TIP3    H165257   0.839   4.858  13.030 -1.7748  1.9831  0.0501
14614TIP3    H265258   0.918   4.965  12.958  1.9209 -0.1900  0.5917
14615TIP3   OH265259   1.898   6.699  17.174 -0.3251 -0.0242 -0.0058
14615TIP3    H165260   1.890   6.688  17.079 -0.3680 -0.3678  0.0341
14615TIP3    H265261   1.829   6.643  17.210  0.7550 -1.2475  0.2706
14616TIP3   OH265262   2.902   3.905  14.771  0.7328  0.1910 -0.1883
14616TIP3    H165263   2.936   3.820  14.798 -2.8469 -1.5565 -0.6506
14616TIP3    H265264   2.964   3.935  14.704  2.2844 -1.8609  0.2163
14617TIP3   OH265265   1.831   5.085   2.447 -0.0267  0.2722 -0.0183
14617TIP3    H165266   1.793   5.101   2.361 -0.2390  1.0887  0.2160
14617TIP3    H265267   1.809   4.994   2.467  0.3668 -0.0398 -0.9918
14618TIP3   OH265268   4.967   0.044   1.218  0.1405  0.0516  0.6868
14618TIP3    H165269   4.984   0.061   1.125  2.5019 -1.8231  0.6798
14618TIP3    H265270   5.038   0.088   1.264 -2.8287  3.9697  2.0947
14619TIP3   OH265271   1.623   2.738  12.609  0.2242 -0.0829  0.9293
14619TIP3    H165272   1.594   2.647  12.610 -1.5472  0.3922 -0.7745
14619TIP3    H265273   1.646   2.755  12.518 -2.2288  1.9070  0.5608
14620TIP3   OH265274   5.846   2.597   0.588 -0.1995 -0.0645  0.1123
14620TIP3    H165275   5.842   2.511   0.545  1.0847  0.1640 -0.5091
14620TIP3    H265276   5.767   2.642   0.558 -0.3861 -0.6711 -0.3373
14621TIP3   OH265277   0.264   0.381  11.792  0.0834  0.1015  0.3150
14621TIP3    H165278   0.184   0.424  11.762 -0.0135 -0.6081 -0.4756
14621TIP3    H265279   0.333   0.417  11.738 -0.0842 -1.1399 -0.7667
14622TIP3   OH265280   4.446   2.721  11.676 -0.5429  0.2245 -0.0283
14622TIP3    H165281   4.426   2.653  11.741 -0.6394 -0.3084 -0.6106
14622TIP3    H265282   4.386   2.793  11.698 -0.1089  0.3212  0.8845
14623TIP3   OH265283   1.613   2.801  16.296  0.1406  0.2971 -0.4526
14623TIP3    H165284   1.696   2.772  16.332 -0.3724 -0.6319  0.0080
14623TIP3    H265285   1.610   2.895  16.315 -0.0638 -0.1275  1.8685
14624TIP3   OH265286   0.474   0.355  16.206  0.4492 -0.3183 -0.1769
14624TIP3    H165287   0.503   0.266  16.224 -1.0410 -0.9683 -0.8430
14624TIP3    H265288   0.459   0.393  16.293  0.5576 -0.9019  0.1017
14625TIP3   OH265289   5.032   1.674  13.422 -0.0223 -0.2142 -0.4832
14625TIP3    H165290   5.107   1.625  13.457  0.2249 -1.0793 -2.1348
14625TIP3    H265291   5.066   1.761  13.402 -0.5036  0.8154  2.6492
14626TIP3   OH265292   2.344   3.174   4.594 -0.3477  0.1124  0.3891
14626TIP3    H165293   2.284   3.132   4.656  0.8612 -1.7189  0.4108
14626TIP3    H265294   2.352   3.111   4.523  0.0960  1.1672 -0.5200
14627TIP3   OH265295   0.190   0.726   4.555 -0.0253  0.2495  0.2212
14627TIP3    H165296   0.234   0.648   4.590 -1.0973  0.4963  2.3296
14627TIP3    H265297   0.160   0.700   4.468 -1.9913 -2.4452  1.5419
14628TIP3   OH265298   0.757   6.076   0.921  0.1749  0.4757 -0.2086
14628TIP3    H165299   0.683   6.136   0.916  1.4500  2.2253  0.5553
14628TIP3    H265300   0.834   6.133   0.913  1.4603 -1.3587 -1.8924
14629TIP3   OH265301   2.307   2.475  11.090  0.1084  0.1988 -0.1369
14629TIP3    H165302   2.228   2.472  11.144  1.6306 -1.8215  2.1918
14629TIP3    H265303   2.346   2.560  11.108 -0.2457  0.1914  0.7060
14630TIP3   OH265304   6.299   2.435  10.222 -0.1655 -0.1136  0.0110
14630TIP3    H165305   6.245   2.405  10.296  0.5895  0.7301  0.9266
14630TIP3    H265306   6.251   2.509  10.186 -0.7225 -0.7566 -0.6056
14631TIP3   OH265307   0.558   3.722   0.906 -0.3460 -0.4977  0.0390
14631TIP3    H165308   0.548   3.666   0.983  3.8214  0.8108  1.8454
14631TIP3    H265309   0.626   3.681   0.854  1.5261  1.7620  0.5049
14632TIP3   OH265310   4.348   1.877  16.402  0.4553 -0.3556  0.3359
14632TIP3    H165311   4.265   1.883  16.356  0.0781  0.6332  1.1066
14632TIP3    H265312   4.409   1.929  16.349  1.6056 -3.8289 -2.1799
14633TIP3   OH265313   5.905   4.274  16.239  0.4134  0.1381  0.0393
14633TIP3    H165314   5.940   4.348  16.188 -0.3204  1.7674  1.7857
14633TIP3    H265315   5.819   4.256  16.200 -0.8318  2.4000  1.5263
14634TIP3   OH265316   3.194   3.600   4.164 -0.0385 -0.1938 -0.3510
14634TIP3    H165317   3.198   3.613   4.069 -0.2520  0.1605 -0.3154
14634TIP3    H265318   3.101   3.580   4.181  0.2433 -1.6077 -0.3794
14635TIP3   OH265319   2.038   6.623  15.661 -0.0210 -0.0134  0.1225
14635TIP3    H165320   1.995   6.548  15.619  0.1977  0.2892 -0.6619
14635TIP3    H265321   2.077   6.587  15.740  0.8023 -0.9177 -0.6720
14636TIP3   OH265322   2.825   2.834   1.468  0.3994 -0.7532 -0.0406
14636TIP3    H165323   2.919   2.819   1.480  0.2711 -1.5106  0.0182
14636TIP3    H265324   2.812   2.828   1.373  0.3107 -1.2223  0.0023
14637TIP3   OH265325   4.195   3.719   0.956  0.0552 -0.2199  0.4474
14637TIP3    H165326   4.179   3.652   0.889 -0.6231 -1.5045  1.8219
14637TIP3    H265327   4.131   3.700   1.024  1.8088 -0.0730  2.2451
14638TIP3   OH265328   2.991   3.893   6.429 -0.1919 -0.1502 -0.7528
14638TIP3    H165329   3.048   3.828   6.469  1.8061  1.9664  0.0532
14638TIP3    H265330   2.906   3.880   6.472  0.6888 -0.8865  0.8642
14639TIP3   OH265331   1.457   0.104  14.396  0.6642  0.3960 -0.3805
14639TIP3    H165332   1.492   0.185  14.436  2.0620  0.5006 -1.7077
14639TIP3    H265333   1.462   0.120  14.302  0.1035 -0.9102 -0.6484
14640TIP3   OH265334   1.511   0.096   0.820 -0.2403 -0.5255 -0.4267
14640TIP3    H165335   1.600   0.066   0.841 -0.2942  0.3658  1.2813
14640TIP3    H265336   1.514   0.116   0.726  1.3067 -0.7014 -0.4424
14641TIP3   OH265337   3.304   4.151  15.252  0.2878 -0.5200 -0.0499
14641TIP3    H165338   3.319   4.222  15.190 -0.3208 -1.0051 -0.7751
14641TIP3    H265339   3.389   4.134  15.292  0.7833 -0.4860 -1.0724
14642TIP3   OH265340   0.498   1.207  15.894  0.2392  0.6725 -0.3196
14642TIP3    H165341   0.545   1.157  15.828 -0.3361  1.3343 -1.2546
14642TIP3    H265342   0.537   1.294  15.891  0.0645  0.7674  0.0635
14643TIP3   OH265343   4.530   1.649   4.496 -0.3463 -0.1537 -0.4941
14643TIP3    H165344   4.528   1.740   4.527 -0.5401 -0.2816 -0.1204
14643TIP3    H265345   4.622   1.633   4.477 -0.3190  0.1399 -0.6232
14644TIP3   OH265346   3.206   4.910  15.951 -0.1421  0.4438  0.3161
14644TIP3    H165347   3.159   4.928  16.032 -0.7330  1.1476 -0.1717
14644TIP3    H265348   3.232   4.818  15.958 -0.8641  0.2799  0.9500
14645TIP3   OH265349   5.896   5.580  12.257 -0.0617 -0.1769 -0.3783
14645TIP3    H165350   5.896   5.675  12.250  2.1286 -0.1884 -1.2664
14645TIP3    H265351   5.910   5.549  12.167  1.1633 -1.2518  0.1447
14646TIP3   OH265352   6.180   5.658   0.095 -0.1629 -0.0160  0.0133
14646TIP3    H165353   6.206   5.685   0.183  0.6755 -0.0992 -0.1966
14646TIP3    H265354   6.248   5.694   0.038  0.6294 -1.9579 -0.3469
14647TIP3   OH265355   2.101   1.900  12.953 -0.0932 -0.2354  0.1733
14647TIP3    H165356   2.089   1.809  12.979 -0.2538 -0.7667 -1.5891
14647TIP3    H265357   2.195   1.914  12.957  0.1170 -1.0431 -1.1330
14648TIP3   OH265358   0.664   5.914  14.985 -0.0231  0.0282  0.4062
14648TIP3    H165359   0.625   5.836  15.025 -2.7881  0.6622 -0.8395
14648TIP3    H265360   0.739   5.934  15.041 -0.4701 -2.2877  1.9773
14649TIP3   OH265361   6.446   0.101  11.515 -0.0081 -0.0192 -0.1595
14649TIP3    H165362   6.386   0.043  11.470  1.2262 -2.0437  0.6846
14649TIP3    H265363   6.532   0.082  11.477  0.8647 -0.8635  2.0426
14650TIP3   OH265364   1.256   3.003  14.424 -0.6818  0.2385 -0.1124
14650TIP3    H165365   1.302   3.076  14.465 -1.1859  0.2896  0.3773
14650TIP3    H265366   1.169   3.038  14.403 -0.2188  0.4227 -1.8667
14651TIP3   OH265367   3.017   4.892  12.535 -0.5048 -0.0585  0.4009
14651TIP3    H165368   3.051   4.980  12.548  1.0281 -0.3819 -1.0475
14651TIP3    H265369   3.088   4.834  12.563  0.0781 -0.7563 -2.2393
14652TIP3   OH265370   1.272   5.969   4.262 -0.5284 -0.4886  0.5207
14652TIP3    H165371   1.251   5.933   4.175 -0.7136  0.6252  0.0846
14652TIP3    H265372   1.291   5.892   4.316  0.2271 -1.1737 -0.6757
14653TIP3   OH265373   2.119   0.367   0.545 -0.6449 -0.1575 -0.0523
14653TIP3    H165374   2.066   0.383   0.467 -1.3107  0.2077  0.4597
14653TIP3    H265375   2.195   0.425   0.536 -2.3759  2.4975  1.1545
14654TIP3   OH265376   0.735   2.777   1.834  0.5963  0.0388 -0.2513
14654TIP3    H165377   0.708   2.741   1.749 -0.5798  1.5528 -0.5542
14654TIP3    H265378   0.828   2.755   1.841  0.4606 -1.0209 -1.4502
14655TIP3   OH265379   1.970   0.816  15.820 -0.1522  0.3064 -0.2591
14655TIP3    H165380   1.922   0.891  15.786 -0.9757 -0.1740 -0.1780
14655TIP3    H265381   1.905   0.765  15.869  0.5489 -0.0981  0.2751
14656TIP3   OH265382   3.436   3.990  11.412  0.1072 -0.4576 -0.4278
14656TIP3    H165383   3.486   4.041  11.475 -0.6924  0.3037 -0.3839
14656TIP3    H265384   3.391   3.924  11.464  0.0415 -0.3118 -0.3005
14657TIP3   OH265385   4.854   4.786   3.353  0.0028  0.0205 -0.3752
14657TIP3    H165386   4.885   4.863   3.306  0.2553 -0.6176 -1.2830
14657TIP3    H265387   4.907   4.783   3.433  0.2384  0.5694 -0.5092
14658TIP3   OH265388   2.938   1.539  11.047  0.3908 -0.5601 -0.0668
14658TIP3    H165389   3.009   1.531  10.983  0.3132 -0.6372 -0.1440
14658TIP3    H265390   2.865   1.575  10.998  0.2344 -0.9061 -0.0953
14659TIP3   OH265391   5.922   4.159   4.148 -0.4927  0.6423  0.4491
14659TIP3    H165392   5.956   4.069   4.144 -0.3452  0.7211 -0.3998
14659TIP3    H265393   5.981   4.204   4.208 -0.4786  0.2100  0.7683
14660TIP3   OH265394   6.128   0.485   4.004 -0.3121  0.1843  0.0877
14660TIP3    H165395   6.164   0.410   3.958 -0.2507  0.5067 -0.4022
14660TIP3    H265396   6.050   0.451   4.049  0.5692 -0.5057  1.1291
14661TIP3   OH265397   2.442   6.730   4.855  0.2333 -0.0884  0.3929
14661TIP3    H165398   2.361   6.771   4.885  0.5775  1.3766 -0.5593
14661TIP3    H265399   2.414   6.644   4.822 -1.2095  0.8854 -1.1472
14662TIP3   OH265400   0.929   4.186   5.761 -0.2661  0.0101  0.0555
14662TIP3    H165401   0.926   4.190   5.856 -3.4564  1.2887 -0.0020
14662TIP3    H265402   0.884   4.104   5.739 -0.5180  0.2580 -0.3660
14663TIP3   OH265403   6.610   3.246  13.964 -0.6526  0.3587 -1.0923
14663TIP3    H165404   6.617   3.247  14.059 -1.3744 -2.6616 -0.9077
14663TIP3    H265405   6.544   3.314  13.944 -1.2101  0.3742  0.6412
14664TIP3   OH265406   6.125   4.489   0.601 -0.0509  0.2922  0.3488
14664TIP3    H165407   6.091   4.418   0.546  0.2234 -0.8814  1.6493
14664TIP3    H265408   6.048   4.544   0.617  0.1752  1.6354 -2.5229
14665TIP3   OH265409   0.695   0.879   4.133 -0.0506 -0.1060 -0.0251
14665TIP3    H165410   0.671   0.819   4.203 -1.5763  0.0621 -0.3647
14665TIP3    H265411   0.729   0.956   4.177 -0.3772 -0.2651  0.5102
14666TIP3   OH265412   1.634   5.341  17.064  0.3084  0.1511  0.3199
14666TIP3    H165413   1.663   5.293  16.986 -0.6118  2.6529 -1.7233
14666TIP3    H265414   1.569   5.285  17.105 -1.6354  0.0132 -2.6282
14667TIP3   OH265415   3.963   6.176   4.079 -0.2157  0.5620 -0.2127
14667TIP3    H165416   4.045   6.225   4.077  0.4702 -0.4526  1.1925
14667TIP3    H265417   3.967   6.120   4.001  0.0550  1.0842 -0.5799
14668TIP3   OH265418   3.541   3.117  17.241 -0.3971  0.4580  0.1122
14668TIP3    H165419   3.527   3.023  17.238 -2.3052  0.7217 -1.9552
14668TIP3    H265420   3.562   3.142  17.151 -1.1422  2.1137  0.3500
14669TIP3   OH265421   3.154   6.024  16.420  0.1684 -0.3210  0.0919
14669TIP3    H165422   3.108   6.014  16.503 -1.4673  0.3246 -0.6804
14669TIP3    H265423   3.245   6.001  16.439 -0.2463 -0.5523  1.9527
14670TIP3   OH265424   2.563   2.185   3.331  0.3404  0.0414  0.1837
14670TIP3    H165425   2.646   2.176   3.378  0.7129 -0.4885 -0.5540
14670TIP3    H265426   2.586   2.173   3.239 -0.4728  0.4490 -0.0835
14671TIP3   OH265427   2.431   3.317  16.351 -0.4331 -0.0221 -0.4171
14671TIP3    H165428   2.361   3.313  16.416 -0.1244 -0.2458 -0.0939
14671TIP3    H265429   2.461   3.226  16.342  0.1448  0.1384 -0.1848
14672TIP3   OH265430   0.473   4.119   5.606  0.0103 -0.8861 -0.6442
14672TIP3    H165431   0.548   4.170   5.576  0.2502 -0.8833 -0.0468
14672TIP3    H265432   0.480   4.036   5.558 -0.7686 -0.1313 -2.1376
14673TIP3   OH265433   4.353   3.674   3.532  0.1997  0.1340  0.2966
14673TIP3    H165434   4.420   3.606   3.525 -1.6682 -2.0541  1.7141
14673TIP3    H265435   4.390   3.739   3.591  1.4515 -0.5314  0.2760
14674TIP3   OH265436   6.446   2.507  12.616 -0.0067 -0.3795  0.2195
14674TIP3    H165437   6.529   2.463  12.632  0.6613  0.9991  0.6831
14674TIP3    H265438   6.465   2.600  12.629 -0.6124  0.4675 -3.6704
14675TIP3   OH265439   1.362   2.242   1.989 -0.5436 -0.2503 -0.0467
14675TIP3    H165440   1.423   2.305   1.950 -1.4821 -0.0838 -1.3222
14675TIP3    H265441   1.404   2.215   2.070  0.4117  1.1672 -0.0336
14676TIP3   OH265442   0.242   3.403   2.007 -0.2555  0.1311 -0.0826
14676TIP3    H165443   0.211   3.372   2.092  0.5240 -1.5593 -0.3612
14676TIP3    H265444   0.231   3.328   1.948  1.4146  0.4773 -0.9042
14677TIP3   OH265445   3.466   2.544   0.017  0.0271  0.2444 -0.1110
14677TIP3    H165446   3.447   2.630  -0.021  1.0346  0.9012  0.7973
14677TIP3    H265447   3.470   2.485  -0.058 -1.3847  0.8379 -0.6827
14678TIP3   OH265448   6.395   3.657   0.399  0.5993  0.0754  0.6173
14678TIP3    H165449   6.446   3.576   0.392  1.8779  0.7715  1.4202
14678TIP3    H265450   6.323   3.635   0.457 -0.3877 -1.0814 -0.9773
14679TIP3   OH265451   4.173   3.570  13.389 -0.1742 -0.2164  0.4255
14679TIP3    H165452   4.236   3.498  13.379 -0.7968 -0.7581  0.2923
14679TIP3    H265453   4.101   3.546  13.330 -0.0803  0.8780 -0.1653
14680TIP3   OH265454   3.649   3.100   4.701  0.0876  0.2074  0.1455
14680TIP3    H165455   3.616   3.140   4.782  0.0745 -0.3645  0.4235
14680TIP3    H265456   3.628   3.007   4.709  2.5224 -0.3494  0.7339
14681TIP3   OH265457   2.775   0.323   3.083 -0.4288 -0.5515  0.1165
14681TIP3    H165458   2.782   0.418   3.080 -1.6902 -0.4637 -0.4984
14681TIP3    H265459   2.690   0.306   3.124 -0.2443 -1.4038  0.1650
14682TIP3   OH265460   0.847   5.800   3.526  0.2128  0.1276  0.5384
14682TIP3    H165461   0.760   5.828   3.556 -0.8880 -1.5092 -0.9414
14682TIP3    H265462   0.903   5.807   3.604 -1.1992  1.2922  1.5050
14683TIP3   OH265463   1.782   2.756   6.087 -0.1639 -0.2649  0.5508
14683TIP3    H165464   1.838   2.702   6.031  0.6117  0.3815  0.6721
14683TIP3    H265465   1.765   2.702   6.163  0.5418 -0.3823  0.6362
14684TIP3   OH265466   4.760   3.460   3.738 -0.0095 -0.4539 -0.3348
14684TIP3    H165467   4.748   3.528   3.672 -0.1622 -1.2729 -1.1799
14684TIP3    H265468   4.730   3.499   3.819  1.0670  0.9130 -0.5510
14685TIP3   OH265469   2.423   0.419  17.046  0.1317  0.4381  0.3959
14685TIP3    H165470   2.422   0.378  16.960 -2.0975 -0.3617  0.7366
14685TIP3    H265471   2.504   0.470  17.048  0.0054  0.8648 -2.3465
14686TIP3   OH265472   3.357   0.359  10.679  0.2764 -0.0695 -0.2187
14686TIP3    H165473   3.343   0.296  10.608 -0.7998  0.9701 -0.9609
14686TIP3    H265474   3.271   0.396  10.696  0.4830 -0.3869  1.7549
14687TIP3   OH265475   6.024   3.740   5.730  0.2227 -0.0545 -0.2989
14687TIP3    H165476   5.990   3.808   5.788  0.2808 -0.7650  0.5940
14687TIP3    H265477   6.054   3.671   5.789  0.5296 -0.6899 -1.1725
14688TIP3   OH265478   4.390   0.185  13.639 -0.1132 -0.0859  0.2816
14688TIP3    H165479   4.347   0.254  13.589 -0.6607 -0.2091  0.5822
14688TIP3    H265480   4.369   0.104  13.592  0.3883 -0.0743  0.0254
14689TIP3   OH265481   1.820   1.679  14.298  0.2674 -0.0330  0.6518
14689TIP3    H165482   1.766   1.615  14.344 -1.6052  1.1050  0.1507
14689TIP3    H265483   1.783   1.764  14.322 -0.4435  0.6503 -2.4007
14690TIP3   OH265484   3.993   2.569   1.366  0.2338  0.4244 -0.1571
14690TIP3    H165485   3.981   2.474   1.360  1.5263  0.2581 -0.2313
14690TIP3    H265486   3.942   2.595   1.443 -0.2657 -0.2957 -0.2347
14691TIP3   OH265487   0.432   5.526   1.726 -0.4042  0.0804  0.4604
14691TIP3    H165488   0.375   5.478   1.666 -0.8869  0.6669  0.4482
14691TIP3    H265489   0.483   5.584   1.669 -0.9045  0.6795  0.6187
14692TIP3   OH265490   5.175   0.041  16.936  0.6867 -0.3559 -0.2243
14692TIP3    H165491   5.123  -0.034  16.965  1.1954 -0.9181 -0.7600
14692TIP3    H265492   5.236   0.057  17.007 -0.9018  1.0159  0.9258
14693TIP3   OH265493   1.149   2.336   0.772 -0.1572  0.0351 -0.2240
14693TIP3    H165494   1.199   2.408   0.812  0.5872  0.9060 -2.5327
14693TIP3    H265495   1.153   2.354   0.678 -0.2010 -2.9028 -0.8770
14694TIP3   OH265496   5.382   3.303  16.171 -0.1753  0.2005 -0.4591
14694TIP3    H165497   5.458   3.284  16.116 -1.5360 -0.1117 -2.3360
14694TIP3    H265498   5.323   3.352  16.114 -1.1157  1.0230  1.1554
14695TIP3   OH265499   3.282   3.034   0.397  0.7500 -0.1719 -0.6575
14695TIP3    H165500   3.326   3.097   0.454  0.5301  0.9668 -1.7010
14695TIP3    H265501   3.304   3.062   0.308  0.2478 -1.2919 -1.1622
14696TIP3   OH265502   1.417   4.921  12.198 -0.0479  0.6041  0.6156
14696TIP3    H165503   1.344   4.937  12.257 -1.1010  0.1288 -0.5160
14696TIP3    H265504   1.384   4.857  12.135  1.2606  0.5733 -0.0847
14697TIP3   OH265505   1.473   4.909   4.935 -0.0500 -0.1688  0.4982
14697TIP3    H165506   1.486   4.891   4.842 -1.2579 -1.6807  0.5912
14697TIP3    H265507   1.472   5.005   4.940  2.0406 -0.0166 -0.7090
14698TIP3   OH265508   3.424   1.892   4.593 -0.0251 -0.1145 -0.5937
14698TIP3    H165509   3.491   1.832   4.559 -0.3395 -1.2521  0.7056
14698TIP3    H265510   3.432   1.885   4.688 -1.0408  0.8265 -0.4212
14699TIP3   OH265511   0.065   2.236  12.134  0.0512  0.6222 -0.9517
14699TIP3    H165512   0.125   2.195  12.071 -1.0796  0.6077 -2.0699
14699TIP3    H265513   0.102   2.215  12.220  1.3039  0.1016 -1.5898
14700TIP3   OH265514   4.662   5.365  15.473 -0.3699  0.2807 -0.2438
14700TIP3    H165515   4.646   5.337  15.382 -0.3286  1.1565 -0.5259
14700TIP3    H265516   4.610   5.445  15.482  0.8484  1.0573  0.0234
14701TIP3   OH265517   3.712   3.252   5.498 -0.4697 -0.2872  0.4757
14701TIP3    H165518   3.664   3.327   5.531  0.0161 -0.4623  1.6440
14701TIP3    H265519   3.646   3.184   5.486 -1.1380  0.6889 -1.8969
14702TIP3   OH265520   1.129   2.969  12.798 -0.4128 -0.6057 -0.0026
14702TIP3    H165521   1.194   2.994  12.864 -1.6078 -0.5915  1.2050
14702TIP3    H265522   1.182   2.944  12.722  1.0414 -1.3224  1.1818
14703TIP3   OH265523   3.441   3.153  13.943  0.2815  0.0342  0.4584
14703TIP3    H165524   3.384   3.101  14.000 -1.3630  2.2062  0.9303
14703TIP3    H265525   3.388   3.167  13.864  1.1623  0.0464 -0.1448
14704TIP3   OH265526   3.506   1.393  15.502  0.5074 -0.4563 -0.0627
14704TIP3    H165527   3.428   1.405  15.448  1.5731 -2.6056 -2.3077
14704TIP3    H265528   3.549   1.478  15.501 -2.2377  1.1226  2.1945
14705TIP3   OH265529   6.082   5.963   6.340  0.7265  0.1466  0.4067
14705TIP3    H165530   6.053   6.048   6.373 -0.1413  0.9877 -2.2915
14705TIP3    H265531   6.175   5.958   6.363  0.5970  1.4295  1.3165
14706TIP3   OH265532   3.296   4.606  12.077  0.4732 -0.1270 -0.1497
14706TIP3    H165533   3.231   4.602  12.007  1.7497  2.0664 -1.5857
14706TIP3    H265534   3.259   4.552  12.147 -2.7060  0.7158 -1.0134
14707TIP3   OH265535   1.080   3.146  17.174 -0.2242 -0.1444  0.0284
14707TIP3    H165536   1.133   3.150  17.094  0.0429 -0.4437  0.1914
14707TIP3    H265537   1.108   3.066  17.218  0.5728  0.6948  1.0842
14708TIP3   OH265538   2.417   4.926   1.011  0.2339 -0.1204  0.3705
14708TIP3    H165539   2.321   4.925   1.012  0.1378 -3.1544 -0.1036
14708TIP3    H265540   2.442   4.966   1.094 -1.4113  1.0005  0.3767
14709TIP3   OH265541   5.854   0.188  13.358 -0.3033 -0.0917  0.1643
14709TIP3    H165542   5.910   0.158  13.286 -1.4273  0.5792 -1.0399
14709TIP3    H265543   5.768   0.153  13.337 -2.0291  4.6571 -2.0199
14710TIP3   OH265544   0.566   2.869  16.756  0.7376  0.0105 -0.4266
14710TIP3    H165545   0.519   2.820  16.689 -2.7014  0.0236  1.7229
14710TIP3    H265546   0.557   2.816  16.836  1.4455  1.6961  0.8503
14711TIP3   OH265547   4.468   6.523  16.155  0.0148 -0.3154  0.4208
14711TIP3    H165548   4.494   6.594  16.214  0.4406 -0.9707  1.0260
14711TIP3    H265549   4.375   6.511  16.172 -0.0525  0.0636  0.3407
14712TIP3   OH265550   5.386   0.850  15.570 -0.2848 -0.2495  0.0008
14712TIP3    H165551   5.353   0.804  15.646 -0.2653 -0.0192  0.1508
14712TIP3    H265552   5.477   0.821  15.561  0.2430  0.9863  1.0764
14713TIP3   OH265553   4.587   0.882  14.574  0.6927  0.2176  0.5269
14713TIP3    H165554   4.498   0.860  14.604  0.7507 -1.2978 -0.3052
14713TIP3    H265555   4.585   0.864  14.480  1.3862  1.9556  0.1332
14714TIP3   OH265556   4.726   6.148   1.736  0.0318 -0.9344 -0.1115
14714TIP3    H165557   4.688   6.202   1.806 -1.6176 -2.4985  0.2654
14714TIP3    H265558   4.723   6.204   1.658  1.0697  0.5132  0.8319
14715TIP3   OH265559   5.451   1.951  16.926 -0.3673 -0.2956 -0.2963
14715TIP3    H165560   5.438   2.046  16.922  3.0693  0.3873  1.1402
14715TIP3    H265561   5.502   1.930  16.848 -1.4658 -1.0935 -0.8284
14716TIP3   OH265562   3.541   4.387   5.586  0.4710 -0.5287 -0.1807
14716TIP3    H165563   3.515   4.312   5.532 -0.9820  0.7883 -1.3936
14716TIP3    H265564   3.469   4.399   5.647  1.6434 -1.3599  1.4353
14717TIP3   OH265565   0.034   6.555   0.413 -0.2207 -0.1930  0.0319
14717TIP3    H165566   0.079   6.512   0.486  1.2474  0.0782 -0.6671
14717TIP3    H265567   0.050   6.649   0.427  0.5776 -0.1644 -0.9057
14718TIP3   OH265568   0.370   1.831   5.701 -0.5983  0.0257  0.1806
14718TIP3    H165569   0.420   1.851   5.780  0.4488  1.1814 -0.7336
14718TIP3    H265570   0.432   1.787   5.644 -1.3511 -0.8168 -0.0083
14719TIP3   OH265571   1.623   4.652  12.675  0.8467 -0.3827  0.0445
14719TIP3    H165572   1.536   4.617  12.696  1.3289 -0.6410  1.7607
14719TIP3    H265573   1.613   4.690  12.587 -0.9016 -0.7015  0.0669
14720TIP3   OH265574   0.832   3.410   1.230 -0.4027 -0.3156 -0.1822
14720TIP3    H165575   0.898   3.477   1.243 -1.0281  0.0939  1.0250
14720TIP3    H265576   0.881   3.327   1.232  0.0352 -0.0459  1.1859
14721TIP3   OH265577   0.949   6.056   3.833 -0.4688 -0.1354  0.0197
14721TIP3    H165578   0.949   6.152   3.837 -0.1522 -0.0387 -1.7447
14721TIP3    H265579   0.872   6.034   3.781 -1.4065 -0.9488  1.6746
14722TIP3   OH265580   2.718   2.971  13.832  0.6203  0.0784 -0.1126
14722TIP3    H165581   2.708   2.996  13.924 -0.2033  1.0180 -0.4385
14722TIP3    H265582   2.811   2.951  13.822  1.0967  1.8463  0.4919
14723TIP3   OH265583   1.958   5.709   1.346  0.7352  0.1604 -0.0081
14723TIP3    H165584   2.024   5.730   1.280  3.0132 -2.9281  1.0152
14723TIP3    H265585   2.007   5.705   1.428 -0.6489 -2.3093  0.7986
14724TIP3   OH265586   6.219   6.193   1.324 -0.0496 -0.2344  0.1910
14724TIP3    H165587   6.289   6.188   1.258 -0.5800 -0.5657 -0.3571
14724TIP3    H265588   6.221   6.107   1.367  0.5042  0.0925  0.8321
14725TIP3   OH265589   3.705   0.054  14.188  0.0567  0.0763  0.7861
14725TIP3    H165590   3.661   0.029  14.106 -0.8110  0.0981  1.2286
14725TIP3    H265591   3.760   0.128  14.164  0.4759 -0.4562  0.0451
14726TIP3   OH265592   3.900   5.372  10.730  0.2304  0.3984 -0.3198
14726TIP3    H165593   3.893   5.412  10.644  0.5902 -0.7743 -0.9138
14726TIP3    H265594   3.851   5.290  10.723  2.4887 -1.0469 -0.2635
14727TIP3   OH265595   6.475   0.807   4.170 -0.1186  0.0354  0.0157
14727TIP3    H165596   6.461   0.877   4.234 -0.0276 -0.5946  0.7303
14727TIP3    H265597   6.402   0.747   4.183 -0.4576  0.2257 -0.9252
14728TIP3   OH265598   0.565   0.196   0.333 -0.2129 -0.0730 -0.4456
14728TIP3    H165599   0.559   0.179   0.239 -0.4155 -1.5421 -0.1896
14728TIP3    H265600   0.508   0.271   0.348 -0.0378  0.2847 -1.5202
14729TIP3   OH265601   1.826   1.756  14.641  0.6476 -0.0518 -0.1437
14729TIP3    H165602   1.821   1.672  14.687 -0.2706 -0.8747 -1.6731
14729TIP3    H265603   1.920   1.774  14.634  0.8255 -0.2876  1.3311
14730TIP3   OH265604   6.387   5.111   3.334 -0.7624  0.5391  0.0024
14730TIP3    H165605   6.334   5.040   3.369  2.6939 -2.2829  0.0441
14730TIP3    H265606   6.401   5.169   3.408 -2.0575  0.2838  0.4786
14731TIP3   OH265607   4.667   1.568   0.136  0.0083 -0.5053 -0.3548
14731TIP3    H165608   4.739   1.529   0.186  0.5595 -1.2540 -1.6957
14731TIP3    H265609   4.631   1.496   0.086 -0.9009  0.1250 -0.6233
14732TIP3   OH265610   4.891   1.435  14.004 -0.7233  0.0689 -0.1427
14732TIP3    H165611   4.935   1.481  13.933  0.3129 -0.5580  0.0776
14732TIP3    H265612   4.810   1.484  14.018 -0.0385  1.3201 -0.4617
14733TIP3   OH265613   1.100   0.558   4.797 -0.2173 -0.3014 -0.4462
14733TIP3    H165614   1.050   0.635   4.771  0.3242  0.2523  0.0987
14733TIP3    H265615   1.158   0.539   4.723  2.0455  1.8767  0.6142
14734TIP3   OH265616   3.970   3.852   2.783 -0.7125  0.4034 -0.1212
14734TIP3    H165617   3.899   3.894   2.833  0.0404 -1.8841  3.1763
14734TIP3    H265618   4.039   3.918   2.780 -1.4061  1.1789  0.4277
14735TIP3   OH265619   3.673   2.642   0.241 -0.0150  0.1583  0.1789
14735TIP3    H165620   3.701   2.626   0.151 -1.9687  3.9932 -1.3211
14735TIP3    H265621   3.587   2.602   0.248  0.0462  0.0450  0.3109
14736TIP3   OH265622   0.457   4.897   2.259  0.4163  0.0770 -0.1187
14736TIP3    H165623   0.402   4.855   2.325 -0.4184 -0.5889 -1.2060
14736TIP3    H265624   0.463   4.833   2.188 -0.4467  1.5480 -1.6106
14737TIP3   OH265625   6.233   0.321   0.455 -0.2703 -0.1374 -0.0175
14737TIP3    H165626   6.202   0.325   0.546 -0.3830 -0.1737 -0.0554
14737TIP3    H265627   6.311   0.376   0.455 -0.8181  0.6536 -0.1227
14738TIP3   OH265628   4.636   4.486   2.569 -0.1968 -0.4090 -0.2717
14738TIP3    H165629   4.729   4.472   2.587 -0.0415 -0.2329 -0.9149
14738TIP3    H265630   4.597   4.502   2.655  0.3824 -0.4101 -0.0048
14739TIP3   OH265631   3.909   0.223  15.623  0.0850  0.0168  0.0841
14739TIP3    H165632   3.930   0.155  15.686  1.3058 -0.4895 -0.8327
14739TIP3    H265633   3.828   0.262  15.656 -0.6721 -1.8886  0.5986
14740TIP3   OH265634   3.248   6.011   3.864 -0.2228  0.6810 -0.2024
14740TIP3    H165635   3.170   5.966   3.897 -0.9425  0.9559 -1.4771
14740TIP3    H265636   3.251   6.092   3.915  0.4459 -0.2450  1.3202
14741TIP3   OH265637   1.257   4.479   2.855 -0.1634 -0.2040 -0.2070
14741TIP3    H165638   1.256   4.390   2.891 -2.3346  0.1627  0.7680
14741TIP3    H265639   1.309   4.471   2.775  0.2972 -2.1858  0.2329
14742TIP3   OH265640   4.578   4.973   5.118  0.2939 -0.3213 -0.4962
14742TIP3    H165641   4.497   4.937   5.082 -0.3635  1.9659 -1.4919
14742TIP3    H265642   4.570   4.961   5.213 -0.8137 -0.8376 -0.6422
14743TIP3   OH265643   4.241   4.960  13.711  0.1531  0.4091 -0.3713
14743TIP3    H165644   4.185   5.021  13.662 -0.6232  0.4299  0.5138
14743TIP3    H265645   4.233   4.987  13.802 -1.0299 -1.5899  0.2046
14744TIP3   OH265646   4.135   1.782  13.815 -0.0016  0.2095  0.0915
14744TIP3    H165647   4.118   1.827  13.732 -0.4091  1.6455  0.9103
14744TIP3    H265648   4.057   1.800  13.868  0.4947 -0.2164  0.9749
14745TIP3   OH265649   5.519   5.150   5.351  0.1024  0.0681 -0.2541
14745TIP3    H165650   5.501   5.244   5.356  0.8838  0.1767  0.8895
14745TIP3    H265651   5.434   5.111   5.330 -0.8449  0.8245  1.8302
14746TIP3   OH265652   6.552   3.640  11.080 -0.1250  0.0831 -0.3736
14746TIP3    H165653   6.575   3.562  11.030  1.0863 -0.9235  1.6028
14746TIP3    H265654   6.465   3.620  11.116 -0.2541  0.0716 -0.6935
14747TIP3   OH265655   5.311   2.217   3.374  0.3444 -0.3064 -0.6569
14747TIP3    H165656   5.400   2.181   3.376  0.1850 -0.7612  2.0200
14747TIP3    H265657   5.257   2.148   3.412 -0.6767  1.0209  0.4064
14748TIP3   OH265658   2.830   0.538   0.364  0.1920  0.3271  0.0602
14748TIP3    H165659   2.866   0.626   0.353  0.3270  0.1296 -1.1955
14748TIP3    H265660   2.906   0.480   0.362 -0.0835 -0.0695 -2.3570
14749TIP3   OH265661   5.457   5.901   6.812 -0.0887 -0.0500 -0.0575
14749TIP3    H165662   5.489   5.978   6.858 -1.2834  2.0658 -2.4965
14749TIP3    H265663   5.507   5.828   6.849  0.9696  1.8212  2.4979
14750TIP3   OH265664   2.448   1.643   0.800 -0.3252 -0.4555  0.9273
14750TIP3    H165665   2.415   1.663   0.888 -1.2926 -0.7963  0.6500
14750TIP3    H265666   2.462   1.729   0.761 -2.6142 -0.2359  0.4347
14751TIP3   OH265667   2.835   5.168  16.451 -0.4771  0.5948  0.2105
14751TIP3    H165668   2.743   5.160  16.427 -0.3017  1.0818 -0.6344
14751TIP3    H265669   2.849   5.262  16.464  0.0609  0.5984 -0.3447
14752TIP3   OH265670   6.674   1.063  12.134 -0.0128 -0.2390  0.2463
14752TIP3    H165671   6.731   0.994  12.169  0.7452  1.0545  1.7155
14752TIP3    H265672   6.720   1.093  12.055  1.2344  0.5797  1.2456
14753TIP3   OH265673   6.237   1.705   1.487  0.6435  0.0278 -0.1006
14753TIP3    H165674   6.149   1.698   1.525  1.2155 -1.7117  1.0183
14753TIP3    H265675   6.222   1.743   1.400 -0.9574  1.8326  0.8797
14754TIP3   OH265676   6.428   3.285  12.055  0.3367  0.5641  0.5653
14754TIP3    H165677   6.522   3.269  12.043  0.5181  1.0523  1.2746
14754TIP3    H265678   6.423   3.373  12.093 -0.3979  0.4651  0.7157
14755TIP3   OH265679   0.652   4.284  13.214 -0.4883  0.1350 -0.5714
14755TIP3    H165680   0.672   4.367  13.257 -0.1336 -0.7686  1.0844
14755TIP3    H265681   0.561   4.266  13.239 -0.0333 -0.7791  0.5143
14756TIP3   OH265682   0.147   1.005   4.415 -0.1240  0.0822 -0.0464
14756TIP3    H165683   0.195   0.984   4.495 -1.1042  0.6557  0.7161
14756TIP3    H265684   0.211   0.994   4.345  0.9611  0.2836  0.8800
14757TIP3   OH265685   2.570   1.869   5.556 -0.4137  0.3415  0.0572
14757TIP3    H165686   2.623   1.792   5.539 -1.1000  0.0960 -1.1382
14757TIP3    H265687   2.482   1.835   5.570 -1.1813  0.9401 -2.5501
14758TIP3   OH265688   4.932   5.276   4.760  0.2937  0.4309  0.5431
14758TIP3    H165689   4.922   5.232   4.844 -1.0459  0.3525  0.3566
14758TIP3    H265690   4.965   5.363   4.782 -0.5967  0.6118  1.2027
14759TIP3   OH265691   2.832   2.260  14.895  0.0327 -0.2747 -0.5443
14759TIP3    H165692   2.879   2.220  14.969 -0.7980 -1.3086 -0.5462
14759TIP3    H265693   2.780   2.188  14.859 -1.6080  0.8506 -0.5087
14760TIP3   OH265694   3.483   5.517  13.090 -0.3856  0.1530  0.0936
14760TIP3    H165695   3.540   5.585  13.055 -3.1856  1.6013 -2.0787
14760TIP3    H265696   3.474   5.539  13.183  1.3052  0.7804  0.1350
14761TIP3   OH265697   6.491   0.778  16.694 -0.2045  0.2481  0.3199
14761TIP3    H165698   6.560   0.717  16.670 -0.5081 -0.5611  1.4160
14761TIP3    H265699   6.414   0.723  16.708 -1.0048  1.1019 -0.5600
14762TIP3   OH265700   4.346   1.042  11.587 -0.0636 -0.2502  0.3262
14762TIP3    H165701   4.311   1.073  11.671  0.6268 -0.0178  0.5398
14762TIP3    H265702   4.362   0.949  11.601  0.5833 -0.0980  0.6482
14763TIP3   OH265703   3.178   4.332   2.405  0.1809 -0.1708  0.5838
14763TIP3    H165704   3.212   4.412   2.446 -0.3177 -0.3506  1.3668
14763TIP3    H265705   3.125   4.364   2.332 -0.4839  0.2510  1.2360
14764TIP3   OH265706   2.391   5.141  11.451  0.6214  0.1391  0.4425
14764TIP3    H165707   2.300   5.169  11.456  0.8939  1.1138  0.2554
14764TIP3    H265708   2.441   5.220  11.471  1.4290 -0.2585  0.0429
14765TIP3   OH265709   2.985   1.577  14.287 -0.1528 -0.0821 -0.0552
14765TIP3    H165710   2.978   1.670  14.265  0.3721  0.2370  1.0743
14765TIP3    H265711   2.899   1.541  14.265 -0.0468  0.4468 -1.4355
14766TIP3   OH265712   1.319   5.391  13.287  0.2675  0.2946  0.1856
14766TIP3    H165713   1.397   5.376  13.234 -0.0942  0.1984 -0.3365
14766TIP3    H265714   1.278   5.305  13.293 -2.7368  1.0722 -4.2770
14767TIP3   OH265715   1.046   2.046   1.551  0.1171  0.1610 -0.8267
14767TIP3    H165716   1.089   1.987   1.614  1.3729  1.1439 -0.7365
14767TIP3    H265717   1.108   2.053   1.478 -0.7211  0.1412 -1.5540
14768TIP3   OH265718   2.246   0.914  13.476  0.3025  0.0004  0.4899
14768TIP3    H165719   2.318   0.864  13.514  0.5923 -0.7956 -1.0651
14768TIP3    H265720   2.283   1.001  13.460  0.3186  0.1992  1.5208
14769TIP3   OH265721   1.469   3.580   1.042  0.2553 -0.3883 -0.3812
14769TIP3    H165722   1.465   3.662   0.992  2.1592 -0.7369 -1.1612
14769TIP3    H265723   1.496   3.514   0.979 -3.7281 -2.2873 -0.4152
14770TIP3   OH265724   5.319   2.429  14.797  0.2786 -0.2437  0.1164
14770TIP3    H165725   5.322   2.437  14.892 -2.6554 -2.1464  0.5012
14770TIP3    H265726   5.378   2.356  14.777  0.9640  0.2127  0.4064
14771TIP3   OH265727   3.299   0.985   2.752  0.1104 -0.0658 -0.2758
14771TIP3    H165728   3.287   1.065   2.805 -1.9609 -0.9494  0.7033
14771TIP3    H265729   3.242   0.998   2.676 -1.4377 -1.1455  0.6231
14772TIP3   OH265730   0.477   3.498  16.225  0.0127  0.1101 -0.0009
14772TIP3    H165731   0.493   3.583  16.184  0.8624  0.4467  0.9861
14772TIP3    H265732   0.557   3.448  16.211 -0.8095 -0.9141 -1.3851
14773TIP3   OH265733   3.728   4.900   1.591  0.5383 -0.1832 -0.0218
14773TIP3    H165734   3.641   4.869   1.566  0.3968  0.5437 -0.4567
14773TIP3    H265735   3.710   4.976   1.647  0.8804 -0.7288  0.8491
14774TIP3   OH265736   4.463   3.624  17.311  0.4484  0.0779  0.3401
14774TIP3    H165737   4.436   3.532  17.316 -0.0058  0.2706  2.0942
14774TIP3    H265738   4.558   3.621  17.319  0.3957 -0.2146  0.8947
14775TIP3   OH265739   2.365   3.999  11.047 -0.0459 -0.2154  0.5294
14775TIP3    H165740   2.273   4.023  11.057 -0.6723 -1.9206 -0.5738
14775TIP3    H265741   2.364   3.903  11.043  1.2441 -0.2555 -3.3404
14776TIP3   OH265742   5.238   5.455   5.759  0.1647 -0.0154  0.0087
14776TIP3    H165743   5.312   5.412   5.801  0.6141 -0.3114 -1.0639
14776TIP3    H265744   5.272   5.540   5.731 -0.0130  0.0116 -0.1303
14777TIP3   OH265745   1.757   5.871   3.950 -0.0016 -0.3843  0.4351
14777TIP3    H165746   1.667   5.847   3.972  0.3313 -2.7164 -0.4316
14777TIP3    H265747   1.809   5.832   4.021  0.4879 -1.4570 -0.4744
14778TIP3   OH265748   6.331   6.659   3.491  0.2030 -0.1480 -1.1281
14778TIP3    H165749   6.334   6.565   3.512  0.0568  0.0544 -0.1381
14778TIP3    H265750   6.245   6.672   3.453 -0.1591 -0.2468 -0.3610
14779TIP3   OH265751   5.140   0.020  16.642  0.2588 -0.0814  0.7462
14779TIP3    H165752   5.187   0.082  16.586 -1.1353 -0.4401 -0.9073
14779TIP3    H265753   5.170   0.040  16.730  2.4772  0.5707 -0.0964
14780TIP3   OH265754   5.433   2.603   5.166 -0.4235 -0.1922  0.0877
14780TIP3    H165755   5.434   2.694   5.195 -0.1186 -0.0847 -0.2478
14780TIP3    H265756   5.521   2.588   5.132  0.0875 -1.1405  1.7407
14781TIP3   OH265757   0.129   6.269   1.439  0.0704  0.5563  0.2903
14781TIP3    H165758   0.083   6.236   1.516 -0.6316 -0.1345 -0.4074
14781TIP3    H265759   0.063   6.271   1.370  1.1034 -0.6905 -0.8003
14782TIP3   OH265760   5.691   2.662   3.308 -0.0208 -0.0559  0.7984
14782TIP3    H165761   5.758   2.725   3.334 -0.2739  0.0980  1.0812
14782TIP3    H265762   5.617   2.680   3.366 -0.7048  0.4952 -0.2182
14783TIP3   OH265763   0.595   1.301  13.015  0.3899  0.1626 -0.0544
14783TIP3    H165764   0.639   1.386  13.005 -0.6433  0.9919  1.7269
14783TIP3    H265765   0.666   1.237  13.019  1.1799  0.8882 -1.6963
14784TIP3   OH265766   5.460   4.433   1.141  0.2227  0.6729  0.5461
14784TIP3    H165767   5.396   4.398   1.203  0.9477 -0.1121  0.8671
14784TIP3    H265768   5.415   4.431   1.056 -0.6314  1.3666  0.9626
14785TIP3   OH265769   4.216   1.181  12.646  0.0460  0.3343 -0.1979
14785TIP3    H165770   4.266   1.259  12.622  0.0902  0.6923  0.9678
14785TIP3    H265771   4.214   1.183  12.742 -1.5492 -0.0786 -0.1859
14786TIP3   OH265772   3.609   6.560   6.291 -0.4427 -0.4237 -0.0453
14786TIP3    H165773   3.595   6.494   6.223 -1.1358 -0.8029  0.4628
14786TIP3    H265774   3.621   6.510   6.372  1.0401 -0.0109  0.0330
14787TIP3   OH265775   6.633   3.214   0.152 -0.7449  0.6319  0.2658
14787TIP3    H165776   6.640   3.149   0.083 -0.6841  0.2733  0.6016
14787TIP3    H265777   6.690   3.181   0.222  0.9960  2.1211 -0.3701
14788TIP3   OH265778   1.974   0.936   5.441  0.4428 -0.2493 -0.9494
14788TIP3    H165779   1.925   0.900   5.367 -0.9506 -1.0944  0.3351
14788TIP3    H265780   1.967   0.870   5.509  3.0747 -0.2159 -0.5479
14789TIP3   OH265781   1.204   2.488   3.585 -0.1818  0.3945  0.0128
14789TIP3    H165782   1.127   2.532   3.547 -0.7790  0.3928  1.1911
14789TIP3    H265783   1.174   2.456   3.670  0.5729 -1.2901 -0.3154
14790TIP3   OH265784   4.982   3.168  12.635 -0.3876 -0.0234 -0.5450
14790TIP3    H165785   4.936   3.252  12.626 -1.8275 -0.7924 -0.6058
14790TIP3    H265786   4.945   3.129  12.714  0.4288 -0.5210 -0.4032
14791TIP3   OH265787   4.917   5.974  13.348 -0.2740  0.0042  0.0057
14791TIP3    H165788   4.989   6.001  13.291 -2.0505  2.7517 -1.1408
14791TIP3    H265789   4.852   5.937  13.289 -0.5954 -0.7339  0.7908
14792TIP3   OH265790   0.966   0.397  14.925 -0.4964 -0.5520 -0.6106
14792TIP3    H165791   0.969   0.383  14.830 -0.6750 -0.8530 -0.5701
14792TIP3    H265792   1.047   0.357  14.958 -0.1572  0.0454 -0.6983
14793TIP3   OH265793   1.217   6.007  11.952 -0.3423 -0.3053  0.0296
14793TIP3    H165794   1.254   6.031  11.867  1.9972 -1.9607  0.4821
14793TIP3    H265795   1.134   5.964  11.932  1.0628 -2.4145 -1.6444
14794TIP3   OH265796   3.777   3.105  10.482  0.0060  0.4350  0.6451
14794TIP3    H165797   3.696   3.058  10.506 -0.3051 -0.9574 -2.6396
14794TIP3    H265798   3.746   3.185  10.439  0.3006 -0.3846 -1.1506
14795TIP3   OH265799   1.366   5.988  11.127 -0.4720 -0.3076 -0.2150
14795TIP3    H165800   1.378   5.982  11.222 -1.7451 -1.9245 -0.1075
14795TIP3    H265801   1.371   6.081  11.108  1.4603 -0.0674  1.1904
14796TIP3   OH265802   5.671   5.527   1.799  0.4373  0.2469 -0.4376
14796TIP3    H165803   5.657   5.585   1.874  0.2302  0.7915 -0.8856
14796TIP3    H265804   5.766   5.518   1.793  0.4228 -0.8348  0.6539
14797TIP3   OH265805   3.357   3.236  14.426  0.2438  1.3004 -0.2380
14797TIP3    H165806   3.415   3.200  14.493  2.7436  1.7936 -1.9807
14797TIP3    H265807   3.303   3.162  14.399  2.1716 -0.0645 -0.6032
14798TIP3   OH265808   3.996   0.902  17.058 -0.4838 -0.0368  0.3022
14798TIP3    H165809   4.005   0.991  17.092  0.0317 -0.1839  0.5795
14798TIP3    H265810   3.969   0.913  16.967  0.3417  0.4310  0.0998
14799TIP3   OH265811   4.925   3.626  14.622 -0.5351  0.3848  0.2395
14799TIP3    H165812   4.878   3.661  14.546  1.6476  2.0207 -0.4634
14799TIP3    H265813   4.883   3.667  14.697 -1.2540  0.5559 -0.2405
14800TIP3   OH265814   6.666   1.736  15.933 -0.0003  0.4662 -0.5216
14800TIP3    H165815   6.693   1.765  15.845  1.7061  0.6972  0.0316
14800TIP3    H265816   6.713   1.654  15.947  0.0105  0.6054  0.3080
14801TIP3   OH265817   6.093   3.460  12.996 -0.3601  0.7298  0.0329
14801TIP3    H165818   6.018   3.427  13.047 -0.6598  0.1416 -0.7717
14801TIP3    H265819   6.145   3.381  12.978  0.4026  1.1161  0.4762
14802TIP3   OH265820   4.093   5.370   2.430  0.4893 -0.3792  0.2847
14802TIP3    H165821   4.004   5.342   2.406  0.6067  0.0631 -0.6947
14802TIP3    H265822   4.089   5.382   2.525 -1.0741  1.5971  0.0361
14803TIP3   OH265823   1.917   5.599   3.500  0.4214 -0.6766  0.2268
14803TIP3    H165824   1.846   5.619   3.561  1.7483 -1.5207  2.1173
14803TIP3    H265825   1.903   5.508   3.476  1.2655 -1.0736  1.1954
14804TIP3   OH265826   3.527   2.646  12.486 -0.2853 -0.3317  0.2932
14804TIP3    H165827   3.456   2.679  12.430 -1.1167 -0.5881  1.1665
14804TIP3    H265828   3.607   2.670  12.440 -0.9474 -1.4430 -1.5349
14805TIP3   OH265829   6.141   4.473  17.233 -0.3430 -0.3370 -0.3514
14805TIP3    H165830   6.090   4.435  17.304  0.3989 -1.1388 -0.2302
14805TIP3    H265831   6.201   4.534  17.275 -0.1582 -0.5350 -0.3259
14806TIP3   OH265832   2.976   3.904  13.553 -0.5507  0.2604 -0.4227
14806TIP3    H165833   2.945   3.888  13.463 -0.5596  1.5310 -0.6590
14806TIP3    H265834   3.050   3.844  13.563  1.4297  2.2121 -2.3720
14807TIP3   OH265835   1.208   6.141   5.931  0.6103 -0.2381  0.5635
14807TIP3    H165836   1.223   6.229   5.966  0.6181  0.9982 -2.2715
14807TIP3    H265837   1.291   6.095   5.946  1.4612  1.0486 -0.0364
14808TIP3   OH265838   0.335   0.221  12.902 -0.2343 -0.0974 -0.3928
14808TIP3    H165839   0.260   0.245  12.957  0.1318 -0.3045  0.2096
14808TIP3    H265840   0.316   0.133  12.871  0.4367 -0.7570  0.9926
14809TIP3   OH265841   4.329   3.060  14.612  0.2281  0.2598  0.1528
14809TIP3    H165842   4.301   3.125  14.676 -0.1366 -0.2552  0.5189
14809TIP3    H265843   4.350   3.111  14.533 -1.8972  0.6583 -0.2170
14810TIP3   OH265844   0.470   2.455  15.186  0.2869  0.5888 -0.3403
14810TIP3    H165845   0.549   2.442  15.133  0.6247  0.8990  0.0842
14810TIP3    H265846   0.481   2.542  15.225  0.7471 -0.2261  1.4300
14811TIP3   OH265847   2.444   3.143  12.901  0.0057  0.0457 -0.4947
14811TIP3    H165848   2.400   3.161  12.984 -0.0390  0.2612 -0.5633
14811TIP3    H265849   2.533   3.117  12.927 -0.5932 -1.8973 -0.2779
14812TIP3   OH265850   1.878   3.627   5.379 -0.0440 -0.1696 -0.5782
14812TIP3    H165851   1.911   3.550   5.331  1.0679 -0.4546  0.5770
14812TIP3    H265852   1.953   3.656   5.431 -0.8637  0.8681  0.0555
14813TIP3   OH265853   6.183   1.645   1.810 -0.2167 -0.0881 -0.5493
14813TIP3    H165854   6.183   1.594   1.892  0.8299  0.3814 -0.2464
14813TIP3    H265855   6.275   1.647   1.783 -0.1393  2.0391 -0.2946
14814TIP3   OH265856   4.917   6.679   3.304 -0.5049 -0.4926 -0.1782
14814TIP3    H165857   4.896   6.604   3.249 -1.0930  0.0531 -0.7084
14814TIP3    H265858   4.860   6.749   3.272 -0.7010 -0.1037  0.9808
14815TIP3   OH265859   6.590   3.222  12.637  0.1660  0.0741 -0.2038
14815TIP3    H165860   6.533   3.154  12.672  0.0712  0.3585  0.2100
14815TIP3    H265861   6.594   3.206  12.543  0.7745 -0.9827 -0.0062
14816TIP3   OH265862   5.349   6.591  11.107 -0.0010  0.3594  0.5294
14816TIP3    H165863   5.331   6.567  11.198  0.0658  1.4664  0.8418
14816TIP3    H265864   5.350   6.686  11.106  3.9221  0.4983  0.1960
14817TIP3   OH265865   5.089   4.860   1.478 -0.4222  0.0497 -0.2901
14817TIP3    H165866   5.002   4.848   1.439 -1.2126 -0.8183  1.6070
14817TIP3    H265867   5.110   4.951   1.462 -1.4576  0.1394 -1.2491
14818TIP3   OH265868   1.350   4.746  15.316  0.0893 -0.0405  0.3759
14818TIP3    H165869   1.311   4.802  15.383 -0.5286  1.5799 -1.2464
14818TIP3    H265870   1.335   4.793  15.234  1.4021 -1.6229 -0.8396
14819TIP3   OH265871   3.119   0.595   5.348 -0.5265  0.0968  0.3875
14819TIP3    H165872   3.101   0.651   5.424 -2.3996 -2.1474  1.7127
14819TIP3    H265873   3.062   0.629   5.279 -1.6409 -0.1235  1.1736
14820TIP3   OH265874   1.614   1.279   0.822 -0.3780 -0.0693  0.1028
14820TIP3    H165875   1.563   1.335   0.880  0.6173  0.2288  0.7069
14820TIP3    H265876   1.563   1.276   0.741 -1.1756  0.5041  0.5708
14821TIP3   OH265877   3.806   1.274  14.008  0.1335  0.1904  0.0199
14821TIP3    H165878   3.844   1.331  14.074  1.6376 -0.4974 -0.2046
14821TIP3    H265879   3.826   1.317  13.925 -0.8722  0.5424 -0.0590
14822TIP3   OH265880   5.034   2.871  12.955 -0.4005 -0.3782 -0.0665
14822TIP3    H165881   5.063   2.956  12.988  0.8854 -1.3800  1.5183
14822TIP3    H265882   4.938   2.878  12.954 -0.3260  1.0269  0.1318
14823TIP3   OH265883   3.838   4.377   4.140  0.5000 -0.2559  0.2644
14823TIP3    H165884   3.747   4.371   4.170  0.1779  0.6601 -0.4655
14823TIP3    H265885   3.888   4.329   4.205 -0.4496 -0.3472  0.9517
14824TIP3   OH265886   1.573   1.013   0.471 -0.2976  0.6425  0.2592
14824TIP3    H165887   1.543   1.024   0.381 -0.0767  0.7043  0.1937
14824TIP3    H265888   1.600   0.921   0.477 -0.9312  0.4619  0.4478
14825TIP3   OH265889   3.022   0.342  11.534 -0.1949  0.5400 -0.6348
14825TIP3    H165890   2.973   0.266  11.504 -0.6626  0.7419 -0.3862
14825TIP3    H265891   3.018   0.339  11.629 -0.5227  1.0687 -0.6254
14826TIP3   OH265892   3.677   5.432  10.507 -0.4945 -0.0192  0.1720
14826TIP3    H165893   3.713   5.351  10.544 -0.5340  0.8741  2.2900
14826TIP3    H265894   3.582   5.424  10.518 -0.8446 -1.0098 -2.5789
14827TIP3   OH265895   6.536   5.279  16.905 -0.4393 -0.0100  0.2784
14827TIP3    H165896   6.524   5.217  16.977  0.2829 -0.4408  0.0449
14827TIP3    H265897   6.584   5.229  16.839  1.4356  1.1884  0.6584
14828TIP3   OH265898   2.786   2.554  15.532 -0.7069 -0.1034 -0.1987
14828TIP3    H165899   2.773   2.521  15.621 -2.6513 -0.3707 -0.5366
14828TIP3    H265900   2.702   2.540  15.489  0.0595  0.4410 -1.9564
14829TIP3   OH265901   1.625   5.646  13.417  0.3749 -0.2256  0.2566
14829TIP3    H165902   1.644   5.703  13.343  1.2421  0.6047  1.0930
14829TIP3    H265903   1.594   5.706  13.485 -1.0677 -1.0494  0.3682
14830TIP3   OH265904   5.712   4.945   5.420  0.6330  0.4344 -0.3020
14830TIP3    H165905   5.666   4.883   5.364  1.1059 -0.5872  0.4138
14830TIP3    H265906   5.656   5.023   5.421 -0.5103 -0.3620 -0.3612
14831TIP3   OH265907   2.274   1.451  11.219 -0.0611 -0.0568 -0.1527
14831TIP3    H165908   2.196   1.507  11.218  0.2767  0.4179 -0.0355
14831TIP3    H265909   2.328   1.484  11.147  0.5178  0.3099  0.4509
14832TIP3   OH265910   5.098   3.214   3.028  0.3583  0.7017  0.2814
14832TIP3    H165911   5.130   3.218   2.938  1.4006 -5.0810  0.0426
14832TIP3    H265912   5.006   3.240   3.022  0.8058  2.0535 -2.0784
14833TIP3   OH265913   5.666   6.150   5.173  0.0969 -0.5681 -1.1435
14833TIP3    H165914   5.644   6.099   5.251 -0.4615 -0.6369 -1.3395
14833TIP3    H265915   5.718   6.091   5.119  1.2233 -0.2398 -0.4484
14834TIP3   OH265916   0.044   0.858  15.404 -0.5493 -0.1004 -0.0088
14834TIP3    H165917  -0.017   0.814  15.463 -2.0399 -1.1703 -2.1893
14834TIP3    H265918   0.071   0.936  15.451 -0.9112 -1.3409  2.4251
14835TIP3   OH265919   3.805   0.041   2.205  0.8259  0.0537  0.1384
14835TIP3    H165920   3.801   0.095   2.284  1.5818  0.6659 -0.2304
14835TIP3    H265921   3.715   0.038   2.173  0.8266  1.4283 -0.0428
14836TIP3   OH265922   5.342   5.596   2.682 -0.2081  0.3492 -0.4649
14836TIP3    H165923   5.327   5.689   2.698  1.9050  0.8791 -1.2790
14836TIP3    H265924   5.384   5.593   2.596  2.3936 -1.0704  0.7382
14837TIP3   OH265925   1.951   3.279  15.469  0.0097 -0.3091  0.6917
14837TIP3    H165926   1.991   3.347  15.524  0.1990  0.7880 -0.7540
14837TIP3    H265927   1.986   3.294  15.382 -0.0268 -2.2315  0.2923
14838TIP3   OH265928   3.851   2.685  13.955 -0.0614  0.5696  0.3101
14838TIP3    H165929   3.849   2.616  13.890  0.1530  2.2899 -1.6307
14838TIP3    H265930   3.932   2.671  14.003 -0.7697 -1.3871  1.0457
14839TIP3   OH265931   4.024   5.988   1.157 -0.0012  0.3418 -0.3212
14839TIP3    H165932   4.057   5.968   1.244 -3.1050 -1.1145  0.6810
14839TIP3    H265933   4.036   6.082   1.147 -1.8814  1.0637  2.8933
14840TIP3   OH265934   0.855   5.759   2.357  0.0895  0.7322 -0.5220
14840TIP3    H165935   0.788   5.816   2.396  1.0822 -0.3948  3.3306
14840TIP3    H265936   0.813   5.673   2.352  0.3952  0.5907 -0.6824
14841TIP3   OH265937   0.161   2.518  12.732  0.4759  0.0788  0.4055
14841TIP3    H165938   0.249   2.497  12.702  0.5801  1.2564 -0.1415
14841TIP3    H265939   0.104   2.461  12.680  0.7521  1.1406 -1.1045
14842TIP3   OH265940   6.103   1.082   3.777  0.4364 -0.3075 -0.3065
14842TIP3    H165941   6.145   1.132   3.707  0.8461 -1.5032 -0.9528
14842TIP3    H265942   6.029   1.136   3.804  1.5102  1.1675 -0.1618
14843TIP3   OH265943   0.588   4.464   1.689 -0.6528 -0.0765  0.2768
14843TIP3    H165944   0.645   4.388   1.678  1.6337  1.5404  0.2435
14843TIP3    H265945   0.511   4.445   1.635  0.1032 -2.0851 -0.1661
14844TIP3   OH265946   1.814   4.861  13.372  1.2563  0.5476  0.2916
14844TIP3    H165947   1.806   4.770  13.399  0.0801  0.9909  1.5841
14844TIP3    H265948   1.765   4.910  13.439  0.6335  1.9904 -1.1426
14845TIP3   OH265949   0.427   5.723   0.535  0.3603  0.3408 -0.1288
14845TIP3    H165950   0.429   5.632   0.503  0.1747 -0.0026  0.7982
14845TIP3    H265951   0.496   5.726   0.602 -0.6160  0.4548  0.9169
14846TIP3   OH265952   1.633   0.103  12.114  0.1155  0.0542 -0.1913
14846TIP3    H165953   1.702   0.062  12.062 -0.1249  0.8290 -1.1447
14846TIP3    H265954   1.679   0.149  12.184  0.8019  2.6276 -2.2212
14847TIP3   OH265955   5.999   0.027   6.700  0.2901 -0.3521 -0.4837
14847TIP3    H165956   5.946  -0.044   6.664  0.1941 -0.5321  0.0182
14847TIP3    H265957   6.079   0.025   6.648  0.0885 -0.5119 -0.7956
14848TIP3   OH265958   3.985   3.188   5.444  0.1520  0.3313  0.1666
14848TIP3    H165959   3.890   3.199   5.440  0.0563 -0.0864  1.0014
14848TIP3    H265960   4.000   3.137   5.524  0.8529 -2.2029 -1.4740
14849TIP3   OH265961   2.404   0.850  11.656 -0.0700  0.0485  0.1917
14849TIP3    H165962   2.463   0.922  11.634  1.3942 -1.7594 -2.2711
14849TIP3    H265963   2.462   0.783  11.693 -0.8242 -1.1089 -0.6691
14850TIP3   OH265964   6.234   2.422  15.848  0.2451  0.2684 -0.1294
14850TIP3    H165965   6.174   2.397  15.918  0.8066  0.3924  0.4093
14850TIP3    H265966   6.240   2.518  15.854 -0.7949  0.4270 -1.2666
14851TIP3   OH265967   3.951   5.158   4.638 -0.3657 -0.5034  0.0729
14851TIP3    H165968   3.894   5.155   4.715 -0.4637 -0.0109  0.0215
14851TIP3    H265969   3.892   5.150   4.563 -0.3994  0.1874  0.0127
14852TIP3   OH265970   0.486   2.515   3.896  0.1246  0.5716  0.3608
14852TIP3    H165971   0.464   2.585   3.835 -0.5884 -0.1758 -0.2719
14852TIP3    H265972   0.403   2.493   3.938 -0.3374 -1.8380 -1.5589
14853TIP3   OH265973   0.598   6.395  14.164 -0.0357  0.4533 -0.2870
14853TIP3    H165974   0.528   6.381  14.228 -0.4402 -1.9597 -1.1544
14853TIP3    H265975   0.659   6.323  14.179  1.8512  1.9886 -0.1642
14854TIP3   OH265976   3.733   0.229  16.569 -0.1808 -0.5641  0.1297
14854TIP3    H165977   3.703   0.266  16.652  2.8043 -1.2664  1.6386
14854TIP3    H265978   3.819   0.192  16.588  1.2566  0.3840 -3.5890
14855TIP3   OH265979   4.751   2.662   5.604  0.0141 -0.1084 -0.1814
14855TIP3    H165980   4.759   2.679   5.510  0.1709 -2.5717 -0.6780
14855TIP3    H265981   4.826   2.708   5.643 -0.0257  0.9034 -1.2328
14856TIP3   OH265982   1.578   3.909  12.707 -0.2304  0.1489  0.0557
14856TIP3    H165983   1.484   3.909  12.691 -0.2858 -2.0545  0.1454
14856TIP3    H265984   1.592   3.835  12.766  1.5745  0.3783 -0.0391
14857TIP3   OH265985   4.915   6.287  13.099 -0.3171  0.2897  0.0368
14857TIP3    H165986   4.845   6.320  13.154 -0.9408 -0.1732 -0.4549
14857TIP3    H265987   4.968   6.233  13.157 -0.6714  0.2249  0.3017
14858TIP3   OH265988   3.012   0.288  15.774 -0.3869  0.4132  0.1732
14858TIP3    H165989   3.071   0.363  15.784  0.3026 -0.3061  1.7429
14858TIP3    H265990   2.938   0.308  15.831 -0.4419  0.1232  0.2033
14859TIP3   OH265991   4.698   4.939   0.207 -0.0718 -0.8478  0.2006
14859TIP3    H165992   4.764   4.871   0.193  0.9989  0.4435 -1.3147
14859TIP3    H265993   4.717   5.006   0.141 -2.1711  0.1294  0.4852
14860TIP3   OH265994   6.000   6.318  15.322  0.1336  0.4681  0.6368
14860TIP3    H165995   5.909   6.317  15.351 -0.3860 -1.1498 -0.8814
14860TIP3    H265996   6.049   6.279  15.394 -0.9137 -2.1252  0.0537
14861TIP3   OH265997   6.747   3.097   6.546  0.3069 -0.2431  0.1866
14861TIP3    H165998   6.678   3.136   6.599 -0.6360 -0.8859 -0.5115
14861TIP3    H265999   6.803   3.170   6.520  0.1546  0.2250  1.1412
14862TIP3   OH266000   5.657   1.189   4.775 -0.1938 -0.0112  0.1281
14862TIP3    H166001   5.679   1.277   4.746  2.1319 -0.1181  1.3723
14862TIP3    H266002   5.701   1.131   4.713  1.3922 -0.2435  1.4193
14863TIP3   OH266003   6.416   1.729  14.302  0.4251 -0.2114 -0.2037
14863TIP3    H166004   6.414   1.704  14.395 -1.0687 -3.1176 -0.8925
14863TIP3    H266005   6.496   1.688  14.268  1.3683  1.4670 -0.1272
14864TIP3   OH266006   3.052   6.627   4.462 -0.2325  0.3208 -0.1452
14864TIP3    H166007   3.009   6.636   4.377 -0.3409  1.1185 -0.0152
14864TIP3    H266008   3.014   6.697   4.515  0.4762  0.3856  0.2838
14865TIP3   OH266009   6.120   4.333  14.013  0.1224 -0.2695  0.0727
14865TIP3    H166010   6.105   4.427  14.001  0.5213 -0.0502  1.1808
14865TIP3    H266011   6.212   4.320  13.989  0.5425 -0.0628  1.4775
14866TIP3   OH266012   0.394   6.077  15.249 -0.0647 -0.3685  0.5191
14866TIP3    H166013   0.363   6.012  15.185 -0.4867  1.9085 -1.7821
14866TIP3    H266014   0.401   6.158  15.198  2.8535  0.8639  2.6556
14867TIP3   OH266015   4.672   3.377  10.868  0.1318  0.5769  0.3629
14867TIP3    H166016   4.610   3.356  10.938  0.3120 -0.8461  0.1195
14867TIP3    H266017   4.624   3.435  10.809 -0.2225  1.2943  1.3186
14868TIP3   OH266018   0.689   0.933  14.137 -0.1599  0.6048 -0.1734
14868TIP3    H166019   0.779   0.961  14.148 -0.2264  0.8212 -0.1818
14868TIP3    H266020   0.656   0.920  14.226 -0.2410  0.9061 -0.1609
14869TIP3   OH266021   0.203   5.074  14.312 -0.2893 -0.1838 -0.5380
14869TIP3    H166022   0.181   5.166  14.324  0.6329 -0.0599  0.2954
14869TIP3    H266023   0.166   5.029  14.388 -0.6680 -0.4888 -0.8995
14870TIP3   OH266024   3.074   5.930   4.586  0.3434  0.0863  0.3200
14870TIP3    H166025   3.049   5.862   4.523  0.9575 -1.5921  1.8079
14870TIP3    H266026   2.996   5.984   4.596  0.6781  1.4635 -3.0390
14871TIP3   OH266027   5.526   1.992   5.842 -0.0223  0.3321  0.4268
14871TIP3    H166028   5.464   2.026   5.906 -0.5211  0.8502 -0.3241
14871TIP3    H266029   5.611   1.999   5.886 -0.0568  2.8213  0.2189
14872TIP3   OH266030   3.557   6.030  15.975  0.2896  0.0629 -0.2660
14872TIP3    H166031   3.527   5.968  16.042  0.6355  0.5843  0.3797
14872TIP3    H266032   3.477   6.061  15.934 -0.1034  1.4881  1.4811
14873TIP3   OH266033   5.173   2.340  12.638 -0.5889 -0.8221 -0.1607
14873TIP3    H166034   5.261   2.366  12.666 -0.5131 -2.2155  1.0167
14873TIP3    H266035   5.182   2.319  12.545  0.4638 -1.4741  0.0713
14874TIP3   OH266036   2.664   3.188  15.766 -0.0499  0.4733  0.2619
14874TIP3    H166037   2.579   3.186  15.723  0.5995  3.3251 -1.4630
14874TIP3    H266038   2.705   3.268  15.733  3.1789 -0.6112  1.2806
14875TIP3   OH266039   4.494   6.018  16.173  0.2345  0.1318 -0.3953
14875TIP3    H166040   4.469   6.109  16.155  0.2619  0.7043  2.0938
14875TIP3    H266041   4.589   6.018  16.163  0.2463  0.4005 -0.3007
14876TIP3   OH266042   0.618   4.859  13.022  0.1112  0.6461 -0.6147
14876TIP3    H166043   0.524   4.878  13.018 -0.0745 -0.0161  0.2886
14876TIP3    H266044   0.660   4.944  13.018 -0.6775  1.3702  2.8939
14877TIP3   OH266045   2.144   2.675  15.330 -0.3914  0.1132  0.1524
14877TIP3    H166046   2.107   2.753  15.373 -1.1863 -0.4584  0.5344
14877TIP3    H266047   2.196   2.710  15.258 -2.2291  0.9476 -0.8354
14878TIP3   OH266048   5.107   2.750   4.477 -0.4760  0.2045  0.0092
14878TIP3    H166049   5.124   2.783   4.389 -0.8690  1.7687  0.4934
14878TIP3    H266050   5.051   2.674   4.464  1.1823 -0.8791 -1.1895
14879TIP3   OH266051   3.691   0.606  15.014 -0.2827  0.0679  0.0361
14879TIP3    H166052   3.622   0.555  14.971 -0.1682  0.5791 -0.7707
14879TIP3    H266053   3.652   0.632  15.098 -1.3951  1.0611 -0.7574
14880TIP3   OH266054   0.446   0.798  12.893  0.0620 -0.0578 -0.0995
14880TIP3    H166055   0.488   0.779  12.978  4.8503 -0.5239 -2.2228
14880TIP3    H266056   0.423   0.891  12.898  1.1031  0.1635  1.4476
14881TIP3   OH266057   0.768   3.765  14.745  0.2533 -0.1649  0.2784
14881TIP3    H166058   0.674   3.767  14.761  0.0036  1.1341 -1.1499
14881TIP3    H266059   0.796   3.679  14.778 -0.1807  1.6719  7.0488
14882TIP3   OH266060   0.037   0.376  11.588  0.2309 -0.1896  0.2136
14882TIP3    H166061  -0.032   0.383  11.522 -0.6383  0.3819  1.1538
14882TIP3    H266062   0.066   0.286  11.583  1.1382  0.1666 -1.8766
14883TIP3   OH266063   1.547   6.004  15.826 -0.1604  0.3408 -0.0001
14883TIP3    H166064   1.624   6.043  15.868 -0.4204 -0.0748  0.8892
14883TIP3    H266065   1.580   5.925  15.783 -0.3566 -0.8580  1.9179
14884TIP3   OH266066   1.628   6.005   4.198 -0.3075  0.0556  0.3589
14884TIP3    H166067   1.667   5.921   4.219 -2.7570 -0.4162  3.8597
14884TIP3    H266068   1.543   6.005   4.243 -1.4170  3.5517 -1.3030
14885TIP3   OH266069   3.713   2.885   3.923  0.1950  0.0859 -0.3989
14885TIP3    H166070   3.710   2.860   4.016  0.9073  1.7684  0.1272
14885TIP3    H266071   3.792   2.841   3.890  0.6444  0.4733  0.1299
14886TIP3   OH266072   0.007   6.339  11.902 -0.4157 -0.2109 -0.1248
14886TIP3    H166073  -0.055   6.373  11.966  0.4256  0.1785  0.5078
14886TIP3    H266074   0.059   6.276  11.950 -1.6875 -2.1619 -1.1899
14887TIP3   OH266075   5.061   4.262   3.300  0.0344  0.1440  0.0646
14887TIP3    H166076   5.050   4.183   3.248 -0.6242  0.8847 -0.9485
14887TIP3    H266077   4.974   4.302   3.301  0.7286  1.7633 -0.9395
14888TIP3   OH266078   4.675   1.354  13.172 -0.4698 -0.0029 -0.3824
14888TIP3    H166079   4.746   1.300  13.208 -1.0509  1.0758  2.6769
14888TIP3    H266080   4.720   1.425  13.127  0.3719 -0.3776 -0.1582
14889TIP3   OH266081   4.748   0.716  14.332  0.1146  0.0821 -0.0238
14889TIP3    H166082   4.809   0.749  14.267  0.8656  0.9277  1.0718
14889TIP3    H266083   4.675   0.779  14.331  1.6383  2.0349  2.2063
14890TIP3   OH266084   3.972   3.518  11.499 -0.4474  0.5708  0.6898
14890TIP3    H166085   3.991   3.591  11.558  1.6558 -0.2112  1.0533
14890TIP3    H266086   3.959   3.443  11.557  1.9391 -0.2734  0.2687
14891TIP3   OH266087   3.835   0.609   5.911  0.5157  0.1017 -0.4279
14891TIP3    H166088   3.919   0.649   5.890  0.7459 -0.0747  0.1628
14891TIP3    H266089   3.783   0.680   5.950  2.0564 -0.8214  3.8242
14892TIP3   OH266090   2.686   6.758   4.421 -0.6104 -0.2599 -0.7998
14892TIP3    H166091   2.745   6.830   4.400  0.4913 -1.3020 -1.4084
14892TIP3    H266092   2.717   6.726   4.505 -1.0340 -0.0927 -0.5791
14893TIP3   OH266093   4.312   6.440  12.020  0.3422  0.2572 -0.0072
14893TIP3    H166094   4.317   6.526  11.977 -1.3189 -0.6399 -2.1701
14893TIP3    H266095   4.225   6.439  12.060  1.1281  0.3076  1.8241
14894TIP3   OH266096   3.201   5.811  11.381  0.2598 -0.0133  0.4999
14894TIP3    H166097   3.272   5.810  11.317 -1.0469  0.1666 -1.0156
14894TIP3    H266098   3.162   5.898  11.373 -0.6818 -0.4051  0.6702
14895TIP3   OH266099   5.087   5.199  16.095 -0.5941  0.1074  0.1488
14895TIP3    H166100   5.110   5.162  16.009 -0.3946  1.1307 -0.2485
14895TIP3    H266101   5.170   5.226  16.132 -0.4177 -2.0753  1.5456
14896TIP3   OH266102   5.155   2.752  11.613  0.0059 -0.6900 -0.8948
14896TIP3    H166103   5.196   2.757  11.527  1.4050 -1.4650 -0.2950
14896TIP3    H266104   5.178   2.835  11.655 -0.8343 -0.2299 -1.3030
14897TIP3   OH266105   3.939   5.537  14.277 -0.3252  0.5328 -0.4963
14897TIP3    H166106   4.025   5.578  14.266 -0.1925  0.2840 -0.3876
14897TIP3    H266107   3.891   5.598  14.334  0.1784  0.0980  0.4172
14898TIP3   OH266108   2.697   2.194  15.856  0.6554  0.0324 -0.0776
14898TIP3    H166109   2.670   2.284  15.840  0.0210  0.3240  2.2418
14898TIP3    H266110   2.615   2.144  15.860  0.9012 -0.3573  0.2014
14899TIP3   OH266111   5.694   4.247   3.243 -0.4020 -0.7992  0.2063
14899TIP3    H166112   5.719   4.155   3.243 -1.0227 -0.9809  1.3311
14899TIP3    H266113   5.770   4.293   3.280  0.2798 -0.7164 -1.2033
14900TIP3   OH266114   1.085   4.231   2.322 -0.2301  0.3958 -0.3685
14900TIP3    H166115   1.039   4.202   2.243  0.5479  1.1611 -1.1429
14900TIP3    H266116   1.062   4.324   2.329  3.3028  1.6550 -2.4781
14901TIP3   OH266117   0.820   4.152   0.223 -0.9262  0.1518  0.0896
14901TIP3    H166118   0.867   4.190   0.297  1.0111 -1.4249 -0.2309
14901TIP3    H266119   0.747   4.104   0.262 -0.7026  0.4254  0.8588
14902TIP3   OH266120   1.835   4.268   2.106  0.3169  0.3882  0.2166
14902TIP3    H166121   1.832   4.178   2.074  1.1790  0.6223 -0.5676
14902TIP3    H266122   1.743   4.295   2.111 -0.0948 -1.1372  2.3086
14903TIP3   OH266123   4.169   0.188  16.230 -0.1313 -0.4639 -0.0925
14903TIP3    H166124   4.162   0.093  16.237  1.3600 -0.6045 -0.1781
14903TIP3    H266125   4.081   0.220  16.250 -0.3901 -1.7955  1.0526
14904TIP3   OH266126   0.240   3.809   1.757  0.4203 -0.1676 -0.0970
14904TIP3    H166127   0.318   3.857   1.786 -0.7745  2.0366 -0.2608
14904TIP3    H266128   0.206   3.861   1.684 -0.3935 -1.9051 -1.0034
14905TIP3   OH266129   5.405   3.355   0.149  0.7336 -0.5183  0.0704
14905TIP3    H166130   5.455   3.436   0.149  0.4165 -0.3137  0.5819
14905TIP3    H266131   5.436   3.307   0.073  1.3681 -0.1893  0.1150
14906TIP3   OH266132   4.681   6.187   5.567 -0.0990 -0.8621 -0.4370
14906TIP3    H166133   4.616   6.141   5.514 -0.9962 -1.1262  0.8470
14906TIP3    H266134   4.696   6.130   5.642  1.8858 -0.9550 -0.8338
14907TIP3   OH266135   3.190   3.632   3.896  0.8022  0.2357 -0.1231
14907TIP3    H166136   3.214   3.595   3.811  1.5009  0.5063 -0.0503
14907TIP3    H266137   3.109   3.680   3.879  1.7313  1.5710 -0.9927
14908TIP3   OH266138   3.948   3.268  13.279 -0.1894  0.1685 -0.2197
14908TIP3    H166139   3.915   3.209  13.346 -1.2751  0.6080 -0.3529
14908TIP3    H266140   3.969   3.211  13.205  0.4701 -0.2490  0.2770
14909TIP3   OH266141   0.064   6.134   0.043 -0.2704  0.6487  0.6819
14909TIP3    H166142   0.046   6.141  -0.050  0.6940 -2.7394  0.1227
14909TIP3    H266143   0.159   6.144   0.051 -0.3448  0.9299  1.3010
14910TIP3   OH266144   1.774   5.290   0.966 -0.1969 -0.0670 -0.0588
14910TIP3    H166145   1.724   5.209   0.958 -0.0796 -0.2366  0.8367
14910TIP3    H266146   1.749   5.327   1.051 -0.0319  0.6905 -0.3254
14911TIP3   OH266147   1.105   1.393  11.229  0.8473 -0.0717 -0.8151
14911TIP3    H166148   1.100   1.406  11.134 -1.4277  0.4933 -0.6841
14911TIP3    H266149   1.194   1.361  11.244  1.5728  0.6719 -3.0229
14912TIP3   OH266150   3.853   5.865  11.494 -0.0728  0.2502 -0.3600
14912TIP3    H166151   3.831   5.813  11.417  0.2338 -0.3148 -0.0732
14912TIP3    H266152   3.770   5.878  11.539 -0.1499 -0.0221 -0.4202
14913TIP3   OH266153   1.586   4.447  13.859  0.1561  0.8850 -0.1908
14913TIP3    H166154   1.544   4.418  13.940  0.8392  0.9058  0.1810
14913TIP3    H266155   1.623   4.368  13.821 -0.2704  0.8553 -0.5516
14914TIP3   OH266156   4.834   0.254  11.125  0.2469  0.9030 -0.6879
14914TIP3    H166157   4.744   0.230  11.103 -0.3821  2.5012 -0.0323
14914TIP3    H266158   4.825   0.319  11.194  1.9685 -0.0134  0.4887
14915TIP3   OH266159   2.134   5.282  12.596  0.2824  0.0682 -0.6142
14915TIP3    H166160   2.140   5.374  12.568  0.7493  0.1596 -0.2282
14915TIP3    H266161   2.089   5.238  12.524  1.3313  0.3353 -1.4624
14916TIP3   OH266162   4.752   1.798   1.005  0.4898  0.4125 -0.2513
14916TIP3    H166163   4.781   1.886   1.028  0.0735  0.9102 -1.5050
14916TIP3    H266164   4.670   1.812   0.957 -1.9943 -0.9065  3.1663
14917TIP3   OH266165   4.038   0.976  15.568 -0.4213 -0.1703 -0.5267
14917TIP3    H166166   4.013   1.029  15.492 -2.4164 -1.1126 -0.5867
14917TIP3    H266167   3.988   1.013  15.641 -0.0346 -0.5137 -0.0774
14918TIP3   OH266168   0.612   2.932  13.286  0.2913 -0.0225 -0.1987
14918TIP3    H166169   0.672   2.938  13.212 -0.2022  0.8947 -0.5385
14918TIP3    H266170   0.658   2.976  13.358  0.4203 -0.1648 -0.1941
14919TIP3   OH266171   0.408   4.375  17.112  0.0277  0.6693 -0.3838
14919TIP3    H166172   0.390   4.281  17.118  1.4134  0.4739  1.0870
14919TIP3    H266173   0.322   4.416  17.122 -0.4674 -0.4047 -0.0844
14920TIP3   OH266174   0.900   4.146   2.085  0.5422  0.6826  0.5837
14920TIP3    H166175   0.891   4.241   2.089  0.4823  0.6799  0.4894
14920TIP3    H266176   0.948   4.129   2.004  1.4920  0.7044  1.1222
14921TIP3   OH266177   2.349   2.548  16.835 -0.0536  0.3426  0.0195
14921TIP3    H166178   2.413   2.615  16.814 -0.5917  1.0613  0.6420
14921TIP3    H266179   2.292   2.588  16.900 -0.8905 -0.4275 -0.2189
14922TIP3   OH266180   2.174   3.771   2.493 -0.6368 -0.1456 -0.3193
14922TIP3    H166181   2.231   3.761   2.570 -0.8365  0.4104 -0.0909
14922TIP3    H266182   2.141   3.683   2.476 -0.3190 -0.3349  0.0238
14923TIP3   OH266183   1.568   4.191  16.659  0.3589  0.4554 -0.8306
14923TIP3    H166184   1.615   4.145  16.729 -0.5691 -0.7506 -0.9691
14923TIP3    H266185   1.638   4.230  16.606  1.1122  0.5146  0.1757
14924TIP3   OH266186   2.249   6.345   3.444 -0.5283  0.2860 -0.3990
14924TIP3    H166187   2.300   6.402   3.502  2.9117 -2.0534 -0.8895
14924TIP3    H266188   2.232   6.399   3.367  0.9218  1.2784 -0.0649
14925TIP3   OH266189   1.238   3.703   1.417  0.3046 -0.2953  0.0722
14925TIP3    H166190   1.192   3.781   1.448  0.3342 -0.4355  0.4799
14925TIP3    H266191   1.320   3.737   1.381  0.5387 -0.1752  0.6981
14926TIP3   OH266192   2.142   5.686  16.223  0.0491  0.1120 -0.1095
14926TIP3    H166193   2.193   5.757  16.185 -0.3481 -0.2433 -1.3699
14926TIP3    H266194   2.161   5.689  16.316 -0.7192  2.4925  0.0381
14927TIP3   OH266195   1.803   6.731   1.770 -0.6558  0.0825 -0.3880
14927TIP3    H166196   1.869   6.742   1.701 -1.6121  2.1816 -1.0827
14927TIP3    H266197   1.730   6.688   1.726  0.8346 -4.2239  0.8761
14928TIP3   OH266198   2.213   1.187  16.372  0.3899  0.6852  0.2372
14928TIP3    H166199   2.172   1.208  16.456  0.8329  0.5372  0.4912
14928TIP3    H266200   2.307   1.183  16.391  0.4950  0.6823 -0.2707
14929TIP3   OH266201   2.843   1.225   2.858  0.2024  0.6411 -0.3544
14929TIP3    H166202   2.847   1.305   2.911 -0.0090  0.6119 -0.2924
14929TIP3    H266203   2.759   1.231   2.813  0.6544  0.9760 -1.1764
14930TIP3   OH266204   0.948   6.368  14.798 -0.5845  0.3355  0.3060
14930TIP3    H166205   0.924   6.447  14.848 -0.7852  0.5083 -0.0629
14930TIP3    H266206   1.025   6.334  14.844 -0.9718  0.2946  0.9464
14931TIP3   OH266207   3.404   0.791   3.320  0.0107  0.3941 -0.3416
14931TIP3    H166208   3.331   0.740   3.285  0.2219  0.5653 -1.0483
14931TIP3    H266209   3.464   0.725   3.355  0.5899  0.0857 -1.8429
14932TIP3   OH266210   6.445   2.185   2.320  0.3869 -0.0029  0.1945
14932TIP3    H166211   6.380   2.218   2.382 -0.2282 -0.0871 -0.3941
14932TIP3    H266212   6.528   2.189   2.368 -0.2547 -1.3502  1.5077
14933TIP3   OH266213   6.731   3.693  13.889  0.8206 -0.4209  0.4170
14933TIP3    H166214   6.654   3.635  13.887 -1.2915  1.9374  3.1162
14933TIP3    H266215   6.725   3.744  13.809  0.0713 -0.8637  0.1809
14934TIP3   OH266216   3.459   2.481  13.171 -0.3017 -0.2520  0.0077
14934TIP3    H166217   3.519   2.408  13.154  0.4892  0.6101 -1.0270
14934TIP3    H266218   3.402   2.483  13.095 -0.8704 -0.2950  0.4242
14935TIP3   OH266219   1.502   5.203  16.564  0.3318  0.4849  0.0097
14935TIP3    H166220   1.560   5.195  16.640 -0.0559 -2.2607  0.1201
14935TIP3    H266221   1.531   5.133  16.504 -3.2054 -1.5504  0.3996
14936TIP3   OH266222   0.478   6.561  12.464 -0.6161  0.6936  0.1687
14936TIP3    H166223   0.415   6.631  12.477 -2.6246 -1.3201  2.2039
14936TIP3    H266224   0.430   6.495  12.414  0.3194 -0.3380  0.5972
14937TIP3   OH266225   2.297   4.541  17.053  0.0049  0.3544  0.2637
14937TIP3    H166226   2.228   4.475  17.060  0.3090  0.2062  3.0707
14937TIP3    H266227   2.352   4.511  16.981 -0.1935 -2.1617  1.0646
14938TIP3   OH266228   1.949   2.812   5.090  0.2107 -0.2368 -0.5416
14938TIP3    H166229   1.982   2.836   5.177 -0.6928  2.1799 -0.7897
14938TIP3    H266230   2.001   2.865   5.030  0.2512 -1.2706 -1.4378
14939TIP3   OH266231   6.054   6.281   1.764 -0.3169 -0.3134  0.0926
14939TIP3    H166232   5.997   6.323   1.828  0.2496 -0.6505  0.8260
14939TIP3    H266233   6.010   6.198   1.744  0.4777 -1.1313  1.5608
14940TIP3   OH266234   4.634   4.454   5.453  0.9842 -0.2196  0.2893
14940TIP3    H166235   4.647   4.364   5.424 -1.3072 -1.2116  1.9818
14940TIP3    H266236   4.540   4.469   5.442  1.0682  1.4394  1.4834
14941TIP3   OH266237   3.599   6.316   4.632  0.4667  0.4804  0.0446
14941TIP3    H166238   3.605   6.347   4.541 -0.9297 -1.4033 -0.7712
14941TIP3    H266239   3.548   6.383   4.677 -1.2669  0.1331 -1.3006
14942TIP3   OH266240   3.683   6.203  11.168  0.0144  0.3689 -0.8005
14942TIP3    H166241   3.635   6.227  11.247  1.6278 -0.3419  0.4432
14942TIP3    H266242   3.711   6.287  11.131  0.2802  0.6718  0.0643
14943TIP3   OH266243   0.007   0.890  15.143 -0.3708 -0.2797 -0.1735
14943TIP3    H166244   0.093   0.888  15.100 -0.6423 -0.6064 -0.7146
14943TIP3    H266245   0.027   0.902  15.236  0.2522 -0.1909 -0.3133
14944TIP3   OH266246   0.828   2.652  12.264  0.6753  0.3408  0.2071
14944TIP3    H166247   0.880   2.675  12.188  0.5262  2.4063  0.6854
14944TIP3    H266248   0.882   2.676  12.339 -0.3593  1.1693  0.7163
14945TIP3   OH266249   2.879   5.393  13.607 -0.3798  0.2643 -0.5079
14945TIP3    H166250   2.808   5.416  13.667  0.1623  0.0990  0.2114
14945TIP3    H266251   2.866   5.300  13.589 -0.9869  0.4875 -1.2599
14946TIP3   OH266252   2.856   4.097  11.118 -0.2225 -0.2578 -0.5704
14946TIP3    H166253   2.800   4.095  11.196  3.1609  0.5580  2.1308
14946TIP3    H266254   2.839   4.182  11.078 -1.7816 -0.5543 -0.6121
14947TIP3   OH266255   6.723   2.444  10.920  0.2884 -0.4916 -0.4619
14947TIP3    H166256   6.629   2.426  10.913  0.2891 -0.8167  0.2766
14947TIP3    H266257   6.747   2.411  11.006  1.1374 -0.6460 -0.7495
14948TIP3   OH266258   1.119   5.826  15.241  0.2649 -0.1593  0.1383
14948TIP3    H166259   1.030   5.860  15.249  0.9614  1.7696  0.3119
14948TIP3    H266260   1.169   5.899  15.205  1.9510 -0.8818  0.9073
14949TIP3   OH266261   4.957   0.788   1.191 -0.0001  0.4774 -0.0163
14949TIP3    H166262   5.005   0.708   1.214  0.5908  0.2527 -1.8148
14949TIP3    H266263   4.874   0.756   1.156 -1.8596  0.8842  3.6179
14950TIP3   OH266264   4.120   3.683   3.997  0.5030  0.8987  0.1831
14950TIP3    H166265   4.208   3.719   3.995  0.9340 -0.0848 -2.4984
14950TIP3    H266266   4.128   3.596   3.957 -1.8159  1.2155 -1.1733
14951TIP3   OH266267   6.328   5.175   2.084 -0.5136 -0.5870  0.2267
14951TIP3    H166268   6.308   5.239   2.152  1.2562 -0.3988  0.6356
14951TIP3    H266269   6.422   5.158   2.095  0.3656  0.9573 -3.3793
14952TIP3   OH266270   1.210   5.033   1.888  0.0123 -0.3809 -0.4640
14952TIP3    H166271   1.138   5.035   1.825  0.3414 -2.9349 -1.0002
14952TIP3    H266272   1.170   5.065   1.970 -1.4712 -0.8084 -0.9813
14953TIP3   OH266273   2.398   6.444   4.773 -0.2457 -0.2764  0.5439
14953TIP3    H166274   2.318   6.405   4.737 -0.9588  0.9242  0.7947
14953TIP3    H266275   2.420   6.388   4.847 -1.6293  0.1457  1.3052
14954TIP3   OH266276   6.017   4.699   3.527  0.6365 -0.1363  0.1269
14954TIP3    H166277   6.096   4.750   3.548  1.4685 -1.8928  1.4798
14954TIP3    H266278   6.044   4.638   3.459  0.0077  0.2431 -0.4873
14955TIP3   OH266279   4.361   2.701  14.392 -0.2284  0.3573  0.1733
14955TIP3    H166280   4.328   2.756  14.463  0.9212  0.0695  0.9632
14955TIP3    H266281   4.377   2.616  14.433  2.9128  0.8881  0.2722
14956TIP3   OH266282   3.938   0.828  16.005  0.2220  0.0642 -0.2681
14956TIP3    H166283   3.873   0.879  16.054  0.1312 -0.9885  0.7381
14956TIP3    H266284   3.995   0.791  16.072 -0.6234 -2.4395 -0.8210
14957TIP3   OH266285   6.627   6.202   5.401  0.0990 -0.6038 -0.1747
14957TIP3    H166286   6.593   6.284   5.366 -2.3356 -1.8921 -1.0638
14957TIP3    H266287   6.575   6.185   5.479  0.2252 -1.5113 -0.2721
14958TIP3   OH266288   1.969   5.712   1.798 -0.1323  0.0203 -0.5462
14958TIP3    H166289   1.909   5.640   1.778  0.1543 -0.3337 -0.1526
14958TIP3    H266290   2.013   5.685   1.879 -0.4350  0.8959 -0.0793
14959TIP3   OH266291   5.525   6.415  11.901 -0.1226 -0.2042 -0.1294
14959TIP3    H166292   5.432   6.399  11.882 -0.5348  0.2001  1.4455
14959TIP3    H266293   5.545   6.495  11.853  0.1034 -1.5219 -2.4237
14960TIP3   OH266294   6.412   6.724   0.473 -0.6105  0.0782  0.5156
14960TIP3    H166295   6.330   6.676   0.487 -0.2810 -1.5683 -2.4100
14960TIP3    H266296   6.474   6.684   0.533 -0.6060 -2.6374 -1.1401
14961TIP3   OH266297   1.619   4.073  14.113  0.3865  0.0839 -1.0250
14961TIP3    H166298   1.684   4.088  14.044  1.3200  0.8836  0.0000
14961TIP3    H266299   1.630   4.146  14.173  1.1355 -1.7010  1.1594
14962TIP3   OH266300   2.865   0.634  14.471 -0.5571  0.0385 -0.0575
14962TIP3    H166301   2.900   0.548  14.447  0.5672  0.7275 -1.0062
14962TIP3    H266302   2.942   0.690  14.479 -1.3095  1.1072 -0.0373
14963TIP3   OH266303   2.570   2.521  17.174  0.0126 -0.1241  0.0601
14963TIP3    H166304   2.499   2.582  17.191  0.4525  0.0737  1.2571
14963TIP3    H266305   2.647   2.575  17.164  0.1660 -0.4012 -0.2995
14964TIP3   OH266306   1.954   5.098  13.565 -0.8278  0.0793 -0.2096
14964TIP3    H166307   1.936   5.115  13.658  1.4204 -1.8309  0.6595
14964TIP3    H266308   1.888   5.034  13.540 -0.2682 -0.8669  0.6581
14965TIP3   OH266309   5.972   1.928   1.367 -0.2120  0.1796  0.3107
14965TIP3    H166310   5.906   1.903   1.432  0.1353 -1.4836  0.0611
14965TIP3    H266311   5.922   1.971   1.298 -1.2354 -1.8673 -0.3139
14966TIP3   OH266312   4.037   1.593  15.259  0.2004 -0.0894  0.2088
14966TIP3    H166313   4.082   1.671  15.225 -1.4777  0.7256 -0.2362
14966TIP3    H266314   4.036   1.606  15.353  0.1667  0.2908  0.1588
14967TIP3   OH266315   3.041   5.858   6.344  0.1534  0.3562 -0.0341
14967TIP3    H166316   3.100   5.807   6.399 -0.3931 -0.8250 -0.5208
14967TIP3    H266317   3.099   5.898   6.279  0.8085  1.7857  1.3586
14968TIP3   OH266318   3.041   5.095  17.139 -0.0394 -0.7370  0.1012
14968TIP3    H166319   2.948   5.075  17.149 -0.1608 -0.6049 -0.7397
14968TIP3    H266320   3.065   5.061  17.053 -0.0986  2.0279 -1.1284
14969TIP3   OH266321   5.631   5.443  13.496  0.3724  0.1113 -0.0142
14969TIP3    H166322   5.599   5.357  13.468 -0.9971  0.2717  0.9724
14969TIP3    H266323   5.569   5.471  13.563  0.8472  1.8479 -0.2549
14970TIP3   OH266324   1.404   0.035  13.665  0.1653  0.3616 -0.5069
14970TIP3    H166325   1.348  -0.033  13.629  1.3059 -1.0411  0.2382
14970TIP3    H266326   1.344   0.095  13.709 -0.8505 -0.3177 -0.9330
14971TIP3   OH266327   4.605   0.326  14.490  0.3740 -0.5077 -0.0940
14971TIP3    H166328   4.544   0.253  14.479 -0.3704  0.0994 -0.1463
14971TIP3    H266329   4.555   0.403  14.461  1.3055 -0.0437 -0.4937
14972TIP3   OH266330   4.644   2.732  14.393  0.2274  0.5657  0.3055
14972TIP3    H166331   4.722   2.723  14.338 -0.1829 -1.4709 -0.0462
14972TIP3    H266332   4.571   2.726  14.331 -0.2171 -0.6408  0.9109
14973TIP3   OH266333   1.375   1.807   3.022  0.2209 -0.5081 -0.3916
14973TIP3    H166334   1.346   1.856   2.946 -0.1470  1.5748  1.0141
14973TIP3    H266335   1.408   1.724   2.986 -0.1846  0.2767 -2.7463
14974TIP3   OH266336   5.489   2.571  15.605  0.3750 -0.2547 -0.1857
14974TIP3    H166337   5.553   2.571  15.676  0.6369  0.9755 -0.4091
14974TIP3    H266338   5.416   2.622  15.640  0.9406  1.2771 -1.1678
14975TIP3   OH266339   5.644   6.543  13.206  0.1164 -0.3283 -0.1655
14975TIP3    H166340   5.708   6.609  13.233 -0.1060 -0.0477 -0.3162
14975TIP3    H266341   5.675   6.515  13.119  0.8004 -1.1904  0.3439
14976TIP3   OH266342   5.085   2.709  12.730  0.2774 -0.0587 -0.6580
14976TIP3    H166343   5.163   2.763  12.715  0.4788 -0.1594 -0.0020
14976TIP3    H266344   5.050   2.740  12.813 -0.4266  0.0286 -0.9833
14977TIP3   OH266345   6.748   0.036  10.483  0.0522  0.3252 -0.1243
14977TIP3    H166346   6.821  -0.022  10.506 -0.2629 -0.1070 -0.1869
14977TIP3    H266347   6.670  -0.016  10.502 -0.2341  0.5935 -0.5490
14978TIP3   OH266348   2.345   3.262   1.536 -0.2052 -0.0000 -0.2133
14978TIP3    H166349   2.255   3.258   1.570 -0.6500 -0.5725 -1.4126
14978TIP3    H266350   2.335   3.284   1.444  1.0049  2.0370  0.0799
14979TIP3   OH266351   6.213   5.544   1.561 -0.0859 -0.1586  0.8728
14979TIP3    H166352   6.290   5.593   1.533 -0.3704  0.1280  0.5699
14979TIP3    H266353   6.231   5.520   1.651  0.0435  0.5505  1.0450
14980TIP3   OH266354   1.551   2.446  13.350  0.0410 -0.1806 -0.0131
14980TIP3    H166355   1.639   2.411  13.338 -0.0756  0.3593 -3.6154
14980TIP3    H266356   1.560   2.540  13.332 -1.4475 -0.3446 -1.8964
14981TIP3   OH266357   4.447   3.799  14.718 -0.0004  0.1989  0.1352
14981TIP3    H166358   4.429   3.728  14.780 -0.1658 -0.4368 -0.6302
14981TIP3    H266359   4.374   3.797  14.657  0.2366  0.7176 -0.1741
14982TIP3   OH266360   3.100   4.456   1.892  0.5405 -0.2693  1.1621
14982TIP3    H166361   3.157   4.512   1.840  1.2262 -2.2820 -0.4265
14982TIP3    H266362   3.012   4.472   1.856  0.9144 -1.1391 -0.2525
14983TIP3   OH266363   2.401   5.050  10.846 -0.5769 -0.2243  0.2307
14983TIP3    H166364   2.483   5.051  10.798 -0.2015 -0.1225  0.8610
14983TIP3    H266365   2.356   4.972  10.815 -1.5905  1.2579 -2.3118
14984TIP3   OH266366   6.485   2.003  15.741  0.7680  0.4587  0.2399
14984TIP3    H166367   6.455   1.985  15.830 -0.7645  1.3560 -0.0588
14984TIP3    H266368   6.500   2.098  15.740  0.8445  0.4438 -0.4356
14985TIP3   OH266369   5.713   5.295  14.178 -0.3578  0.2119 -0.8424
14985TIP3    H166370   5.803   5.328  14.171 -0.5115  0.8047 -0.1525
14985TIP3    H266371   5.667   5.362  14.229 -0.4640 -1.4906  1.4456
14986TIP3   OH266372   2.936   5.139   4.877 -0.5081  0.3153 -0.1916
14986TIP3    H166373   2.891   5.197   4.938  0.8807  0.6869  0.5231
14986TIP3    H266374   2.974   5.198   4.812  1.9782  0.4115  1.2318
14987TIP3   OH266375   5.935   5.914  15.285 -0.1543  0.0248 -0.3674
14987TIP3    H166376   5.857   5.862  15.304 -0.6692  0.6396 -0.7464
14987TIP3    H266377   5.941   5.978  15.356  1.5126 -1.6484  1.1067
14988TIP3   OH266378   5.941   5.883   1.040 -0.1373 -0.3873 -0.1661
14988TIP3    H166379   5.925   5.789   1.044 -1.6831 -0.1531  3.9745
14988TIP3    H266380   5.855   5.921   1.022 -0.2801  0.2780  1.7360
14989TIP3   OH266381   6.125   0.367  16.459 -0.6549  0.0117  0.3944
14989TIP3    H166382   6.161   0.433  16.399  0.0230  1.1883  2.0350
14989TIP3    H266383   6.199   0.310  16.479 -0.9456 -0.5397 -0.0717
14990TIP3   OH266384   3.187   6.237   2.421 -0.1787 -0.3736  0.3250
14990TIP3    H166385   3.202   6.147   2.449  2.1387 -0.6964 -1.5880
14990TIP3    H266386   3.274   6.277   2.420 -1.1747  2.0131  1.3654
14991TIP3   OH266387   3.518   4.680   5.193 -0.4873 -0.3114  0.3764
14991TIP3    H166388   3.461   4.611   5.226 -0.0905 -0.0991  1.5466
14991TIP3    H266389   3.460   4.757   5.185 -0.8533 -0.6635 -0.6194
14992TIP3   OH266390   6.695   0.972  16.143 -0.3329  0.5173 -0.1272
14992TIP3    H166391   6.727   1.018  16.065 -0.8500  0.7691 -0.1956
14992TIP3    H266392   6.618   1.023  16.171 -0.5290  0.0641  0.1738
14993TIP3   OH266393   0.377   5.542  15.394 -0.1818  0.0662 -0.1235
14993TIP3    H166394   0.387   5.634  15.418 -0.2763  0.0139  0.1187
14993TIP3    H266395   0.448   5.526  15.332 -0.1106  0.2788 -0.0984
14994TIP3   OH266396   2.260   6.687  17.027  0.5497 -0.0717  0.1272
14994TIP3    H166397   2.214   6.747  16.968  0.0831  1.0566  1.5747
14994TIP3    H266398   2.351   6.688  16.997  0.0774 -0.6220 -1.4103
14995TIP3   OH266399   6.551   3.602  15.708  0.5206  0.3172 -0.1111
14995TIP3    H166400   6.601   3.674  15.671  2.1885  0.1017  1.6002
14995TIP3    H266401   6.590   3.523  15.671 -0.4089  0.2276 -0.9273
14996TIP3   OH266402   1.005   1.453   0.938 -0.1032 -0.1354  0.3096
14996TIP3    H166403   1.026   1.545   0.959 -0.5582  0.3765 -1.3478
14996TIP3    H266404   1.076   1.425   0.882 -0.3770 -0.5543  0.1743
14997TIP3   OH266405   0.200   6.645   2.434 -0.1392 -0.2478 -0.0280
14997TIP3    H166406   0.276   6.667   2.489 -0.5065  0.0544  0.3608
14997TIP3    H266407   0.125   6.651   2.493 -0.6917  1.2705 -0.8308
14998TIP3   OH266408   3.014   4.321   0.447 -0.3513 -0.3488  0.5402
14998TIP3    H166409   2.923   4.347   0.437 -0.7551 -1.2917  1.6127
14998TIP3    H266410   3.013   4.226   0.440  0.6867 -0.3187 -0.3271
14999TIP3   OH266411   1.342   5.314  15.633  0.1182  0.4478  0.4235
14999TIP3    H166412   1.269   5.290  15.575 -1.1449  1.8170  1.3694
14999TIP3    H266413   1.388   5.383  15.586 -0.3185  0.8756  0.6189
15000TIP3   OH266414   2.034   6.261   1.927 -0.1242  0.4800 -0.2505
15000TIP3    H166415   2.056   6.174   1.959  0.2609 -0.4241 -2.7483
15000TIP3    H266416   2.098   6.319   1.967  0.1680 -0.5038  0.7543
15001TIP3   OH266417   4.397   6.341  13.178 -0.2878 -0.0510  0.0548
15001TIP3    H166418   4.331   6.272  13.187  0.7570 -1.2708 -1.2561
15001TIP3    H266419   4.412   6.349  13.084 -1.4822  3.1169 -0.0102
15002TIP3   OH266420   5.065   6.766  12.623 -0.1046  0.3699 -0.2873
15002TIP3    H166421   5.095   6.712  12.696  0.5280  0.4278 -0.4966
15002TIP3    H266422   4.995   6.715  12.583  0.7384 -0.4745 -0.7079
15003TIP3   OH266423   5.970   1.155   5.119  0.3681  0.0052  0.6615
15003TIP3    H166424   5.927   1.229   5.077 -0.0309 -0.1096  0.8688
15003TIP3    H266425   6.046   1.137   5.064  2.5416  2.8390  2.4078
15004TIP3   OH266426   5.394   0.655   1.840 -0.6313  0.3097 -0.4508
15004TIP3    H166427   5.432   0.723   1.784  0.4471 -0.6245 -0.8719
15004TIP3    H266428   5.326   0.701   1.889  0.3870  1.8295 -0.3739
15005TIP3   OH266429   0.794   4.296  12.286 -0.0433 -0.3809 -0.3174
15005TIP3    H166430   0.730   4.344  12.233  0.2729 -1.1232 -1.4004
15005TIP3    H266431   0.858   4.362  12.312 -0.4589  0.0859 -0.4731
15006TIP3   OH266432   2.436   4.922  14.027  0.1528 -0.1149  0.7274
15006TIP3    H166433   2.385   4.970  14.092 -0.0638  1.4145 -0.4994
15006TIP3    H266434   2.527   4.937  14.051  0.3001  3.9305 -1.4409
15007TIP3   OH266435   2.844   2.452   4.943  0.2522 -0.2555  0.1282
15007TIP3    H166436   2.799   2.457   5.027 -1.1640 -0.3145 -0.5974
15007TIP3    H266437   2.853   2.543   4.916 -3.1824 -0.2768 -1.5891
15008TIP3   OH266438   1.238   4.718   2.978 -0.3008 -0.2937  0.3340
15008TIP3    H166439   1.314   4.713   3.035 -1.4537 -0.5813  1.9318
15008TIP3    H266440   1.233   4.632   2.936  0.8357  0.0826 -0.6224
15009TIP3   OH266441   5.083   2.811   2.137 -0.4384 -0.1568 -0.2277
15009TIP3    H166442   4.997   2.850   2.119  0.4001  0.5077 -3.5473
15009TIP3    H266443   5.069   2.717   2.129 -0.8720 -0.0402 -0.9734
15010TIP3   OH266444   5.687   1.867  16.002 -0.5941 -0.3598  0.0382
15010TIP3    H166445   5.777   1.867  15.970 -0.8497 -1.9754 -0.7605
15010TIP3    H266446   5.671   1.778  16.033 -1.6523  0.1216  0.9540
15011TIP3   OH266447   6.750   2.017  11.048 -0.1314 -0.1115  0.4204
15011TIP3    H166448   6.807   1.956  11.094  0.4690 -0.1772 -0.3815
15011TIP3    H266449   6.800   2.043  10.970 -0.1790  1.7269  0.9473
15012TIP3   OH266450   1.903   0.013  12.029  0.2111  0.2062  0.0659
15012TIP3    H166451   1.932  -0.060  11.974 -0.5203  0.4471 -0.6553
15012TIP3    H266452   1.926   0.091  11.978 -0.1146  0.4445  0.2836
15013TIP3   OH266453   6.136   5.273  12.253  0.0613  0.0872  0.5034
15013TIP3    H166454   6.056   5.220  12.254  0.0372  0.1227  1.5639
15013TIP3    H266455   6.185   5.243  12.330 -0.0915  1.7958  1.3092
15014TIP3   OH266456   6.451   5.240   5.685 -0.7943  0.5429  0.4349
15014TIP3    H166457   6.525   5.298   5.705  0.4301 -1.3122  1.5150
15014TIP3    H266458   6.376   5.284   5.725 -0.0294  1.7114  0.6551
15015TIP3   OH266459   3.355   5.489   4.507 -0.0903  0.1375  0.3578
15015TIP3    H166460   3.336   5.583   4.502 -0.3178  0.0434 -1.4400
15015TIP3    H266461   3.291   5.449   4.447  2.0029 -0.8189 -1.3726
15016TIP3   OH266462   3.712   2.375   3.018  0.3951  0.1183 -0.0294
15016TIP3    H166463   3.636   2.431   3.002 -1.6476 -2.3343  0.2650
15016TIP3    H266464   3.714   2.364   3.113 -0.3371 -1.5779 -0.1651
15017TIP3   OH266465   0.479   5.259  12.934 -0.2151 -0.2516 -0.2176
15017TIP3    H166466   0.480   5.355  12.933  1.5030 -0.2404 -1.1157
15017TIP3    H266467   0.414   5.235  12.868  1.7480  0.3613 -2.4904
15018TIP3   OH266468   4.192   6.404   4.041 -0.0724 -0.1530 -0.0968
15018TIP3    H166469   4.150   6.474   4.090  1.3140 -0.4271  1.5969
15018TIP3    H266470   4.280   6.398   4.078  0.0134 -2.4734 -0.5056
15019TIP3   OH266471   3.046   3.515  11.647  0.3199 -0.2186  0.6035
15019TIP3    H166472   3.121   3.457  11.662 -0.2329 -0.4788  2.5359
15019TIP3    H266473   2.977   3.482  11.704 -1.2533  0.1384 -0.9880
15020TIP3   OH266474   2.167   0.992  15.031  0.0483 -0.5188  0.1303
15020TIP3    H166475   2.106   0.977  14.959 -0.3667  0.1716  0.3252
15020TIP3    H266476   2.110   1.006  15.107  0.2610  3.4079 -0.2648
15021TIP3   OH266477   6.133   2.480   4.451  0.1852 -0.3447 -0.0759
15021TIP3    H166478   6.043   2.498   4.424  0.3240  1.8518  0.7713
15021TIP3    H266479   6.185   2.504   4.374  0.1887  0.4450  0.1694
15022TIP3   OH266480   2.158   2.843  11.913 -0.3994 -0.0595 -0.1282
15022TIP3    H166481   2.154   2.936  11.936 -0.1276 -0.5434  2.1464
15022TIP3    H266482   2.221   2.839  11.841  1.7256  1.2815  1.5307
15023TIP3   OH266483   1.494   3.167  16.501  0.0673  0.5891  0.7529
15023TIP3    H166484   1.543   3.211  16.571  0.4105  1.3099  0.0782
15023TIP3    H266485   1.421   3.226  16.483 -0.3196  0.1481  0.8611
15024TIP3   OH266486   5.339   4.316  15.153 -0.2563  0.0926  0.0884
15024TIP3    H166487   5.362   4.409  15.144  1.3400 -0.3019 -0.2072
15024TIP3    H266488   5.411   4.269  15.110 -0.2372 -1.3379  1.5907
15025TIP3   OH266489   5.045   2.373   0.742  0.0616  1.1106 -1.0474
15025TIP3    H166490   5.104   2.433   0.789  1.4889 -1.4701  0.6702
15025TIP3    H266491   5.085   2.365   0.656  0.6550  1.5452 -0.8280
15026TIP3   OH266492   0.983   5.639  13.507 -0.2051 -0.4885 -0.5658
15026TIP3    H166493   0.923   5.650  13.580  0.3490 -0.5961 -0.0803
15026TIP3    H266494   0.974   5.719  13.455 -0.2363 -0.1852 -0.0962
15027TIP3   OH266495   2.380   4.798   0.458 -0.1135 -0.3292 -0.3301
15027TIP3    H166496   2.348   4.840   0.378  0.9627  1.3613  0.0743
15027TIP3    H266497   2.345   4.852   0.529  1.3474 -0.0459  0.2065
15028TIP3   OH266498   0.832   5.414  11.870  0.1550  0.1344  0.1284
15028TIP3    H166499   0.862   5.465  11.795 -1.1122 -0.2841 -0.6984
15028TIP3    H266500   0.852   5.323  11.847  1.5013  0.1473  1.1587
15029TIP3   OH266501   3.910   4.425  15.669 -0.1471  0.7072 -0.0670
15029TIP3    H166502   3.847   4.456  15.734 -0.7548 -1.1731  0.2978
15029TIP3    H266503   3.975   4.495  15.663  1.1561  0.0764  4.1682
15030TIP3   OH266504   5.315   1.583  17.303 -0.2310  0.3682 -0.3311
15030TIP3    H166505   5.323   1.631  17.386 -1.2870 -1.4150  0.8699
15030TIP3    H266506   5.335   1.648  17.236  0.2758  1.9794  1.2964
15031TIP3   OH266507   2.056   4.037   3.451 -0.0202  0.7314 -0.4582
15031TIP3    H166508   1.986   4.075   3.503 -0.9830 -2.0843  0.4964
15031TIP3    H266509   2.094   3.969   3.507  0.6261 -0.6637 -2.4480
15032TIP3   OH266510   5.169   1.403  11.012 -0.1649 -0.2629  0.2945
15032TIP3    H166511   5.095   1.460  11.033 -1.1122 -0.8550 -1.2486
15032TIP3    H266512   5.221   1.454  10.949  0.3376 -0.1449  0.8004
15033TIP3   OH266513   1.674   6.349   4.560 -0.3668  0.7007 -0.0689
15033TIP3    H166514   1.659   6.378   4.650  1.6547 -1.1673  0.9576
15033TIP3    H266515   1.598   6.296   4.539  0.5160 -1.4634  1.7824
15034TIP3   OH266516   4.913   4.796   4.162 -0.2074 -0.1300 -0.0096
15034TIP3    H166517   4.932   4.890   4.153  1.0270 -0.1184  2.1795
15034TIP3    H266518   4.991   4.753   4.129 -0.6185 -0.4024 -0.6473
15035TIP3   OH266519   2.924   2.617  15.992 -0.0267 -0.2151 -0.2596
15035TIP3    H166520   2.981   2.688  15.962  0.4180  0.6502  2.3493
15035TIP3    H266521   2.855   2.612  15.927  0.0741  2.4622 -0.6638
15036TIP3   OH266522   3.756   0.442   3.190  0.0009 -0.2227 -0.0636
15036TIP3    H166523   3.852   0.444   3.191  0.0446 -0.3743 -1.6215
15036TIP3    H266524   3.731   0.509   3.128 -0.8796 -0.6699 -0.2068
15037TIP3   OH266525   5.451   2.351   1.376 -0.1563 -0.4000  0.5913
15037TIP3    H166526   5.403   2.335   1.457 -2.8531  1.0200 -0.6286
15037TIP3    H266527   5.496   2.435   1.391 -1.7670  0.5668  0.1868
15038TIP3   OH266528   0.693   6.138  14.130  0.2902 -0.2792  0.6985
15038TIP3    H166529   0.754   6.142  14.056 -0.6940  0.4488 -0.1060
15038TIP3    H266530   0.620   6.086  14.097  0.9357 -2.1637  2.0414
15039TIP3   OH266531   2.474   6.744   0.340 -0.6498 -0.5093 -0.2706
15039TIP3    H166532   2.497   6.652   0.346 -2.3660 -1.0210 -0.8784
15039TIP3    H266533   2.387   6.744   0.301 -0.0045  1.4402 -1.8771
15040TIP3   OH266534   3.206   3.934   1.707  0.0421 -0.8915  0.3466
15040TIP3    H166535   3.264   4.011   1.704 -0.8186 -0.2363 -2.6639
15040TIP3    H266536   3.191   3.920   1.800  1.3496  1.7309  1.0698
15041TIP3   OH266537   1.780   0.195  11.245  0.0967 -0.0935 -0.1707
15041TIP3    H166538   1.716   0.260  11.216 -0.9192 -0.8089  0.3956
15041TIP3    H266539   1.856   0.210  11.189 -0.1759  1.4536 -0.1785
15042TIP3   OH266540   3.370   1.108   4.617 -0.2226  0.3501 -0.0853
15042TIP3    H166541   3.331   1.024   4.639  0.1810  0.0636 -0.4561
15042TIP3    H266542   3.423   1.090   4.539  0.6037  0.7523  0.3787
15043TIP3   OH266543   3.996   6.396  10.754  0.2554  0.8110  0.2126
15043TIP3    H166544   3.990   6.301  10.760 -0.2468  0.8963  1.3495
15043TIP3    H266545   4.006   6.414  10.660  2.1332 -0.4467  0.1195
15044TIP3   OH266546   0.115   4.997   4.638  0.2405 -0.5194 -0.6813
15044TIP3    H166547   0.073   5.062   4.695 -0.5412 -0.8014 -0.9195
15044TIP3    H266548   0.206   4.994   4.668  0.3472  0.8268 -0.8089
15045TIP3   OH266549   2.523   1.039  13.235  0.1336  0.2460  0.9249
15045TIP3    H166550   2.487   1.002  13.154  0.2586  1.9609  0.0252
15045TIP3    H266551   2.447   1.066  13.286  0.0406 -1.2536  1.6200
15046TIP3   OH266552   2.790   2.550   5.725 -0.1906 -0.0401 -0.4940
15046TIP3    H166553   2.765   2.502   5.805  2.7459 -0.0528  0.5535
15046TIP3    H266554   2.824   2.482   5.667 -0.4537  0.2307 -0.9692
15047TIP3   OH266555   6.134   1.537   6.159 -0.0237  0.0217 -0.1423
15047TIP3    H166556   6.209   1.539   6.218 -1.2618 -1.1965  1.5751
15047TIP3    H266557   6.134   1.624   6.118  2.0165  0.2125  0.1437
15048TIP3   OH266558   1.584   6.467   2.860 -0.1949 -0.1528  0.1489
15048TIP3    H166559   1.534   6.548   2.864  0.8160  0.4600  1.0989
15048TIP3    H266560   1.589   6.437   2.951  0.9035 -0.3465  0.0437
15049TIP3   OH266561   2.606   2.332  11.349 -0.7423 -0.1854 -0.3143
15049TIP3    H166562   2.660   2.360  11.423  0.8817  0.5164 -1.6995
15049TIP3    H266563   2.587   2.240  11.367  2.4410 -0.9861 -0.5902
15050TIP3   OH266564   5.097   2.561  17.081  0.7350 -0.0198 -0.2850
15050TIP3    H166565   5.031   2.625  17.053 -0.1697  0.0864  1.9537
15050TIP3    H266566   5.170   2.615  17.112  0.8855 -0.1117 -0.4780
15051TIP3   OH266567   4.606   3.107   3.840  0.6059 -0.8575  0.3026
15051TIP3    H166568   4.579   3.017   3.826 -0.3717 -0.4257 -0.7770
15051TIP3    H266569   4.687   3.101   3.891  0.7370 -2.3446 -0.0486
15052TIP3   OH266570   6.466   6.464   6.188  0.7607 -0.0724 -0.0599
15052TIP3    H166571   6.503   6.376   6.192  0.8855  0.0132  0.9394
15052TIP3    H266572   6.508   6.511   6.261 -0.1383  0.4804  0.1109
15053TIP3   OH266573   6.041   3.627   1.596 -0.2176  0.3154 -0.2197
15053TIP3    H166574   6.062   3.639   1.689  1.1765 -0.2625 -0.4266
15053TIP3    H266575   5.963   3.573   1.595 -0.8198  1.1476  0.6201
15054TIP3   OH266576   0.243   6.743   5.310  0.4984 -0.0852 -0.0414
15054TIP3    H166577   0.247   6.750   5.214 -0.7191  0.7767 -0.0514
15054TIP3    H266578   0.189   6.665   5.325 -0.1018  0.3111 -0.0836
15055TIP3   OH266579   3.944   4.302  15.988  0.3976  0.6517 -0.1982
15055TIP3    H166580   4.027   4.332  16.025  1.5599  0.1696 -2.2824
15055TIP3    H266581   3.969   4.246  15.914 -1.7709 -0.7553  0.0286
15056TIP3   OH266582   3.496   4.280   2.308 -0.3647 -0.3497  0.1760
15056TIP3    H166583   3.401   4.286   2.296  0.0090  2.8892 -2.7096
15056TIP3    H266584   3.533   4.314   2.226  3.3085 -0.7444  1.4869
15057TIP3   OH266585   0.699   6.489  16.787  0.2618  0.2420 -0.4136
15057TIP3    H166586   0.726   6.548  16.857 -0.0548  0.5950 -0.5934
15057TIP3    H266587   0.777   6.438  16.767  1.0494  1.7898 -1.4730
15058TIP3   OH266588   6.054   2.639   2.997 -0.5988 -0.1074  0.2936
15058TIP3    H166589   5.961   2.632   2.974 -0.5267  0.8461 -0.3706
15058TIP3    H266590   6.058   2.620   3.090 -1.5993  0.7821  0.5300
15059TIP3   OH266591   0.274   1.475   5.133  0.4246  0.6871 -0.0024
15059TIP3    H166592   0.260   1.567   5.109 -1.4155  0.0732 -1.5078
15059TIP3    H266593   0.259   1.427   5.052 -0.4288 -1.0732  1.1474
15060TIP3   OH266594   2.290   5.914  16.408  0.5221  0.0112  0.1041
15060TIP3    H166595   2.302   6.001  16.372  0.6842  0.4647  1.2202
15060TIP3    H266596   2.198   5.911  16.436  0.7895  0.2150  1.0399
15061TIP3   OH266597   5.994   6.222   3.608 -0.1380  0.2303  0.2468
15061TIP3    H166598   5.931   6.293   3.616 -1.3392 -0.6315 -0.9596
15061TIP3    H266599   5.958   6.152   3.663 -0.6300 -0.5008 -0.9615
15062TIP3   OH266600   5.477   6.262  12.678 -0.7331  0.1712 -0.6617
15062TIP3    H166601   5.543   6.275  12.610 -2.4996 -0.9248 -2.7219
15062TIP3    H266602   5.417   6.335  12.667 -0.9783  0.0430 -0.1770
15063TIP3   OH266603   0.746   4.203  15.846 -0.1110 -0.5461  0.3419
15063TIP3    H166604   0.668   4.157  15.814 -0.6314  0.6613 -0.1905
15063TIP3    H266605   0.717   4.250  15.923 -0.3386  1.1264 -0.7114
15064TIP3   OH266606   4.007   4.793  16.974 -0.2163  0.6459  0.2785
15064TIP3    H166607   4.028   4.802  16.881 -1.4706  1.0926  0.0179
15064TIP3    H266608   3.972   4.879  16.999  0.4075  0.6359  1.2548
15065TIP3   OH266609   3.379   4.896  13.996  0.1242  0.1011  0.1375
15065TIP3    H166610   3.348   4.986  13.992 -1.5986 -0.3830  1.3012
15065TIP3    H266611   3.341   4.854  13.919  1.4793  0.4923 -0.7738
15066TIP3   OH266612   0.737   5.869  16.561  0.2109 -0.4226  0.1374
15066TIP3    H166613   0.788   5.813  16.619  0.1667  0.6675  1.2850
15066TIP3    H266614   0.706   5.811  16.492 -0.6927 -2.0400  1.8129
15067TIP3   OH266615   0.834   0.806   4.785 -0.1550  0.2283 -0.1185
15067TIP3    H166616   0.841   0.853   4.702 -0.2077  0.0194 -0.2432
15067TIP3    H266617   0.769   0.737   4.768  0.7978 -0.6517 -0.3025
15068TIP3   OH266618   5.493   1.496  15.642  0.5678  0.3608  0.2731
15068TIP3    H166619   5.572   1.546  15.663  0.9619 -0.5129  0.9173
15068TIP3    H266620   5.421   1.557  15.660  1.0168  0.5505  1.5550
15069TIP3   OH266621   4.530   2.783  17.303  1.0851  0.2314  0.3074
15069TIP3    H166622   4.483   2.866  17.313 -0.9319 -1.0637  2.6749
15069TIP3    H266623   4.511   2.755  17.214  1.3920  2.0289 -0.3732
15070TIP3   OH266624   1.162   2.010  11.922 -0.6905  0.1745 -0.3050
15070TIP3    H166625   1.153   2.057  11.839 -0.8167  3.2246  1.2774
15070TIP3    H266626   1.074   1.976  11.940 -0.5258 -1.0566 -1.6422
15071TIP3   OH266627   0.119   3.429  10.777 -0.4451 -0.1642 -0.2924
15071TIP3    H166628   0.203   3.409  10.819  0.2341  1.7089 -0.6461
15071TIP3    H266629   0.143   3.462  10.690 -1.4846  0.9693 -0.1772
15072TIP3   OH266630   2.386   1.085  14.359 -0.3804  0.3597 -0.1975
15072TIP3    H166631   2.380   1.045  14.446  1.7942 -2.3157 -1.1013
15072TIP3    H266632   2.459   1.147  14.365 -0.0722 -0.0014 -0.1155
15073TIP3   OH266633   4.471   3.787  13.740  0.3637 -0.3193 -0.8621
15073TIP3    H166634   4.412   3.837  13.796  0.1372 -0.9238 -0.5489
15073TIP3    H266635   4.558   3.817  13.764  0.3636 -1.5058  0.7853
15074TIP3   OH266636   6.405   5.394   2.266 -0.3625 -0.3755  0.6200
15074TIP3    H166637   6.373   5.480   2.242  0.6933 -0.1867 -0.1997
15074TIP3    H266638   6.399   5.392   2.362  2.3039  1.7696  0.9513
15075TIP3   OH266639   3.850   4.653  16.493 -0.3319 -0.4214  0.0575
15075TIP3    H166640   3.826   4.718  16.427 -0.3228 -1.7523 -1.2963
15075TIP3    H266641   3.842   4.569  16.449  0.6348 -1.3044  1.4667
15076TIP3   OH266642   4.140   2.069   6.718 -0.2842 -0.6497 -0.5571
15076TIP3    H166643   4.065   2.033   6.670 -0.3615 -0.8943 -0.2573
15076TIP3    H266644   4.199   1.995   6.730 -0.1112 -0.5148 -0.5630
15077TIP3   OH266645   5.068   5.531   1.230 -0.2349  0.0367  0.0075
15077TIP3    H166646   5.115   5.463   1.278 -1.4862 -0.3664  0.7042
15077TIP3    H266647   4.991   5.550   1.284 -0.6513  0.9898 -0.8838
15078TIP3   OH266648   3.935   1.076   1.909 -0.5212 -0.5941 -0.0128
15078TIP3    H166649   3.883   1.136   1.855  0.9625 -0.9407 -1.9226
15078TIP3    H266650   3.997   1.134   1.955 -0.6840 -0.4519  0.0301
15079TIP3   OH266651   5.410   5.058  11.983 -0.4455 -0.2633 -0.1251
15079TIP3    H166652   5.372   4.976  12.017  0.5048 -0.7841 -0.2816
15079TIP3    H266653   5.481   5.078  12.044 -1.6064  1.2833  0.7830
15080TIP3   OH266654   0.108   3.227   4.018  0.2808  0.4363  0.3861
15080TIP3    H166655   0.160   3.302   3.989  0.8122 -0.4864 -1.1982
15080TIP3    H266656   0.155   3.193   4.094  1.4310  0.2644 -0.3693
15081TIP3   OH266657   3.136   5.732   5.568 -0.1471  0.7968 -0.6320
15081TIP3    H166658   3.218   5.736   5.519 -2.2400 -1.9745 -5.0818
15081TIP3    H266659   3.143   5.653   5.622  0.7478  1.6670  0.5644
15082TIP3   OH266660   4.353   5.361   0.884  0.4724  0.2241 -0.4750
15082TIP3    H166661   4.379   5.454   0.880  0.9637  0.1078 -0.0295
15082TIP3    H266662   4.284   5.353   0.818  0.1816  0.9856 -0.2729
15083TIP3   OH266663   5.183   6.653   4.699 -0.3312  0.5532 -0.8438
15083TIP3    H166664   5.095   6.618   4.690 -0.6711  1.1955 -0.1308
15083TIP3    H266665   5.213   6.667   4.609 -1.6119  1.9265 -1.1123
15084TIP3   OH266666   2.792   6.748   3.051 -0.5082  0.5607  0.1701
15084TIP3    H166667   2.733   6.730   2.978  0.3358  1.8545 -0.8815
15084TIP3    H266668   2.739   6.796   3.115 -1.2935 -0.7275  0.5165
15085TIP3   OH266669   3.641   6.086  10.850  0.4371 -0.2968  0.2387
15085TIP3    H166670   3.568   6.147  10.837 -0.6053 -1.6257 -0.3973
15085TIP3    H266671   3.704   6.109  10.781 -0.2392 -0.3531 -0.4099
15086TIP3   OH266672   0.881   2.076  16.383  0.0338 -0.3301  0.1420
15086TIP3    H166673   0.923   1.990  16.378 -0.9177 -0.8271  0.5610
15086TIP3    H266674   0.857   2.085  16.476  2.7942  1.6908  0.7736
15087TIP3   OH266675   6.397   0.303   4.656  0.0499 -0.0414 -0.4551
15087TIP3    H166676   6.305   0.288   4.633  0.4559 -1.1972 -1.4361
15087TIP3    H266677   6.401   0.289   4.750 -0.7320 -0.2797 -0.4500
15088TIP3   OH266678   5.472   5.976   2.136  0.3021 -0.3641 -0.3412
15088TIP3    H166679   5.447   5.931   2.217  0.9904  0.7482  0.5270
15088TIP3    H266680   5.484   6.067   2.162  1.0602 -0.0814 -1.5889
15089TIP3   OH266681   2.900   0.231  15.520 -0.8532  0.3818 -0.5151
15089TIP3    H166682   2.959   0.274  15.582  0.2004 -0.6952 -0.7381
15089TIP3    H266683   2.881   0.298  15.454  1.4116  0.3299 -1.3159
15090TIP3   OH266684   4.048   5.060  16.827  0.0621  0.2362 -0.1449
15090TIP3    H166685   4.140   5.035  16.813  0.8315  2.7581 -0.1818
15090TIP3    H266686   4.050   5.119  16.902 -1.4362  0.7407 -0.4587
15091TIP3   OH266687   0.208   3.815  17.103  0.0730 -0.6195  0.6692
15091TIP3    H166688   0.208   3.782  17.193  2.5776 -0.7060  0.7227
15091TIP3    H266689   0.188   3.908  17.112  0.3499 -0.6171  1.3288
15092TIP3   OH266690   2.429   0.403  11.060 -0.2628  0.4149 -0.3402
15092TIP3    H166691   2.516   0.440  11.047 -0.6825  1.6178  0.2090
15092TIP3    H266692   2.384   0.418  10.977  0.1890 -0.6835 -0.8176
15093TIP3   OH266693   6.061   1.037   4.516 -1.1951  0.0028  0.0143
15093TIP3    H166694   6.124   0.978   4.557  1.5488  1.5096 -1.7159
15093TIP3    H266695   6.075   1.121   4.560 -3.2427  0.0344  0.7180
15094TIP3   OH266696   5.593   1.113   5.424  0.2168  0.1818  0.0122
15094TIP3    H166697   5.602   1.193   5.373 -1.2805  1.1253  1.1436
15094TIP3    H266698   5.647   1.127   5.502  0.0450  0.0405  0.1586
15095TIP3   OH266699   6.221   0.744  11.558  0.0661 -0.5424 -0.2564
15095TIP3    H166700   6.294   0.789  11.514  0.2871 -1.3094 -0.6925
15095TIP3    H266701   6.144   0.768  11.506  0.2041 -0.7884 -0.5731
15096TIP3   OH266702   2.148   1.614  14.361  0.1053  0.1844 -0.0876
15096TIP3    H166703   2.173   1.704  14.340 -1.1451  0.4331 -0.5882
15096TIP3    H266704   2.062   1.603  14.321 -1.2059 -0.2138  2.5661
15097TIP3   OH266705   1.678   2.961   2.979  0.0520 -0.0956 -0.3012
15097TIP3    H166706   1.709   3.049   2.956 -0.0807 -0.5237 -2.3559
15097TIP3    H266707   1.656   2.967   3.072 -0.1556  2.1015 -0.4283
15098TIP3   OH266708   2.338   1.841   2.916  0.4808 -0.1086 -0.0083
15098TIP3    H166709   2.394   1.859   2.992  1.3935 -0.9915 -0.4623
15098TIP3    H266710   2.288   1.763   2.941 -1.0977  1.0328  0.6574
15099TIP3   OH266711   4.892   2.722   6.023 -0.3120 -0.3928 -0.6563
15099TIP3    H166712   4.813   2.736   6.074  0.4327  0.6164  0.2655
15099TIP3    H266713   4.873   2.645   5.969 -1.2146 -1.3643  0.9688
15100TIP3   OH266714   3.525   4.388   3.303 -0.1874 -0.3073  0.1215
15100TIP3    H166715   3.499   4.443   3.229 -2.4475 -0.4233  0.7528
15100TIP3    H266716   3.508   4.442   3.380  2.5398 -0.0274  0.6237
15101TIP3   OH266717   1.523   5.822   3.002 -0.4922 -0.1005 -0.5172
15101TIP3    H166718   1.592   5.791   2.942 -0.6264 -1.5766  0.0524
15101TIP3    H266719   1.565   5.891   3.053  0.5311 -0.8592 -0.3035
15102TIP3   OH266720   6.020   1.717  14.288 -0.3086  0.1604  0.5361
15102TIP3    H166721   6.060   1.638  14.326  2.3091  0.6705 -0.8951
15102TIP3    H266722   5.976   1.685  14.209  2.7936  0.2678 -1.4084
15103TIP3   OH266723   5.502   0.645  15.717  0.0079  0.4466  0.5402
15103TIP3    H166724   5.500   0.564  15.768 -0.4713  0.2543  0.2146
15103TIP3    H266725   5.435   0.700  15.758  0.3866  0.7166  0.8113
15104TIP3   OH266726   5.484   4.281  13.152  0.0484 -0.2761 -0.1422
15104TIP3    H166727   5.493   4.368  13.191  2.2789 -0.7988  0.6492
15104TIP3    H266728   5.464   4.298  13.060 -2.9400  0.9949  0.6164
15105TIP3   OH266729   3.740   3.515  16.859 -0.1617 -0.5066  0.4394
15105TIP3    H166730   3.752   3.566  16.940 -1.3075  0.2740  0.1309
15105TIP3    H266731   3.671   3.560  16.811 -0.1769 -1.5167 -0.5423
15106TIP3   OH266732   2.727   3.096  16.476  0.0226  0.1535  0.0245
15106TIP3    H166733   2.671   3.066  16.405  2.1416 -0.8417 -1.3567
15106TIP3    H266734   2.763   3.179  16.445  1.9045 -0.8635 -0.7349
15107TIP3   OH266735   4.680   5.469   5.770 -0.1829 -0.3314 -0.4452
15107TIP3    H166736   4.685   5.443   5.862  1.8292  2.3341  0.3122
15107TIP3    H266737   4.735   5.406   5.724 -1.1916 -1.6768  0.1435
15108TIP3   OH266738   0.928   4.708   2.756  0.1690 -0.1195 -0.4511
15108TIP3    H166739   0.936   4.614   2.769  0.2422  0.0016  0.4765
15108TIP3    H266740   0.916   4.744   2.844 -1.4255  0.5941 -0.9271
15109TIP3   OH266741   1.683   4.293  15.687  0.3819 -0.5427  0.1303
15109TIP3    H166742   1.715   4.342  15.611 -0.7661 -0.9336 -0.6374
15109TIP3    H266743   1.762   4.274  15.738  1.0660  0.5598 -0.4547
15110TIP3   OH266744   2.859   2.000   0.263 -0.0373 -0.3232  0.5727
15110TIP3    H166745   2.789   2.022   0.201  0.5596 -0.8939 -0.3358
15110TIP3    H266746   2.854   1.905   0.272  0.6531 -0.3699  0.4618
15111TIP3   OH266747   2.230   6.042   1.045  0.4108  0.3950  0.2149
15111TIP3    H166748   2.224   6.061   1.139  1.3553 -0.7818  0.5423
15111TIP3    H266749   2.150   6.080   1.008 -1.1976 -1.1453  1.8636
15112TIP3   OH266750   6.514   4.627  15.970  0.2789 -0.0395  0.5478
15112TIP3    H166751   6.499   4.553  15.912 -2.3703  0.3121  0.6457
15112TIP3    H266752   6.459   4.610  16.047 -0.2948  1.8871  0.6399
15113TIP3   OH266753   3.032   3.481   0.688  0.0322  0.1561 -0.0152
15113TIP3    H166754   3.071   3.509   0.771  1.3644 -0.0059 -0.5518
15113TIP3    H266755   2.948   3.526   0.683  0.3691  0.9077  0.9807
15114TIP3   OH266756   6.451   1.915   1.727 -0.2121 -0.0005  0.4513
15114TIP3    H166757   6.532   1.953   1.693 -0.0467 -0.0722  0.7607
15114TIP3    H266758   6.475   1.827   1.756 -0.6067 -0.3622 -0.2984
15115TIP3   OH266759   2.915   3.132   4.218  0.2843 -0.0126  0.1303
15115TIP3    H166760   2.868   3.049   4.227  1.7124 -0.7715  0.9951
15115TIP3    H266761   2.888   3.183   4.294 -1.7134  0.9621 -1.1421
15116TIP3   OH266762   2.650   4.325   1.133  0.0555  0.1425 -0.5774
15116TIP3    H166763   2.568   4.353   1.173  1.3325  2.1031  0.8645
15116TIP3    H266764   2.682   4.255   1.190  0.3553  0.7922  0.0674
15117TIP3   OH266765   3.928   3.911   0.562 -0.3122 -0.0226 -0.0806
15117TIP3    H166766   3.990   3.866   0.504 -1.3421  2.0529 -3.0288
15117TIP3    H266767   3.842   3.877   0.536 -0.7813  0.7724  0.4099
15118TIP3   OH266768   3.968   0.154  15.117 -0.2733 -0.1052 -0.0816
15118TIP3    H166769   3.885   0.190  15.086  0.5130  2.9087  0.9888
15118TIP3    H266770   3.951   0.129  15.208 -0.2151 -0.3358 -0.1321
15119TIP3   OH266771   0.501   3.310   2.115  0.1234 -0.4594  0.0267
15119TIP3    H166772   0.495   3.300   2.020 -0.8160 -0.5953  0.0933
15119TIP3    H266773   0.482   3.402   2.131 -0.7318 -0.6425  0.1462
15120TIP3   OH266774   1.152   1.959  15.676  0.3129  0.0332  0.0285
15120TIP3    H166775   1.174   1.875  15.636 -0.0479  0.8174 -1.9389
15120TIP3    H266776   1.226   2.016  15.655  1.0750 -0.0207  2.2923
15121TIP3   OH266777   5.813   2.861  13.419  0.2509 -0.1265 -0.1875
15121TIP3    H166778   5.789   2.942  13.463  0.4183 -0.0440 -0.2486
15121TIP3    H266779   5.898   2.837  13.457 -0.7450 -1.3843  1.3550
15122TIP3   OH266780   3.143   6.077  13.912 -0.6625  0.2175  0.2913
15122TIP3    H166781   3.183   6.162  13.892 -0.0686 -0.0284  0.3887
15122TIP3    H266782   3.113   6.044  13.828 -0.6894  0.4269  0.2195
15123TIP3   OH266783   0.712   1.545  17.161  0.1825 -0.0090  0.0245
15123TIP3    H166784   0.708   1.527  17.255 -1.1719  0.1123  0.0090
15123TIP3    H266785   0.794   1.592  17.149  2.2679 -3.1627  0.5779
15124TIP3   OH266786   1.537   3.001  14.337  0.1834  0.1901  0.2477
15124TIP3    H166787   1.442   2.994  14.344  0.1494 -1.1744 -1.1865
15124TIP3    H266788   1.570   2.940  14.403 -0.0045 -1.7457 -1.3678
15125TIP3   OH266789   4.272   6.685   5.851 -0.2596 -0.6230 -0.2133
15125TIP3    H166790   4.358   6.683   5.809  0.5179 -1.0848  1.3433
15125TIP3    H266791   4.290   6.691   5.945 -1.9178 -1.1631  0.1907
15126TIP3   OH266792   2.852   4.937  16.635 -0.2404  0.1198  0.7468
15126TIP3    H166793   2.848   5.022  16.591  0.2592  1.2520  2.8040
15126TIP3    H266794   2.921   4.890  16.588  0.8941  1.6146  0.8514
15127TIP3   OH266795   5.054   6.387   1.082  0.1022 -0.0800  0.1724
15127TIP3    H166796   5.122   6.320   1.073  1.9931  1.9410 -2.0498
15127TIP3    H266797   4.984   6.358   1.024 -0.1114 -1.1914  0.9477
15128TIP3   OH266798   3.786   2.945  12.930  0.7857  0.0133  0.3298
15128TIP3    H166799   3.841   2.874  12.897 -2.6375 -2.7488 -0.1355
15128TIP3    H266800   3.739   2.977  12.852 -3.0644 -2.5278  1.2892
15129TIP3   OH266801   5.365   3.245   1.634  0.3002  0.3726 -0.0847
15129TIP3    H166802   5.410   3.211   1.712 -0.9465  0.5991  0.7562
15129TIP3    H266803   5.371   3.174   1.570 -0.8564 -0.8532  1.0947
15130TIP3   OH266804   5.531   4.511  14.818 -0.6114  0.1523 -0.0770
15130TIP3    H166805   5.442   4.547  14.810  0.4007  2.8917  0.2142
15130TIP3    H266806   5.552   4.481  14.729 -1.8973 -0.8197 -0.0863
15131TIP3   OH266807   2.670   4.838  11.668  0.0190 -0.5246 -0.1109
15131TIP3    H166808   2.642   4.794  11.587 -1.5307 -2.9049  1.5846
15131TIP3    H266809   2.755   4.797  11.689  0.0488 -0.4685 -0.1213
15132TIP3   OH266810   6.136   6.097   5.150  0.0284 -0.1625 -0.1656
15132TIP3    H166811   6.169   6.154   5.220 -0.1617 -0.3953  0.1157
15132TIP3    H266812   6.140   6.151   5.072  0.6268 -0.0290 -0.0519
15133TIP3   OH266813   0.006   0.448  17.051 -0.2747  1.1667  0.0942
15133TIP3    H166814  -0.062   0.409  16.997  2.0431 -0.5645 -1.7601
15133TIP3    H266815  -0.002   0.405  17.136 -0.3640 -0.3660 -0.6673
15134TIP3   OH266816   2.166   1.087  15.695 -0.7437 -0.0030  0.1587
15134TIP3    H166817   2.194   1.004  15.657 -0.7355  0.2632 -0.4315
15134TIP3    H266818   2.243   1.144  15.689 -0.9200  0.2238  0.0358
15135TIP3   OH266819   6.134   3.472   5.679  0.2154 -0.4433  0.1652
15135TIP3    H166820   6.120   3.517   5.595 -0.0559  1.4847  1.1920
15135TIP3    H266821   6.101   3.383   5.664 -0.2643 -0.0061 -1.6271
15136TIP3   OH266822   3.941   0.302  16.327 -0.6675  0.1760  0.1272
15136TIP3    H166823   3.891   0.264  16.399  0.1373 -0.5762  0.3029
15136TIP3    H266824   3.883   0.370  16.291 -1.6232 -0.3715  0.5976
15137TIP3   OH266825   5.428   0.174   1.670 -0.0605  0.0768 -0.0661
15137TIP3    H166826   5.442   0.123   1.590  0.7538 -0.0110  0.1268
15137TIP3    H266827   5.448   0.264   1.645 -0.4583  0.1515 -0.1280
15138TIP3   OH266828   3.262   2.641  12.118 -0.0706  0.5105 -0.0840
15138TIP3    H166829   3.228   2.599  12.039  0.8573 -0.1318 -0.1556
15138TIP3    H266830   3.211   2.602  12.189 -0.7367  0.9105 -0.3339
15139TIP3   OH266831   4.771   5.484  14.403 -0.6418 -0.2067 -0.3232
15139TIP3    H166832   4.800   5.518  14.488 -0.4394 -2.2078  0.4829
15139TIP3    H266833   4.677   5.501  14.401 -0.5739  0.2376  0.1288
15140TIP3   OH266834   4.195   2.613   0.232 -0.5428 -0.0331 -0.2665
15140TIP3    H166835   4.108   2.573   0.226 -0.2995 -1.0007  1.8924
15140TIP3    H266836   4.213   2.619   0.325  1.1555  1.4516 -0.6257
15141TIP3   OH266837   0.885   0.528  11.579 -0.0424 -0.0907  0.1956
15141TIP3    H166838   0.877   0.617  11.613  0.1704 -0.0151  0.0457
15141TIP3    H266839   0.965   0.493  11.619 -0.6540 -0.5648  1.0437
15142TIP3   OH266840   1.334   2.703  11.645  0.5747 -0.0817 -0.0842
15142TIP3    H166841   1.298   2.773  11.698  1.8579 -0.1912  0.9886
15142TIP3    H266842   1.264   2.639  11.638 -0.0850  0.5949  0.2419
15143TIP3   OH266843   5.276   6.378   4.893 -0.0118  0.2237  0.1630
15143TIP3    H166844   5.226   6.421   4.962  1.8280  0.5461  1.3669
15143TIP3    H266845   5.334   6.318   4.939  0.0984 -0.7909 -1.2380
15144TIP3   OH266846   6.641   3.771  11.589 -0.5894 -0.1895  0.3563
15144TIP3    H166847   6.568   3.770  11.651 -0.3604  1.9472  0.7732
15144TIP3    H266848   6.718   3.755  11.644 -0.5840 -0.6008  0.2285
15145TIP3   OH266849   4.961   6.155  14.240  0.5297  0.4084  0.8751
15145TIP3    H166850   4.972   6.169  14.145  0.6574 -1.2597  0.6196
15145TIP3    H266851   5.006   6.072  14.257 -1.5735 -0.5813  1.9641
15146TIP3   OH266852   4.957   2.175   2.035 -0.3341 -0.4545 -0.0126
15146TIP3    H166853   4.895   2.193   2.106 -1.2389 -0.8640 -0.6759
15146TIP3    H266854   4.915   2.210   1.957 -0.2594 -1.7682 -0.6598
15147TIP3   OH266855   2.320   3.977   3.833 -0.0799 -0.1250 -0.7060
15147TIP3    H166856   2.294   3.933   3.752 -1.0186  0.4108 -0.7036
15147TIP3    H266857   2.307   4.070   3.816 -1.2727 -0.0586  0.3764
15148TIP3   OH266858   3.792   2.779   0.450 -0.1722 -0.5442 -0.6870
15148TIP3    H166859   3.790   2.870   0.421 -1.6992 -0.0726  0.7063
15148TIP3    H266860   3.749   2.730   0.380  0.2250 -0.1427 -1.2244
15149TIP3   OH266861   2.732   0.885  14.149 -0.1071 -0.2772  0.2904
15149TIP3    H166862   2.724   0.791  14.164 -0.0008 -0.5165 -1.0454
15149TIP3    H266863   2.642   0.917  14.146 -0.1395 -0.2792  1.0062
15150TIP3   OH266864   0.637   4.897   4.078 -0.3741  0.4425  0.0734
15150TIP3    H166865   0.708   4.945   4.037 -2.5754  1.2711 -3.1241
15150TIP3    H266866   0.573   4.883   4.008 -2.7764 -1.4651  2.4089
15151TIP3   OH266867   2.261   2.753   1.561  0.1453  0.7184  0.4403
15151TIP3    H166868   2.268   2.847   1.545 -0.8520  0.8572  0.7652
15151TIP3    H266869   2.266   2.745   1.657 -0.9846  0.5651  0.4969
15152TIP3   OH266870   2.219   0.542  12.004 -0.4588 -0.1661  0.2844
15152TIP3    H166871   2.179   0.456  11.989  2.0091 -1.0977 -1.7284
15152TIP3    H266872   2.267   0.530  12.086 -2.2327  0.2116  1.4339
15153TIP3   OH266873   5.084   0.619   0.118  0.3414  0.0664  0.2337
15153TIP3    H166874   5.117   0.569   0.044  0.4559 -0.4799  0.6510
15153TIP3    H266875   4.995   0.586   0.132  0.2720  0.2614  0.2635
15154TIP3   OH266876   2.901   5.861  13.951  0.1839 -0.0297  0.4225
15154TIP3    H166877   2.823   5.915  13.962  0.2658  0.9958 -2.9376
15154TIP3    H266878   2.968   5.905  14.002 -0.6854  0.8182  0.8656
15155TIP3   OH266879   0.266   1.582   3.149  0.2838  0.5314  0.8436
15155TIP3    H166880   0.264   1.569   3.244 -1.4858 -0.7356  0.6873
15155TIP3    H266881   0.274   1.494   3.113 -0.7146  0.8308 -0.1856
15156TIP3   OH266882   2.617   4.508  11.782 -0.4730  0.9172 -0.1872
15156TIP3    H166883   2.539   4.562  11.772 -1.4117 -0.0852  1.3414
15156TIP3    H266884   2.646   4.522  11.872  0.6840  0.6965 -0.4990
15157TIP3   OH266885   5.818   4.791  16.835 -0.3593  0.0302  0.1647
15157TIP3    H166886   5.855   4.838  16.910 -1.0865 -0.8690  1.1071
15157TIP3    H266887   5.810   4.701  16.865  1.9101 -0.9776 -1.9303
15158TIP3   OH266888   2.446   3.214  16.778  0.2089 -0.0617 -0.2779
15158TIP3    H166889   2.542   3.225  16.778  0.3082 -0.8229 -0.5720
15158TIP3    H266890   2.412   3.301  16.796  0.9687  0.1510  0.2152
15159TIP3   OH266891   4.781   6.417   3.609 -0.3170  0.6122  0.3870
15159TIP3    H166892   4.717   6.484   3.586 -0.5413 -0.2592 -1.7479
15159TIP3    H266893   4.758   6.342   3.554  1.1426 -0.5159  1.2562
15160TIP3   OH266894   0.266   1.676   0.145  0.3685  0.4436 -0.1724
15160TIP3    H166895   0.227   1.627   0.217  0.4070  0.5611 -0.0713
15160TIP3    H266896   0.300   1.609   0.086 -0.5594  0.3243 -0.5837
15161TIP3   OH266897   4.593   4.527   4.425 -0.5019  0.0400  0.2165
15161TIP3    H166898   4.609   4.546   4.518 -1.1761 -0.4061  0.4352
15161TIP3    H266899   4.679   4.533   4.384 -0.4331  1.8035  0.5696
15162TIP3   OH266900   6.330   0.538   2.140 -0.4775 -0.9169  0.1241
15162TIP3    H166901   6.341   0.621   2.187  0.5398 -0.5550 -0.7037
15162TIP3    H266902   6.387   0.477   2.186  1.7638 -0.1677 -1.4990
15163TIP3   OH266903   4.184   6.214   1.202 -0.0739 -0.5020 -0.1819
15163TIP3    H166904   4.232   6.187   1.280  0.1176 -2.9119 -1.0541
15163TIP3    H266905   4.188   6.310   1.203  1.7248 -0.5364  1.6134
15164TIP3   OH266906   2.662   1.327  12.610  0.2203 -0.7783 -0.1801
15164TIP3    H166907   2.717   1.274  12.667  0.6745 -0.2496 -0.1181
15164TIP3    H266908   2.724   1.371  12.551 -0.1671 -0.5125 -0.3944
15165TIP3   OH266909   2.641   0.122  14.809 -0.2909  0.2295 -0.3363
15165TIP3    H166910   2.587   0.077  14.873  0.1249  1.1875  0.7258
15165TIP3    H266911   2.723   0.074  14.808 -0.0983  0.5344  0.2773
15166TIP3   OH266912   0.033   1.516  10.887 -0.5616 -0.2295  0.0088
15166TIP3    H166913   0.071   1.534  10.973  0.9584  0.8382 -0.8332
15166TIP3    H266914   0.011   1.423  10.889 -1.7853  0.0428  1.9772
15167TIP3   OH266915   2.579   5.306   3.899 -0.2301 -0.2329  0.4588
15167TIP3    H166916   2.515   5.277   3.964 -2.0068  3.4597  0.6316
15167TIP3    H266917   2.526   5.354   3.834  2.0225  0.2009 -1.1716
15168TIP3   OH266918   2.808   1.674  16.043 -0.4790 -0.2641  0.1093
15168TIP3    H166919   2.796   1.768  16.028  0.1876  0.3529  2.8232
15168TIP3    H266920   2.729   1.634  16.008  0.8504  0.7211 -4.6797
15169TIP3   OH266921   5.907   2.446   1.333  0.0585 -0.2942 -0.3008
15169TIP3    H166922   5.991   2.403   1.348 -0.1715 -1.0893 -1.1461
15169TIP3    H266923   5.855   2.426   1.411  0.3913 -0.4669 -0.1248
15170TIP3   OH266924   1.674   1.732  15.508 -0.1052  0.0622  0.1000
15170TIP3    H166925   1.759   1.704  15.477 -0.4372 -0.8230 -0.0328
15170TIP3    H266926   1.612   1.703  15.441 -0.3905  1.8826 -0.4878
15171TIP3   OH266927   5.861   4.158  17.136  0.0877  0.6171 -0.5091
15171TIP3    H166928   5.933   4.096  17.151  0.2648  1.2489  1.6187
15171TIP3    H266929   5.838   4.146  17.044  0.5293 -2.1478 -0.3417
15172TIP3   OH266930   4.554   2.077   3.087  0.2411  0.0797  0.2388
15172TIP3    H166931   4.522   2.023   3.160 -0.8889 -0.0771 -0.3445
15172TIP3    H266932   4.637   2.037   3.062  0.4393 -0.1138  1.1720
15173TIP3   OH266933   3.429   1.786   3.358 -0.3897  0.5912  0.1965
15173TIP3    H166934   3.452   1.865   3.310 -1.3698  0.4605 -0.5225
15173TIP3    H266935   3.505   1.728   3.349 -0.5002  0.6284 -1.0745
15174TIP3   OH266936   0.608   5.970   3.077  0.2680 -0.0572  0.5182
15174TIP3    H166937   0.656   6.013   3.147  0.5752  0.2428  0.1275
15174TIP3    H266938   0.618   6.028   3.001 -2.0328  0.8306  0.8170
15175TIP3   OH266939   2.017   3.899  13.148  0.8804 -0.0255  0.1995
15175TIP3    H166940   2.091   3.857  13.104  0.6296 -2.0976  1.6165
15175TIP3    H266941   2.036   3.992  13.143  2.2174 -0.3423 -1.8315
15176TIP3   OH266942   3.542   4.480  14.332 -0.2761  0.0559  0.2258
15176TIP3    H166943   3.555   4.421  14.258  0.0568  0.4546 -0.0361
15176TIP3    H266944   3.449   4.504  14.328 -0.3671 -0.2933  0.2189
15177TIP3   OH266945   1.287   6.192  11.352  0.2526 -0.0526 -0.0683
15177TIP3    H166946   1.321   6.115  11.399 -1.0453 -1.0301 -0.6638
15177TIP3    H266947   1.202   6.163  11.318 -0.3007  1.6877 -0.2406
15178TIP3   OH266948   0.863   1.668   0.261  0.4253 -0.1375  0.2247
15178TIP3    H166949   0.843   1.761   0.269  0.4592 -0.0656 -0.4738
15178TIP3    H266950   0.942   1.665   0.207  0.6553 -0.5530  0.5800
15179TIP3   OH266951   4.615   5.003   1.202  0.2166 -0.2441 -0.6941
15179TIP3    H166952   4.594   5.074   1.263  3.7332 -0.7340  1.4120
15179TIP3    H266953   4.576   4.925   1.242  0.2007 -0.1444 -0.5107
15180TIP3   OH266954   3.156   2.629  13.124  0.0944 -0.4984 -0.2250
15180TIP3    H166955   3.107   2.711  13.120  2.0430  0.7288 -0.2356
15180TIP3    H266956   3.117   2.581  13.197 -2.1885 -0.3621 -1.2724
15181TIP3   OH266957   2.191   1.464   4.981 -0.0813 -0.1611  0.4322
15181TIP3    H166958   2.144   1.381   4.967  0.4732 -0.4798  0.4369
15181TIP3    H266959   2.260   1.442   5.044 -0.4963  0.5135  1.1484
15182TIP3   OH266960   2.368   3.091   5.293  0.0126 -0.4441 -0.0079
15182TIP3    H166961   2.275   3.112   5.283  0.0642 -1.0596 -2.5748
15182TIP3    H266962   2.371   3.028   5.365 -2.0070 -2.6879 -1.7456
15183TIP3   OH266963   0.963   3.674  16.830 -0.3897 -0.6423  0.3965
15183TIP3    H166964   0.981   3.596  16.882  0.9404 -0.7383 -0.1699
15183TIP3    H266965   0.916   3.732  16.889 -0.2965 -1.3765  1.2066
15184TIP3   OH266966   0.760   2.675   4.410 -1.2657 -0.1168  0.0903
15184TIP3    H166967   0.813   2.726   4.472 -1.2115 -1.0106  0.7936
15184TIP3    H266968   0.673   2.673   4.450 -1.1602 -0.9445  0.2948
15185TIP3   OH266969   6.608   0.379   4.383 -0.3256  0.2072  0.1237
15185TIP3    H166970   6.594   0.307   4.444  0.4398  1.0354  1.3361
15185TIP3    H266971   6.574   0.348   4.299 -0.9080 -1.1709  0.8504
15186TIP3   OH266972   5.275   5.340  16.611 -0.3905 -0.0416  0.3753
15186TIP3    H166973   5.197   5.295  16.579 -1.2350  0.1924  2.0028
15186TIP3    H266974   5.330   5.270  16.647 -0.4313 -0.0649  0.3923
15187TIP3   OH266975   2.370   6.361  15.714  0.0978 -0.0406  0.2146
15187TIP3    H166976   2.377   6.283  15.769 -2.7917 -1.9823 -1.9144
15187TIP3    H266977   2.454   6.366  15.668  0.8280 -1.0534  1.3926
15188TIP3   OH266978   6.061   2.162   4.819  0.2462 -0.1583 -0.0668
15188TIP3    H166979   6.122   2.203   4.879 -0.9756  0.6180  0.6809
15188TIP3    H266980   6.027   2.234   4.765  0.2283 -0.6228 -0.6947
15189TIP3   OH266981   5.983   6.067  15.525  0.1200 -0.7354 -0.3413
15189TIP3    H166982   5.929   5.990  15.544 -1.4764  0.2069 -0.7944
15189TIP3    H266983   5.952   6.134  15.587  1.1112 -0.3071 -0.3008
15190TIP3   OH266984   1.063   4.810   3.329 -0.1057  0.1786  0.0156
15190TIP3    H166985   1.145   4.844   3.294 -0.8587 -0.1775 -2.2466
15190TIP3    H266986   1.088   4.767   3.411  1.6765  1.4979  0.2285
15191TIP3   OH266987   4.320   6.281  12.441 -0.6936 -0.3809 -0.2185
15191TIP3    H166988   4.373   6.286  12.362 -1.5662 -1.6870 -0.9213
15191TIP3    H266989   4.292   6.371  12.457 -0.6407 -0.1153 -1.5013
15192TIP3   OH266990   0.736   4.197  11.656 -0.2190 -0.0206 -0.1786
15192TIP3    H166991   0.716   4.253  11.581  0.6708 -0.0414 -0.4362
15192TIP3    H266992   0.661   4.208  11.715 -1.5452 -0.9767 -1.6170
15193TIP3   OH266993   3.102   0.394   1.111 -0.8794 -0.0732 -0.7308
15193TIP3    H166994   3.194   0.409   1.133 -0.8162  0.5645 -1.4068
15193TIP3    H266995   3.058   0.388   1.196 -0.4577  1.2053 -0.3968
15194TIP3   OH266996   1.817   6.037  16.617  0.2147  0.3722  0.2314
15194TIP3    H166997   1.843   5.996  16.700 -0.6308 -2.2686 -0.7158
15194TIP3    H266998   1.866   5.988  16.550  0.0588  1.7348 -0.9127
15195TIP3   OH266999   5.910   2.813  16.099  0.5778  0.1648 -0.1017
15195TIP3    H167000   5.942   2.800  16.189  0.5128  0.1566 -0.0792
15195TIP3    H267001   5.989   2.819  16.046  0.6127 -0.8685 -0.1940
15196TIP3   OH267002   5.789   0.776  13.898  0.7938 -0.3502  0.8580
15196TIP3    H167003   5.803   0.740  13.986 -0.4958 -0.8368  0.8803
15196TIP3    H267004   5.797   0.871  13.910  2.0684 -0.4795  1.2049
15197TIP3   OH267005   0.471   3.237   1.834  0.1208  0.3186  0.1462
15197TIP3    H167006   0.396   3.215   1.778  1.4996 -2.4684 -0.8271
15197TIP3    H267007   0.501   3.321   1.801 -0.8387  0.1043 -1.4129
15198TIP3   OH267008   6.467   2.402   0.068 -0.3553  0.4912  0.0040
15198TIP3    H167009   6.543   2.451   0.037  0.5167  0.1090  1.4072
15198TIP3    H267010   6.499   2.312   0.075 -1.2953  0.1069 -0.4917
15199TIP3   OH267011   1.494   1.898  11.529  0.3247 -0.8428  0.3305
15199TIP3    H167012   1.527   1.859  11.448 -0.0242  1.1433 -0.8241
15199TIP3    H267013   1.402   1.872  11.532  0.0389  0.0125 -0.5408
15200TIP3   OH267014   5.313   0.076  14.819  0.4338 -0.1597 -0.3594
15200TIP3    H167015   5.349   0.128  14.747  0.4800  0.7462  0.2929
15200TIP3    H267016   5.220   0.067  14.799  0.2182  1.0519  0.0013
15201TIP3   OH267017   4.255   0.919  16.868 -0.3345 -0.4515  0.2575
15201TIP3    H167018   4.335   0.963  16.897  1.1664 -1.0332 -2.6330
15201TIP3    H267019   4.205   0.988  16.823 -1.5680 -0.0804  2.0867
15202TIP3   OH267020   0.336   5.990  14.835  0.5666  0.4136 -0.6708
15202TIP3    H167021   0.268   6.017  14.897 -0.1790 -0.6676 -0.9874
15202TIP3    H267022   0.411   5.970  14.890 -0.5819 -2.1107  0.1258
15203TIP3   OH267023   1.077   5.135  14.446 -0.9253 -0.0940  0.0899
15203TIP3    H167024   1.006   5.082  14.482 -0.3482 -1.2886 -0.4839
15203TIP3    H267025   1.103   5.090  14.366 -0.8960  1.4598 -0.8357
15204TIP3   OH267026   0.542   2.355  11.724 -1.0804 -0.4640 -0.4657
15204TIP3    H167027   0.584   2.334  11.807  0.9628  0.1976 -1.2753
15204TIP3    H267028   0.449   2.367  11.746 -0.7715 -1.3393  1.5074
15205TIP3   OH267029   6.726   1.367  12.176  0.1497  0.8813 -0.0162
15205TIP3    H167030   6.766   1.310  12.110 -0.7989  0.7441 -0.4806
15205TIP3    H267031   6.639   1.386  12.143 -0.2619  1.0168  1.0881
15206TIP3   OH267032   6.653   2.467  13.990  0.5178  0.0200 -0.4835
15206TIP3    H167033   6.561   2.446  14.004  0.3392  0.3828 -1.0692
15206TIP3    H267034   6.699   2.424  14.061 -0.1216 -0.0521 -0.1104
15207TIP3   OH267035   3.440   1.420   1.984  0.4141 -0.1249 -0.0916
15207TIP3    H167036   3.438   1.329   1.955 -1.3214 -0.1541  0.0166
15207TIP3    H267037   3.408   1.417   2.074 -0.8593  0.6990 -0.4888
15208TIP3   OH267038   4.500   0.269   3.896 -0.0890  0.2854  0.3073
15208TIP3    H167039   4.492   0.174   3.904 -1.6617  0.4228  0.8432
15208TIP3    H267040   4.570   0.283   3.833 -1.0606 -1.2671 -1.1837
15209TIP3   OH267041   3.293   5.027  11.656 -0.8545  0.1498 -0.0422
15209TIP3    H167042   3.213   5.011  11.707 -0.4470 -0.2047  0.5068
15209TIP3    H267043   3.346   5.083  11.713 -0.6951  0.3445 -0.3842
15210TIP3   OH267044   3.620   3.351  10.437 -0.2844 -0.1109 -0.2290
15210TIP3    H167045   3.581   3.352  10.525 -0.7723 -0.7262 -0.4373
15210TIP3    H267046   3.561   3.404  10.384  0.1561  0.4879 -0.1320
15211TIP3   OH267047   6.629   2.485   4.701  0.1341 -0.3951  0.4358
15211TIP3    H167048   6.701   2.443   4.749  0.8363  1.0611  0.7020
15211TIP3    H267049   6.563   2.416   4.692  1.5766 -1.7928  0.1335
15212TIP3   OH267050   1.746   3.562  12.570  0.5820 -0.5935 -0.5109
15212TIP3    H167051   1.690   3.529  12.640  0.6476 -0.0734 -0.2036
15212TIP3    H267052   1.714   3.519  12.491 -0.6170  0.1002 -0.4275
15213TIP3   OH267053   4.221   0.877   5.373  0.2000 -0.0403  0.2565
15213TIP3    H167054   4.200   0.845   5.286 -0.5639  0.6708  0.1660
15213TIP3    H267055   4.313   0.902   5.368  0.5618 -1.3404  0.0801
15214TIP3   OH267056   0.033   6.781  15.274 -0.7867  0.1059  0.2342
15214TIP3    H167057   0.101   6.755  15.211 -0.2089  1.6834  0.1560
15214TIP3    H267058  -0.028   6.835  15.223 -0.5409  1.0466  0.9000
15215TIP3   OH267059   0.221   0.148  11.300  0.3434  0.7310 -0.2188
15215TIP3    H167060   0.247   0.147  11.207  1.6193 -0.1034  0.1179
15215TIP3    H267061   0.292   0.196  11.343  1.0469 -1.0080  0.6411
15216TIP3   OH267062   5.982   2.117  15.210  0.0059  0.0558 -0.6404
15216TIP3    H167063   5.973   2.037  15.262 -1.1883  0.3593 -0.3345
15216TIP3    H267064   6.076   2.129  15.199  0.2398 -0.6699  0.4411
15217TIP3   OH267065   6.588   0.698  11.186  0.0385 -0.2491 -0.5536
15217TIP3    H167066   6.494   0.700  11.201 -0.1098  0.4180 -1.5520
15217TIP3    H267067   6.599   0.704  11.091  1.1083  0.5271 -0.4016
15218TIP3   OH267068   5.641   6.158   4.564 -0.2533  0.0770  0.1483
15218TIP3    H167069   5.605   6.073   4.589 -1.4971  1.1318  2.1917
15218TIP3    H267070   5.569   6.203   4.519 -0.2487  0.7435  0.7815
15219TIP3   OH267071   4.691   1.447   2.338 -0.5179 -0.3408  0.3222
15219TIP3    H167072   4.740   1.388   2.395 -0.6806 -0.7702  0.0260
15219TIP3    H267073   4.747   1.525   2.330 -0.3946 -0.3696  0.8801
15220TIP3   OH267074   1.361   2.113   6.052  0.1529  0.2533 -0.3183
15220TIP3    H167075   1.315   2.101   6.135  1.5105  3.0693  0.9760
15220TIP3    H267076   1.348   2.030   6.005 -3.2372 -0.3268  1.3436
15221TIP3   OH267077   4.762   4.245   2.429 -0.3743  0.1055 -0.3432
15221TIP3    H167078   4.695   4.180   2.447 -2.0031  1.6030 -0.7673
15221TIP3    H267079   4.717   4.329   2.436  1.0463  1.1110 -2.2234
15222TIP3   OH267080   5.161   0.234  13.952  0.0526  0.6766  0.3089
15222TIP3    H167081   5.201   0.280  13.878 -0.3393  0.8895  0.2317
15222TIP3    H267082   5.234   0.184  13.990  0.2324  0.4726 -0.2890
15223TIP3   OH267083   1.421   6.199   1.072  0.4533  0.1954 -0.9407
15223TIP3    H167084   1.360   6.133   1.104  1.8890 -0.1806  1.2654
15223TIP3    H267085   1.389   6.281   1.108  1.1153  0.0101  0.1396
15224TIP3   OH267086   0.883   5.595  15.469  0.5366  0.0259  0.1574
15224TIP3    H167087   0.840   5.518  15.505  0.6465  1.3088  3.3700
15224TIP3    H267088   0.948   5.620  15.535  1.8027  1.8298 -1.6098
15225TIP3   OH267089   3.176   0.746   3.563 -0.2400  0.4018 -0.2878
15225TIP3    H167090   3.186   0.811   3.632  2.5341  1.7872 -1.8228
15225TIP3    H267091   3.144   0.795   3.488  1.6440  0.0450 -1.3940
15226TIP3   OH267092   3.883   2.961   0.980 -0.1721  0.1465  0.0708
15226TIP3    H167093   3.915   2.905   1.050  1.1972  0.6870 -0.0946
15226TIP3    H267094   3.789   2.969   0.997  0.1441  0.3945  1.9462
15227TIP3   OH267095   2.975   5.931  15.604  0.4130 -0.0907  0.3096
15227TIP3    H167096   3.002   6.022  15.596  0.5018 -0.1014  0.4749
15227TIP3    H267097   3.027   5.884  15.539 -1.1039  0.2695 -1.2544
15228TIP3   OH267098   2.189   6.547  15.381 -0.1971 -0.0904 -0.6516
15228TIP3    H167099   2.259   6.579  15.437  0.0437 -1.4407 -0.1443
15228TIP3    H267100   2.112   6.598  15.408 -0.8477 -2.6837  3.1458
15229TIP3   OH267101   1.001   3.885   6.785  0.0149  0.0952 -0.2928
15229TIP3    H167102   0.917   3.840   6.777 -0.5356  0.8657  0.8500
15229TIP3    H267103   1.064   3.816   6.806 -0.3930 -0.4430 -0.8376
15230TIP3   OH267104   4.473   3.998   0.606  0.2152  0.2885 -0.7253
15230TIP3    H167105   4.411   3.993   0.679  0.0295 -0.2387 -0.9188
15230TIP3    H267106   4.556   3.966   0.643 -0.5647 -2.9612 -1.5052
15231TIP3   OH267107   0.672   2.522  17.293 -0.0699 -0.0928 -0.1213
15231TIP3    H167108   0.731   2.596  17.309 -0.7339  0.9117 -2.0120
15231TIP3    H267109   0.596   2.539  17.349  0.7042 -0.5446  1.1102
15232TIP3   OH267110   6.147   6.281  12.331 -0.0225  0.6365 -0.8402
15232TIP3    H167111   6.159   6.186  12.335 -1.1676  0.4271 -2.0128
15232TIP3    H267112   6.184   6.307  12.247 -1.8653  0.8514 -1.6394
15233TIP3   OH267113   1.765   0.335  13.058  0.6619 -0.2068 -0.6253
15233TIP3    H167114   1.730   0.380  13.135  0.5006 -0.1095 -0.7568
15233TIP3    H267115   1.742   0.391  12.984  2.0926  0.4397 -0.6036
15234TIP3   OH267116   2.529   4.874  16.447  0.2688 -0.0458 -0.1837
15234TIP3    H167117   2.607   4.849  16.397  1.8884  2.7875  0.7130
15234TIP3    H267118   2.482   4.934  16.390  0.7377  1.1454  0.6476
15235TIP3   OH267119   6.497   6.060  12.264 -0.2874  0.2274 -0.2092
15235TIP3    H167120   6.454   6.067  12.349  1.1140 -0.9671  0.6518
15235TIP3    H267121   6.458   5.983  12.223 -0.1705  0.1320 -0.1444
15236TIP3   OH267122   2.630   0.924   2.851 -0.8442  0.7556 -0.1162
15236TIP3    H167123   2.646   0.984   2.779 -0.6839  1.7165  0.7036
15236TIP3    H267124   2.579   0.853   2.812  1.2949  0.0016 -1.7127
15237TIP3   OH267125   4.419   4.945   3.764 -0.6369  0.0486  0.1185
15237TIP3    H167126   4.495   4.890   3.744 -0.7121 -0.4725  1.1744
15237TIP3    H267127   4.345   4.884   3.769 -1.3490  0.6855 -1.9527
15238TIP3   OH267128   4.574   1.399  10.942  0.0805  0.1251 -0.3249
15238TIP3    H167129   4.610   1.485  10.921  1.8092 -0.8308 -1.5274
15238TIP3    H267130   4.557   1.403  11.036 -1.4835  2.3015 -0.6402
15239TIP3   OH267131   6.470   1.150  16.167 -0.6461 -0.4587 -0.2038
15239TIP3    H167132   6.482   1.221  16.105 -0.5473 -0.6074 -0.3557
15239TIP3    H267133   6.459   1.193  16.252  0.7420 -0.3077 -0.0806
15240TIP3   OH267134   5.565   4.248   1.357  0.4610  0.0339 -0.3115
15240TIP3    H167135   5.627   4.231   1.286  0.1950  1.2341 -0.8463
15240TIP3    H267136   5.593   4.189   1.427  0.4358 -1.5073 -1.5599
15241TIP3   OH267137   0.216   2.619  17.206 -0.1005 -0.0909  0.1828
15241TIP3    H167138   0.176   2.654  17.126  0.1519 -2.1251 -0.9160
15241TIP3    H267139   0.215   2.692  17.267 -0.8431  1.3837 -1.4831
15242TIP3   OH267140   2.798   3.570  12.531  0.0177  0.3503  0.2772
15242TIP3    H167141   2.801   3.527  12.616 -3.0915  0.2866  0.4702
15242TIP3    H267142   2.844   3.511  12.472 -0.3220 -1.0767  1.3806
15243TIP3   OH267143   0.962   1.301  15.098 -0.1469 -0.5720 -0.3499
15243TIP3    H167144   0.997   1.215  15.122 -0.7161 -0.3159  1.5123
15243TIP3    H267145   0.875   1.282  15.063  0.1190 -0.8188 -0.9005
15244TIP3   OH267146   2.542   3.664   1.655 -0.6027 -0.2134  0.1297
15244TIP3    H167147   2.564   3.736   1.596 -0.5569 -1.7747 -1.8416
15244TIP3    H267148   2.625   3.622   1.675 -0.5899  0.3976  1.5368
15245TIP3   OH267149   3.835   3.337  15.329  0.5765  0.2755 -0.3397
15245TIP3    H167150   3.757   3.365  15.281  0.4942  0.4879 -0.0844
15245TIP3    H267151   3.835   3.242  15.320  0.1741  0.2572 -0.1742
15246TIP3   OH267152   5.741   3.186   3.997 -0.1264 -0.6037  0.6429
15246TIP3    H167153   5.781   3.255   4.051  0.8750 -0.0189 -0.7750
15246TIP3    H267154   5.728   3.113   4.057  0.7337  0.0917  1.7252
15247TIP3   OH267155   4.631   3.480   0.507 -0.0671  0.2978 -0.1090
15247TIP3    H167156   4.622   3.507   0.598 -0.7444  0.5884 -0.2631
15247TIP3    H267157   4.556   3.519   0.462  0.6374  0.7558 -0.9314
15248TIP3   OH267158   5.757   5.960   1.349  0.1290 -0.2477  0.2583
15248TIP3    H167159   5.798   5.921   1.272  2.4021  0.2350  1.1606
15248TIP3    H267160   5.758   5.891   1.415  0.7855  0.1914  0.7172
15249TIP3   OH267161   3.279   1.220   2.904 -0.1451  0.4306 -0.4909
15249TIP3    H167162   3.210   1.286   2.906 -0.1561  0.5188  3.4101
15249TIP3    H267163   3.358   1.268   2.878 -0.6070  1.4979  0.0347
15250TIP3   OH267164   2.389   1.699   5.803 -0.4198  0.0653  0.1961
15250TIP3    H167165   2.462   1.646   5.770  0.5860  1.7600 -0.4162
15250TIP3    H267166   2.338   1.720   5.725 -1.1064 -0.4209  0.5114
15251TIP3   OH267167   6.118   1.118   2.000  0.5152 -0.1059  0.4272
15251TIP3    H167168   6.080   1.157   1.921  0.0591  0.4485  0.9020
15251TIP3    H267169   6.062   1.043   2.019  0.2067  0.1628  0.6007
15252TIP3   OH267170   2.500   6.318  12.861 -0.0248  0.6807  0.4949
15252TIP3    H167171   2.575   6.259  12.865  0.4034  1.1357 -0.4158
15252TIP3    H267172   2.474   6.332  12.952  0.9769  0.4876  0.8179
15253TIP3   OH267173   4.100   2.104   5.674 -0.3547 -0.2757 -0.7966
15253TIP3    H167174   4.034   2.144   5.730  0.5622 -0.5536  0.5276
15253TIP3    H267175   4.181   2.151   5.694  0.1525 -0.9020 -1.3110
15254TIP3   OH267176   4.726   4.456  12.626  0.6557  0.1475  0.5556
15254TIP3    H167177   4.763   4.371  12.602  1.1410 -0.2893  2.6536
15254TIP3    H267178   4.756   4.515  12.557 -0.1574 -1.4462 -1.2561
15255TIP3   OH267179   5.404   0.091  14.065 -0.1070 -0.1831 -0.1463
15255TIP3    H167180   5.451   0.032  14.006 -0.8029 -1.5372  0.5956
15255TIP3    H267181   5.333   0.037  14.101 -2.5201  1.8763 -1.5475
15256TIP3   OH267182   0.625   4.651  12.250 -0.3840 -0.3674  0.4034
15256TIP3    H167183   0.613   4.690  12.337  1.5158  0.4712  0.3361
15256TIP3    H267184   0.702   4.596  12.259  0.2405  0.2560 -0.9077
15257TIP3   OH267185   6.492   3.425  13.468  0.4395  0.1987 -0.0916
15257TIP3    H167186   6.557   3.368  13.510  1.2303  0.2246 -1.2578
15257TIP3    H267187   6.410   3.375  13.473  0.7968 -0.3693  0.2679
15258TIP3   OH267188   4.337   6.199  11.875  1.0409  0.2198  0.1827
15258TIP3    H167189   4.291   6.237  11.801  1.2266 -1.2796 -0.7547
15258TIP3    H267190   4.323   6.261  11.947 -2.6909 -0.2523  0.0701
15259TIP3   OH267191   1.364   2.984   3.998  0.5106 -0.5244  0.2176
15259TIP3    H167192   1.400   2.978   3.909 -0.0014  3.5118 -0.4527
15259TIP3    H267193   1.273   2.955   3.989  0.2960  0.4073 -0.7370
15260TIP3   OH267194   3.029   3.578   2.000  0.0254 -0.0106 -0.7829
15260TIP3    H167195   2.987   3.637   2.062  0.7286 -1.3717  1.0638
15260TIP3    H267196   3.079   3.635   1.941  0.6890  1.2432  0.9375
15261TIP3   OH267197   0.037   5.362   6.161  0.0389  0.5662  0.3272
15261TIP3    H167198  -0.011   5.402   6.233 -2.0106  0.3603 -0.8256
15261TIP3    H267199  -0.003   5.276   6.151  1.9712 -0.4060  0.4874
15262TIP3   OH267200   1.253   2.049  16.946  0.1219  1.2896  0.1269
15262TIP3    H167201   1.239   1.969  16.997 -1.3390  0.7120 -1.1048
15262TIP3    H267202   1.245   2.119  17.010 -0.7755  0.5489  0.8572
15263TIP3   OH267203   0.579   5.771  14.268  0.3821  0.1312 -0.0663
15263TIP3    H167204   0.589   5.850  14.321  1.9338 -0.3508  0.4306
15263TIP3    H267205   0.597   5.799  14.178 -1.8134  0.8602 -0.3278
15264TIP3   OH267206   6.227   3.396  10.824  0.0729  0.4972 -0.6007
15264TIP3    H167207   6.286   3.406  10.749  0.5935 -1.4392 -0.5131
15264TIP3    H267208   6.163   3.467  10.815  1.4690  1.6847 -1.5788
15265TIP3   OH267209   1.353   2.679   2.433 -0.3880  0.3417  0.2093
15265TIP3    H167210   1.446   2.701   2.437  0.0262 -1.1688 -0.3341
15265TIP3    H267211   1.308   2.763   2.436  1.0684  1.2798 -1.6841
15266TIP3   OH267212   1.848   0.251   1.546 -0.1298 -0.1734 -0.3812
15266TIP3    H167213   1.811   0.303   1.475 -1.3424  1.6869  1.4959
15266TIP3    H267214   1.778   0.190   1.571 -0.7757  1.0095  0.8958
15267TIP3   OH267215   1.951   0.383   2.606 -0.2541  0.5564  0.2164
15267TIP3    H167216   1.938   0.332   2.685 -0.5046  0.1700 -0.0684
15267TIP3    H267217   1.895   0.340   2.540 -1.2248  1.7720  0.2131
15268TIP3   OH267218   4.803   3.387  12.437  0.1300  0.4951 -0.3781
15268TIP3    H167219   4.849   3.464  12.470 -0.7114  0.7284  0.2781
15268TIP3    H267220   4.712   3.416  12.426 -0.7705 -1.0027  2.1905
15269TIP3   OH267221   5.181   2.565  14.195 -0.3226 -0.1249 -0.3481
15269TIP3    H167222   5.238   2.598  14.264  0.2336 -0.8578 -0.4461
15269TIP3    H267223   5.144   2.484  14.230 -0.5121 -0.1843 -0.6765
15270TIP3   OH267224   4.370   2.133  11.466  0.1873 -0.0351  0.2684
15270TIP3    H167225   4.374   2.041  11.441 -0.5835  0.2463 -0.9420
15270TIP3    H267226   4.425   2.178  11.402  1.0934  0.2967  1.2437
15271TIP3   OH267227   5.399   1.976   4.906 -0.0261 -0.1709  0.2265
15271TIP3    H167228   5.377   2.060   4.865  0.9969 -0.0755 -0.1697
15271TIP3    H267229   5.367   1.984   4.996 -0.9375  0.2073 -0.1229
15272TIP3   OH267230   4.010   5.438  14.537  0.9435 -0.2476  0.2482
15272TIP3    H167231   3.948   5.382  14.584  0.8850 -0.1551  0.2819
15272TIP3    H267232   3.961   5.472  14.462  1.7895 -2.4603 -1.3894
15273TIP3   OH267233   6.426   6.574  15.446  0.1847 -0.3610 -0.3857
15273TIP3    H167234   6.375   6.572  15.366 -0.2979  1.2010 -0.1597
15273TIP3    H267235   6.466   6.661  15.446 -0.0007 -0.2469  1.1639
15274TIP3   OH267236   1.497   1.492  13.198  0.3608 -0.2245  0.1049
15274TIP3    H167237   1.508   1.495  13.294  0.1123 -1.2716  0.1750
15274TIP3    H267238   1.415   1.539  13.182  0.5551  0.2194  0.3719
15275TIP3   OH267239   2.166   4.369   5.646 -0.0206 -0.1881 -0.5390
15275TIP3    H167240   2.227   4.383   5.718  1.4950  1.2192 -2.0055
15275TIP3    H267241   2.099   4.437   5.658 -0.5659 -0.8475  0.2851
15276TIP3   OH267242   1.757   3.547   1.749 -0.1692  0.4350  0.4893
15276TIP3    H167243   1.783   3.456   1.755 -1.3318 -0.0008 -0.5960
15276TIP3    H267244   1.744   3.563   1.655 -0.2778  1.6226  0.6834
15277TIP3   OH267245   0.932   3.472  16.602  0.1148  0.4495  0.1139
15277TIP3    H167246   0.841   3.474  16.572  0.0720  1.6901  0.2770
15277TIP3    H267247   0.935   3.537  16.673  0.9589 -0.1145  0.6018
15278TIP3   OH267248   2.569   1.085  11.837  0.0331 -0.4845  0.3401
15278TIP3    H167249   2.635   1.142  11.877 -0.7542  0.4773  0.3302
15278TIP3    H267250   2.616   1.004  11.817  0.7636 -0.5244  2.0203
15279TIP3   OH267251   0.627   0.179   5.614 -0.2335 -0.1712  0.3714
15279TIP3    H167252   0.607   0.199   5.523  0.0370 -0.1873  0.3096
15279TIP3    H267253   0.697   0.114   5.610  1.4799  1.5700  0.5916
15280TIP3   OH267254   1.030   4.855  11.805  1.0578  0.2017 -0.2904
15280TIP3    H167255   1.086   4.917  11.852  0.0682  2.0569 -1.4265
15280TIP3    H267256   1.049   4.871  11.713 -0.1839 -0.2282 -0.6395
15281TIP3   OH267257   3.347   5.495   2.921 -0.1709 -0.2969 -0.2012
15281TIP3    H167258   3.386   5.460   3.001  1.0530  0.3563 -0.4863
15281TIP3    H267259   3.308   5.419   2.878  1.7144 -1.2102 -0.4068
15282TIP3   OH267260   5.899   1.789  13.001 -0.4110 -0.4915 -0.2676
15282TIP3    H167261   5.822   1.791  13.058  1.4222 -1.6988  2.5041
15282TIP3    H267262   5.912   1.880  12.974 -2.3294 -0.1511 -0.1839
15283TIP3   OH267263   1.937   0.520   4.564 -0.9125  0.2267 -0.0989
15283TIP3    H167264   2.026   0.488   4.545 -1.2494 -0.1035 -1.1859
15283TIP3    H267265   1.879   0.455   4.525 -1.6505  0.3853  0.6962
15284TIP3   OH267266   3.545   1.760   4.828 -0.5114  0.1583 -0.1811
15284TIP3    H167267   3.481   1.692   4.807 -1.7669  1.1018  0.4111
15284TIP3    H267268   3.629   1.715   4.830 -1.4107 -1.6144  1.2384
15285TIP3   OH267269   2.325   3.933  12.386 -0.7707 -0.2085 -0.0356
15285TIP3    H167270   2.306   3.844  12.416  0.2644 -0.0515  1.2194
15285TIP3    H267271   2.399   3.923  12.326  0.4879 -0.0855  1.4210
15286TIP3   OH267272   5.950   2.371   0.048 -0.0316 -0.0372 -0.1237
15286TIP3    H167273   6.031   2.421   0.042 -0.2710  0.3014 -0.5690
15286TIP3    H267274   5.916   2.371  -0.042 -1.1645  0.8835  0.2952
15287TIP3   OH267275   6.565   4.955   4.957  0.3424 -0.1051 -0.2233
15287TIP3    H167276   6.470   4.959   4.972  0.3992  0.4161 -0.0012
15287TIP3    H267277   6.597   4.893   5.022  0.3458  0.8090  0.6771
15288TIP3   OH267278   3.852   2.688   5.154  0.4500 -0.6990  0.3969
15288TIP3    H167279   3.800   2.659   5.079 -0.7551  0.4578  0.7601
15288TIP3    H267280   3.892   2.770   5.125 -0.5000  0.0661  1.1998
15289TIP3   OH267281   5.667   5.361  15.765  0.2396  0.2217 -0.3001
15289TIP3    H167282   5.638   5.271  15.781 -2.4293  0.3402 -3.3957
15289TIP3    H267283   5.751   5.352  15.720 -1.9927 -1.3127 -4.8686
15290TIP3   OH267284   6.614   0.846   6.047 -0.0641 -0.0542  0.3567
15290TIP3    H167285   6.648   0.908   5.983  1.4983  0.7094  1.8603
15290TIP3    H267286   6.588   0.900   6.122 -4.2235 -0.6349 -0.4201
15291TIP3   OH267287   6.683   0.508   0.576  0.2667  0.1030 -0.4646
15291TIP3    H167288   6.697   0.586   0.629  2.0832 -0.1163 -0.5401
15291TIP3    H267289   6.608   0.530   0.521  0.6452  1.7617 -0.3922
15292TIP3   OH267290   3.403   6.540  17.031 -0.7675  0.0740 -0.4983
15292TIP3    H167291   3.308   6.544  17.040 -0.5648  0.7611  2.2875
15292TIP3    H267292   3.429   6.628  17.005 -0.7836  0.4112  0.5878
15293TIP3   OH267293   0.234   1.545   1.535  0.1952 -0.0385  0.0131
15293TIP3    H167294   0.253   1.597   1.457 -0.7563 -0.0757 -0.2529
15293TIP3    H267295   0.141   1.524   1.527 -0.4188  1.5786  2.1356
15294TIP3   OH267296   5.987   0.757   5.033 -0.1021  0.4982 -0.2045
15294TIP3    H167297   6.022   0.669   5.048  0.4834  0.7441 -0.0856
15294TIP3    H267298   6.057   0.803   4.986 -1.0620  0.4051 -1.7749
15295TIP3   OH267299   1.080   1.728  16.639 -0.3232  0.0593 -0.2886
15295TIP3    H167300   0.999   1.699  16.598  0.1400 -0.3312 -0.9424
15295TIP3    H267301   1.061   1.816  16.671 -1.1239 -0.1823 -0.0791
15296TIP3   OH267302   3.429   0.074  11.537  0.0840 -0.1114  0.4305
15296TIP3    H167303   3.497   0.069  11.470 -0.4778  0.6881 -0.2206
15296TIP3    H267304   3.352   0.033  11.497  0.1589 -0.9663  1.1434
15297TIP3   OH267305   0.948   5.514  14.388  0.0654 -0.5694 -0.1250
15297TIP3    H167306   0.984   5.477  14.307 -1.1944 -0.0069 -0.9810
15297TIP3    H267307   0.853   5.519  14.372 -0.1701 -0.1609  1.2699
15298TIP3   OH267308   3.843   5.885   1.884  0.2085  0.1304 -0.4784
15298TIP3    H167309   3.875   5.803   1.921  0.2972 -0.2504 -1.3715
15298TIP3    H267310   3.873   5.884   1.793 -0.2573  0.9018 -0.6563
15299TIP3   OH267311   5.967   5.047   2.100  0.5404 -0.0596  0.8286
15299TIP3    H167312   5.901   4.980   2.119  0.7462  0.0165  1.8842
15299TIP3    H267313   5.916   5.120   2.064  0.0524 -0.0376  1.5441
15300TIP3   OH267314   3.969   2.308   1.011 -0.2813  0.2742 -0.3938
15300TIP3    H167315   4.007   2.395   1.001 -2.2356  1.2800  0.4901
15300TIP3    H267316   3.908   2.316   1.084  0.1724 -2.0993  0.3380
15301TIP3   OH267317   5.254   0.749  14.939  0.2061  0.4921 -0.2263
15301TIP3    H167318   5.184   0.730  14.876  0.9413 -1.3409 -0.5563
15301TIP3    H267319   5.333   0.756  14.886  0.4450  1.6267  0.2451
15302TIP3   OH267320   6.108   4.023  12.231  0.1403  0.3082 -0.0315
15302TIP3    H167321   6.114   4.105  12.184 -0.6813  0.3538 -0.0685
15302TIP3    H267322   6.151   4.040  12.315 -0.2002  0.8338  0.0379
15303TIP3   OH267323   3.310   2.222  12.782 -0.3294 -0.2155 -0.7291
15303TIP3    H167324   3.329   2.271  12.861  0.5970  1.0175 -1.6674
15303TIP3    H267325   3.396   2.206  12.743 -0.7966 -0.3354 -1.7476
15304TIP3   OH267326   5.763   3.884   2.102  0.6388  0.1884  0.3180
15304TIP3    H167327   5.770   3.922   2.014 -1.6803  1.2595  0.5314
15304TIP3    H267328   5.723   3.952   2.154  0.5132 -1.0043  1.8455
15305TIP3   OH267329   0.351   2.882  15.186 -0.1192  0.2697 -0.1938
15305TIP3    H167330   0.317   2.813  15.242  0.9289  1.1567  1.6200
15305TIP3    H267331   0.357   2.841  15.099  0.4197 -1.9238  0.7963
15306TIP3   OH267332   0.721   4.641  14.509 -0.1243  0.3847  0.0866
15306TIP3    H167333   0.808   4.681  14.504  0.0714 -0.0757 -0.1883
15306TIP3    H267334   0.702   4.637  14.603  0.5474 -0.3729  0.1972
15307TIP3   OH267335   4.211   4.690   4.113  0.1900 -0.2418 -0.0368
15307TIP3    H167336   4.169   4.606   4.094  0.2698 -0.1350 -0.6982
15307TIP3    H267337   4.277   4.669   4.180  0.6237 -0.8155 -0.6340
15308TIP3   OH267338   2.292   0.374  12.650  0.1052  0.2792 -0.3230
15308TIP3    H167339   2.380   0.400  12.622  0.6420 -1.0888  0.0342
15308TIP3    H267340   2.270   0.436  12.719  0.0119  1.7822 -1.6366
15309TIP3   OH267341   3.627   0.245   0.957 -0.7188 -0.0154  0.0828
15309TIP3    H167342   3.596   0.305   0.888 -0.4602 -0.5368 -0.4974
15309TIP3    H267343   3.712   0.215   0.925 -0.6146 -0.2912  0.6202
15310TIP3   OH267344   2.168   5.263   5.601 -0.4800 -0.0675  0.0023
15310TIP3    H167345   2.169   5.270   5.505  1.8971 -1.2606 -0.1092
15310TIP3    H267346   2.099   5.198   5.619  0.8981 -1.9619 -1.1432
15311TIP3   OH267347   3.883   3.117  13.498 -0.0505  0.4998  0.5480
15311TIP3    H167348   3.972   3.148  13.515 -0.0903  1.8086 -1.3486
15311TIP3    H267349   3.832   3.197  13.489 -0.8193 -0.1600 -1.2743
15312TIP3   OH267350   5.843   2.175   0.714  0.1797  0.0969 -0.0856
15312TIP3    H167351   5.763   2.132   0.742  0.5370  0.5732  1.7658
15312TIP3    H267352   5.863   2.135   0.629 -2.0788  0.1001 -0.6838
15313TIP3   OH267353   2.783   6.538  16.248 -0.0087  0.1191 -0.6783
15313TIP3    H167354   2.806   6.500  16.333 -0.7278  0.2626 -0.4064
15313TIP3    H267355   2.733   6.469  16.204 -0.0066  0.1978 -0.8047
15314TIP3   OH267356   2.607   5.107   2.042  0.0409  0.4041 -0.3708
15314TIP3    H167357   2.562   5.078   2.121  1.2912 -1.5621 -0.3049
15314TIP3    H267358   2.570   5.193   2.024 -0.1444  1.0147  2.4418
15315TIP3   OH267359   6.383   6.760   4.247  0.2648  0.2491 -0.4444
15315TIP3    H167360   6.448   6.739   4.314 -0.9245 -0.5134  0.5320
15315TIP3    H267361   6.370   6.678   4.200  0.4040  0.5385 -0.9893
15316TIP3   OH267362   1.715   1.576   1.055 -0.2391 -0.0585  0.2307
15316TIP3    H167363   1.678   1.612   0.975  0.6627 -2.1813 -1.2518
15316TIP3    H267364   1.674   1.626   1.126 -0.4066  2.4864 -1.5453
15317TIP3   OH267365   5.675   6.527  11.658 -0.0048  0.0895  0.3684
15317TIP3    H167366   5.596   6.582  11.661 -0.1815 -0.1468  0.0671
15317TIP3    H267367   5.742   6.584  11.621  0.3393  0.7406  1.9299
15318TIP3   OH267368   6.650   4.158   5.417 -0.3825 -0.6901  0.1751
15318TIP3    H167369   6.568   4.115   5.443 -1.7168  1.7976  0.4831
15318TIP3    H267370   6.621   4.237   5.371  1.8780  0.0965 -0.0165
15319TIP3   OH267371   3.637   6.497   3.094 -0.1020  0.5529  0.3530
15319TIP3    H167372   3.651   6.560   3.023  0.2679 -0.0085 -0.0822
15319TIP3    H267373   3.725   6.470   3.120 -0.2583  0.1737  0.4981
15320TIP3   OH267374   0.637   1.781  15.464 -0.7503 -0.1037 -0.0154
15320TIP3    H167375   0.710   1.834  15.499 -0.5138  0.4995 -1.3566
15320TIP3    H267376   0.642   1.699  15.513  2.8751 -1.4139 -2.1361
15321TIP3   OH267377   1.198   3.862  17.058  0.2577 -0.3513 -0.2863
15321TIP3    H167378   1.150   3.822  17.130  1.4539 -2.6808 -0.6418
15321TIP3    H267379   1.140   3.930  17.024 -1.2091 -0.6223  1.5264
15322TIP3   OH267380   4.912   4.645   3.861 -0.7009 -0.5292 -0.1649
15322TIP3    H167381   4.922   4.619   3.769 -0.0448  0.9497 -0.5281
15322TIP3    H267382   4.861   4.726   3.858 -1.4567 -0.9392  0.8516
15323TIP3   OH267383   0.605   5.453   5.043 -0.3009  0.7210 -0.8694
15323TIP3    H167384   0.552   5.498   4.978 -1.5153  0.2729 -0.2094
15323TIP3    H267385   0.620   5.365   5.007 -1.6142  0.2151 -0.2417
15324TIP3   OH267386   5.871   5.528   4.848 -0.1601  0.3134  0.0833
15324TIP3    H167387   5.863   5.468   4.774  0.5492 -0.4729  0.6158
15324TIP3    H267388   5.822   5.606   4.822  1.0755  0.5438 -1.7169
15325TIP3   OH267389   0.380   3.261   3.616 -0.3801  0.3686  0.5484
15325TIP3    H167390   0.459   3.258   3.562 -1.1371 -3.0024 -0.5831
15325TIP3    H267391   0.411   3.291   3.702  3.2060 -4.8402  1.5206
15326TIP3   OH267392   3.923   5.318  15.917 -0.4314 -0.0326  0.0131
15326TIP3    H167393   3.886   5.247  15.970  1.1547 -0.5700  0.4629
15326TIP3    H267394   3.993   5.276  15.868 -1.1400  0.7161 -1.6948
15327TIP3   OH267395   4.029   4.671   5.253  0.5668 -0.1300 -0.3084
15327TIP3    H167396   4.009   4.577   5.247  1.8194 -0.3522 -1.6729
15327TIP3    H267397   4.123   4.675   5.270  0.2686  0.8924  1.2652
15328TIP3   OH267398   6.633   2.709  13.630 -0.2260 -0.4156 -0.7942
15328TIP3    H167399   6.578   2.666  13.565  0.4540  0.3364 -1.8889
15328TIP3    H267400   6.570   2.749  13.691 -0.8645 -1.2484 -0.8832
15329TIP3   OH267401   4.685   1.606  16.999 -0.0447 -0.1962 -0.6279
15329TIP3    H167402   4.703   1.591  16.907 -0.4939  0.3085 -0.8013
15329TIP3    H267403   4.626   1.681  17.001 -1.2257 -1.1060 -0.0203
15330TIP3   OH267404   5.350   0.345  15.286 -0.4045  0.4755 -0.2459
15330TIP3    H167405   5.379   0.265  15.241 -0.1044  0.2444  0.3530
15330TIP3    H267406   5.321   0.403  15.215  1.1572  0.5745 -0.8458
15331TIP3   OH267407   6.291   1.184  14.329 -0.6396  0.3373 -0.1259
15331TIP3    H167408   6.250   1.259  14.286  1.5118  1.2031 -0.8030
15331TIP3    H267409   6.360   1.222  14.383 -0.0800 -1.1047  0.2285
15332TIP3   OH267410   0.941   4.061  11.558 -0.0278  0.2608  0.0209
15332TIP3    H167411   0.919   4.087  11.469 -0.3960 -0.0848  0.0088
15332TIP3    H267412   0.871   4.098  11.612  0.0395  0.2224  0.1361
15333TIP3   OH267413   5.737   5.596   0.208  0.0775  0.1284  0.2368
15333TIP3    H167414   5.783   5.578   0.290  0.0497 -0.8797  0.0443
15333TIP3    H267415   5.646   5.613   0.235 -0.0756 -0.8507  0.3669
15334TIP3   OH267416   4.471   5.811   5.662  0.8590  0.0289  0.2085
15334TIP3    H167417   4.461   5.844   5.751  1.7462  0.3327  0.1984
15334TIP3    H267418   4.388   5.834   5.619 -0.8747 -2.7470  1.7305
15335TIP3   OH267419   0.331   1.445   0.029 -0.0633  0.4061  0.2150
15335TIP3    H167420   0.385   1.375   0.067  1.2160  1.3778  0.2468
15335TIP3    H267421   0.375   1.467  -0.053 -0.1210  1.5550  0.4810
15336TIP3   OH267422   0.801   2.503   1.989 -0.2383  0.4680 -0.5913
15336TIP3    H167423   0.729   2.513   1.926 -0.4078 -0.4642 -0.5618
15336TIP3    H267424   0.805   2.587   2.035  0.5357  1.5365 -2.5024
15337TIP3   OH267425   5.772   5.607   2.328 -0.3931 -0.1414  0.1179
15337TIP3    H167426   5.741   5.660   2.255  0.6251  1.4430  0.7987
15337TIP3    H267427   5.862   5.585   2.305 -0.4222 -0.5736  0.4021
15338TIP3   OH267428   2.807   5.358   3.159  0.5973 -0.5262  0.3688
15338TIP3    H167429   2.747   5.425   3.126  0.8895 -1.1687 -1.5472
15338TIP3    H267430   2.755   5.310   3.224 -0.6452 -0.4508 -0.5439
15339TIP3   OH267431   2.154   1.735   2.280  0.3646 -0.8054 -1.1526
15339TIP3    H167432   2.236   1.749   2.232  0.9692 -0.4848 -0.0660
15339TIP3    H267433   2.181   1.730   2.372 -0.9546  0.3768 -0.6663
15340TIP3   OH267434   1.881   5.770  15.089  0.3301 -0.6468  0.4681
15340TIP3    H167435   1.894   5.678  15.112  0.4318 -0.6257  0.4972
15340TIP3    H267436   1.935   5.817  15.152 -1.2467 -0.4601  1.7508
15341TIP3   OH267437   1.072   1.449   4.715  0.4019  0.1835 -0.0097
15341TIP3    H167438   0.992   1.412   4.679  1.2917  0.1342 -2.0309
15341TIP3    H267439   1.114   1.376   4.761 -0.5533  0.1453  0.8341
15342TIP3   OH267440   5.595   0.141   4.616 -0.2630  0.3126  0.0278
15342TIP3    H167441   5.585   0.196   4.694  0.8200  3.2181 -1.7020
15342TIP3    H267442   5.505   0.119   4.590 -0.6462 -0.4404  1.8654
15343TIP3   OH267443   5.947   3.524   0.301 -0.1059  0.2796 -0.5162
15343TIP3    H167444   6.007   3.484   0.364 -0.7278 -0.7478 -0.5536
15343TIP3    H267445   5.878   3.563   0.355 -0.7716 -0.8206 -0.5598
15344TIP3   OH267446   0.706   0.452  13.276  0.0576  0.2544  0.0602
15344TIP3    H167447   0.680   0.400  13.200  0.4723  1.1013 -0.6818
15344TIP3    H267448   0.765   0.394  13.325 -1.5136 -0.9078  0.6541
15345TIP3   OH267449   6.324   1.494  10.762  0.0932 -0.4545  0.1319
15345TIP3    H167450   6.300   1.561  10.826  1.6950 -0.1796  0.4944
15345TIP3    H267451   6.403   1.454  10.798  2.1146  0.9132 -2.4678
15346TIP3   OH267452   0.091   0.196   4.969 -0.7487  0.0273  0.4657
15346TIP3    H167453   0.124   0.280   4.936 -0.5574 -0.2849 -0.1547
15346TIP3    H267454   0.078   0.211   5.063 -1.2055  0.9015  0.2715
15347TIP3   OH267455   0.881   6.036   6.467  0.0533  0.1732  0.0336
15347TIP3    H167456   0.947   6.105   6.476 -1.3828  1.8960 -1.7878
15347TIP3    H267457   0.799   6.083   6.453 -0.9584 -1.8944 -1.5427
15348TIP3   OH267458   4.824   0.530   0.176 -0.2256  0.3976  0.4866
15348TIP3    H167459   4.782   0.577   0.248 -0.5008 -1.5509  1.6689
15348TIP3    H267460   4.779   0.446   0.173  0.7513 -0.1052 -1.0354
15349TIP3   OH267461   6.460   0.803   5.676  0.2780 -0.0081  0.5527
15349TIP3    H167462   6.461   0.740   5.604  0.8869 -1.2545  1.6031
15349TIP3    H267463   6.369   0.832   5.682  0.5553  1.7929 -2.0519
15350TIP3   OH267464   5.598   0.532  10.777  0.5958  0.2495 -0.0395
15350TIP3    H167465   5.516   0.484  10.771  1.1979 -0.6321 -2.3097
15350TIP3    H267466   5.663   0.466  10.801  1.0357  0.4219 -0.7345
15351TIP3   OH267467   2.134   5.735   1.592 -0.0568  0.0031  0.4963
15351TIP3    H167468   2.167   5.818   1.627 -2.1837  0.9018  0.5129
15351TIP3    H267469   2.078   5.700   1.661  0.6694 -1.4030  0.4135
15352TIP3   OH267470   3.627   4.633   4.967 -0.0994  0.4138 -0.2383
15352TIP3    H167471   3.545   4.644   4.918  0.6140  1.0400 -1.3140
15352TIP3    H267472   3.601   4.640   5.059 -1.3158  0.1614 -0.5427
15353TIP3   OH267473   3.230   2.721  11.817  0.5835  0.4954 -0.1067
15353TIP3    H167474   3.294   2.657  11.787  0.0145 -0.0150 -0.2701
15353TIP3    H267475   3.158   2.668  11.852 -0.4910  0.9919 -1.4730
15354TIP3   OH267476   1.888   1.754   3.289  0.0959  0.1838 -0.6484
15354TIP3    H167477   1.965   1.791   3.247  1.2625 -0.8292  0.5212
15354TIP3    H267478   1.872   1.812   3.364 -0.3650  0.4498 -0.9437
15355TIP3   OH267479   0.593   3.594   4.702 -0.3775 -0.4165 -0.2464
15355TIP3    H167480   0.685   3.570   4.698 -0.1633  0.5133 -1.9598
15355TIP3    H267481   0.547   3.511   4.709  0.5567 -0.9554 -0.3178
15356TIP3   OH267482   5.081   5.509  10.849  0.5703  0.0809 -0.2818
15356TIP3    H167483   5.070   5.597  10.812 -2.3817 -0.5376 -1.0964
15356TIP3    H267484   5.037   5.513  10.934  0.6051 -0.5613 -0.2294
15357TIP3   OH267485   0.603   1.901   2.556  0.2241 -0.0539 -0.0776
15357TIP3    H167486   0.622   1.972   2.618  2.6293  0.8092 -1.6343
15357TIP3    H267487   0.649   1.825   2.591 -2.5111 -1.0283  1.6925
15358TIP3   OH267488   0.391   3.919   0.981  0.0063 -0.0825 -0.4643
15358TIP3    H167489   0.470   3.864   0.975  0.1521  0.0552  0.1115
15358TIP3    H267490   0.396   3.958   1.068 -1.3149 -1.0230  0.0772
15359TIP3   OH267491   1.142   1.196   4.330  0.6993 -0.4371 -0.1051
15359TIP3    H167492   1.188   1.180   4.412  3.5218 -1.5820 -1.7667
15359TIP3    H267493   1.123   1.290   4.331 -0.4551 -0.6116  2.3068
15360TIP3   OH267494   6.765   0.459  12.502 -0.5276  0.3650  0.1809
15360TIP3    H167495   6.688   0.417  12.464  0.6288 -1.6694 -0.0661
15360TIP3    H267496   6.736   0.489  12.588 -1.2998 -1.5149  0.6290
15361TIP3   OH267497   3.911   3.621  15.452  0.1831  0.1074 -0.4006
15361TIP3    H167498   3.992   3.672  15.446  0.4686 -0.1140  1.0671
15361TIP3    H267499   3.928   3.544  15.398  0.5362  0.5921 -0.9882
15362TIP3   OH267500   3.334   5.718  12.618 -0.1109 -0.2207 -0.0707
15362TIP3    H167501   3.354   5.625  12.624  0.0767 -0.1832 -0.0883
15362TIP3    H267502   3.257   5.723  12.562  0.8943 -0.2409 -1.5003
15363TIP3   OH267503   5.422   4.347   0.286  0.0924 -0.1738  0.0884
15363TIP3    H167504   5.425   4.393   0.369  0.5492  0.4477 -0.2649
15363TIP3    H267505   5.334   4.365   0.251 -0.0674 -0.3642  0.3924
15364TIP3   OH267506   5.309   0.183  11.367 -0.7215 -0.0125 -0.1266
15364TIP3    H167507   5.306   0.109  11.427 -2.5743 -0.1507 -0.3410
15364TIP3    H267508   5.323   0.144  11.281 -0.7426 -0.0300 -0.1222
15365TIP3   OH267509   5.284   3.535  15.181 -0.6537 -0.2142 -0.4397
15365TIP3    H167510   5.212   3.477  15.204 -2.2411  1.5970 -0.5578
15365TIP3    H267511   5.244   3.622  15.176  1.8503  1.1572  1.1606
15366TIP3   OH267512   6.627   1.234  13.716 -0.2619  0.1068 -0.4760
15366TIP3    H167513   6.708   1.255  13.762 -0.0189  1.3023 -1.4250
15366TIP3    H267514   6.620   1.138  13.724  2.7898 -0.4449 -2.8364
15367TIP3   OH267515   6.750   1.913   6.118 -0.1157  0.5546  0.3474
15367TIP3    H167516   6.755   1.818   6.110 -0.8598  0.5308  0.0637
15367TIP3    H267517   6.720   1.929   6.207 -0.8169  0.4845  0.1317
15368TIP3   OH267518   3.595   4.217  11.215 -0.4812 -0.0304  0.3126
15368TIP3    H167519   3.610   4.127  11.244  1.2228  0.1474  0.0707
15368TIP3    H267520   3.677   4.243  11.175 -1.3430  1.2484 -0.7023
15369TIP3   OH267521   5.967   2.392  13.029 -0.3947 -0.3433  0.1755
15369TIP3    H167522   5.958   2.457  12.960 -0.0842  0.5841  0.9890
15369TIP3    H267523   5.883   2.395  13.076 -0.8626 -1.4424 -0.5282
15370TIP3   OH267524   3.537   6.607  15.420 -0.0264 -0.0152 -0.1611
15370TIP3    H167525   3.521   6.540  15.487 -0.3796  0.5738  0.3614
15370TIP3    H267526   3.467   6.672  15.435  0.0176  0.2225 -0.9723
15371TIP3   OH267527   0.522   0.064   1.833 -0.1348 -0.1154 -0.1294
15371TIP3    H167528   0.439   0.103   1.806 -0.7568  1.1435  3.1226
15371TIP3    H267529   0.519  -0.025   1.797 -2.7494 -0.0105 -0.4145
15372TIP3   OH267530   0.797   3.569   1.992  0.1617  0.3483  0.1523
15372TIP3    H167531   0.770   3.643   1.937  1.0748  1.3302  0.9646
15372TIP3    H267532   0.838   3.507   1.931 -0.9008  0.3500 -0.5906
15373TIP3   OH267533   2.726   2.570  15.805 -0.3720  0.1145  0.3102
15373TIP3    H167534   2.648   2.539  15.851  1.1055  2.1226  4.7911
15373TIP3    H267535   2.700   2.654  15.767 -0.7558  0.2182  0.7805
15374TIP3   OH267536   0.265   4.361   5.899  0.4221  0.4830  0.1012
15374TIP3    H167537   0.286   4.418   5.824 -0.9924  3.1181  1.5637
15374TIP3    H267538   0.192   4.308   5.868  0.1511  1.2110 -0.5551
15375TIP3   OH267539   5.702   1.660   3.457 -0.4432  0.5784 -0.6263
15375TIP3    H167540   5.619   1.698   3.486 -1.8716 -1.5620 -1.7074
15375TIP3    H267541   5.678   1.576   3.418  2.1470  0.2868 -1.7795
15376TIP3   OH267542   2.241   2.825   3.112  0.4047 -0.0549  0.4311
15376TIP3    H167543   2.235   2.844   3.018 -1.4616  1.6792  0.8334
15376TIP3    H267544   2.269   2.908   3.151  0.0699 -0.4345  1.5074
15377TIP3   OH267545   3.941   0.284   1.712  0.6052  0.4467  0.0715
15377TIP3    H167546   3.915   0.363   1.664  0.0030 -0.7014 -1.5944
15377TIP3    H267547   3.871   0.272   1.777 -0.2877  0.3119 -0.8737
15378TIP3   OH267548   5.946   1.196   2.527  0.3492 -0.5340 -0.3285
15378TIP3    H167549   5.979   1.286   2.531  1.4302 -0.7406 -2.7722
15378TIP3    H267550   5.879   1.192   2.595  1.7775  1.4620  1.3191
15379TIP3   OH267551   4.606   5.064  11.515 -0.5711 -0.1563  0.4598
15379TIP3    H167552   4.534   5.123  11.540  0.6329  1.4299  0.3337
15379TIP3    H267553   4.628   5.089  11.426  1.0225  0.3415  0.9571
15380TIP3   OH267554   5.291   5.712  16.085  0.2695  0.5997  0.4366
15380TIP3    H167555   5.287   5.699  16.180  0.2000 -2.0356  0.1454
15380TIP3    H267556   5.268   5.626  16.048  2.2270  0.9952 -1.9456
15381TIP3   OH267557   4.105   6.171   2.966  0.1725  0.2558  0.0060
15381TIP3    H167558   4.085   6.085   2.927  0.2234  0.7103 -1.0539
15381TIP3    H267559   4.020   6.215   2.971  0.3509  0.7146 -0.8753
15382TIP3   OH267560   6.319   4.443   5.162  0.3061 -0.1355  0.1541
15382TIP3    H167561   6.286   4.361   5.200 -0.5543 -0.3729 -1.0521
15382TIP3    H267562   6.245   4.503   5.169  0.0211 -0.2745 -1.3860
15383TIP3   OH267563   2.902   2.681   5.403 -0.7700 -0.1219 -0.7425
15383TIP3    H167564   2.924   2.639   5.486 -1.7779  0.5394 -0.1217
15383TIP3    H267565   2.950   2.763   5.404  0.2282 -0.6733 -1.4093
15384TIP3   OH267566   4.155   4.546  13.938 -0.5219 -0.1363 -0.1289
15384TIP3    H167567   4.072   4.544  13.986  0.1309 -0.1759  1.0416
15384TIP3    H267568   4.218   4.580  14.001 -0.1075  2.4418 -1.7672
15385TIP3   OH267569   0.741   5.418   6.250 -0.5327  0.3740 -0.5401
15385TIP3    H167570   0.820   5.435   6.200 -0.3842  0.6113 -0.2217
15385TIP3    H267571   0.761   5.341   6.302  0.4940  2.0556  1.6815
15386TIP3   OH267572   3.943   3.277   5.059  0.1789 -0.3506 -0.0915
15386TIP3    H167573   3.982   3.340   5.120 -0.2520 -1.1824  1.0871
15386TIP3    H267574   3.919   3.203   5.114 -2.1317 -0.3014 -0.9458
15387TIP3   OH267575   1.570   0.579   2.226 -0.2117 -0.1107 -0.3142
15387TIP3    H167576   1.522   0.541   2.299  2.1732 -0.6735  1.0734
15387TIP3    H267577   1.662   0.558   2.244  0.4320 -1.3601 -4.1094
15388TIP3   OH267578   2.750   5.513  14.530  0.3694 -0.2772  0.7813
15388TIP3    H167579   2.793   5.552  14.453  0.8816 -0.7722  0.8122
15388TIP3    H267580   2.821   5.497  14.592 -0.0419  0.1023  1.3571
15389TIP3   OH267581   3.489   4.396   4.687  0.1140 -0.5203  0.1223
15389TIP3    H167582   3.570   4.345   4.679 -2.0138 -4.3696  0.5082
15389TIP3    H267583   3.471   4.399   4.781  0.3857  1.4156  0.1396
15390TIP3   OH267584   6.120   5.985  12.217 -0.2246  0.1360 -0.0575
15390TIP3    H167585   6.203   5.944  12.190 -0.6240 -3.3004  3.1442
15390TIP3    H267586   6.064   5.978  12.140  1.7808  0.7650 -1.6780
15391TIP3   OH267587   4.634   1.779  11.310 -0.2622  0.0508 -0.4099
15391TIP3    H167588   4.690   1.712  11.349  1.5643  2.1779  0.8758
15391TIP3    H267589   4.664   1.786  11.220 -0.3607 -0.7170 -0.5084
15392TIP3   OH267590   3.165   2.960  11.334 -0.5466 -0.4096 -0.5713
15392TIP3    H167591   3.120   2.884  11.370  0.8642  0.0622  2.4820
15392TIP3    H267592   3.105   3.033  11.351 -0.2417 -0.3069  0.0810
15393TIP3   OH267593   6.683   5.173   4.796  0.3686  0.0700 -0.1539
15393TIP3    H167594   6.745   5.224   4.847  0.2293  0.6874 -0.5842
15393TIP3    H267595   6.631   5.126   4.861 -0.4462  1.5888  0.3379
15394TIP3   OH267596   1.247   1.007  14.817 -0.0729  0.1129 -0.1141
15394TIP3    H167597   1.307   1.037  14.748 -2.4697  0.6276 -2.1049
15394TIP3    H267598   1.269   1.062  14.893  2.9290 -0.7484 -0.2289
15395TIP3   OH267599   5.880   4.590  12.550 -0.0197  0.3664  0.2215
15395TIP3    H167600   5.913   4.545  12.472  0.5185  1.3073 -0.1013
15395TIP3    H267601   5.848   4.674  12.518 -0.1453  0.6096  0.9659
15396TIP3   OH267602   5.597   2.951  16.691  0.4579  0.2116 -0.1130
15396TIP3    H167603   5.512   2.924  16.655 -0.2308 -0.7160  2.0552
15396TIP3    H267604   5.586   3.044  16.712  0.6557  0.5968 -1.5921
15397TIP3   OH267605   5.554   6.088   6.213  0.3633 -0.5592  0.0817
15397TIP3    H167606   5.569   6.182   6.210  0.4708 -0.4172  2.5941
15397TIP3    H267607   5.459   6.079   6.216  0.3185 -0.6121 -1.0741
15398TIP3   OH267608   6.107   3.258  14.788  0.3086  0.2334  0.3824
15398TIP3    H167609   6.138   3.176  14.748 -2.4609 -0.9895  0.5211
15398TIP3    H267610   6.059   3.301  14.717 -0.3668  0.5037  1.0006
15399TIP3   OH267611   6.318   3.306   6.669 -0.4682  0.2330  0.0300
15399TIP3    H167612   6.267   3.278   6.593 -1.2608  1.5479  0.0542
15399TIP3    H267613   6.322   3.401   6.662  1.3783  0.2256  0.4327
15400TIP3   OH267614   5.800   2.596   3.828 -0.5468 -0.5763  0.0822
15400TIP3    H167615   5.844   2.518   3.862 -0.2892 -1.1362 -1.4208
15400TIP3    H267616   5.711   2.567   3.809 -1.0280  0.0369  1.3023
15401TIP3   OH267617   2.597   0.618   0.489  0.0942  0.9355 -0.4625
15401TIP3    H167618   2.673   0.574   0.451 -1.7772 -0.2067 -3.1667
15401TIP3    H267619   2.622   0.634   0.580  2.1829 -2.7269 -0.1931
15402TIP3   OH267620   0.401   0.647  17.249  0.6843 -0.1932  0.2393
15402TIP3    H167621   0.316   0.671  17.213  0.9402 -0.4641 -0.5614
15402TIP3    H267622   0.389   0.558  17.283  0.0787  0.5383  2.0794
15403TIP3   OH267623   6.707   0.499   2.202 -0.0530  0.7309 -0.2995
15403TIP3    H167624   6.788   0.447   2.199  0.0408  0.8166  0.4799
15403TIP3    H267625   6.705   0.546   2.118  0.3142  0.1486 -0.6420
15404TIP3   OH267626   1.211   2.520  14.731  0.2049 -0.1258  0.2184
15404TIP3    H167627   1.202   2.466  14.653 -1.2621 -1.0908  0.9946
15404TIP3    H267628   1.135   2.579  14.728  1.2609  1.2627 -0.1203
15405TIP3   OH267629   5.771   4.730   2.436 -0.0605 -0.3669  0.1494
15405TIP3    H167630   5.832   4.771   2.375 -0.1474 -0.3216  0.0933
15405TIP3    H267631   5.766   4.639   2.408  2.3302 -1.1783  1.9541
15406TIP3   OH267632   4.405   0.505  11.459 -0.0140  0.1792 -0.0187
15406TIP3    H167633   4.444   0.482  11.374 -0.4804  1.6495 -0.6645
15406TIP3    H267634   4.315   0.529  11.438 -0.5715 -0.8543  1.1194
15407TIP3   OH267635   5.978   6.245   4.060  0.7930  0.0375  0.1629
15407TIP3    H167636   5.967   6.298   3.980  3.0115  0.9617  0.3792
15407TIP3    H267637   5.985   6.155   4.028 -0.3871  0.1521 -0.4768
15408TIP3   OH267638   4.866   3.581  16.280 -0.6975  0.3910 -0.5950
15408TIP3    H167639   4.876   3.592  16.375  0.0642 -0.8972 -0.5139
15408TIP3    H267640   4.948   3.613  16.243 -0.4705 -0.3306 -0.7217
15409TIP3   OH267641   0.829   5.331  16.291  0.1130  0.0154  0.0180
15409TIP3    H167642   0.878   5.411  16.273 -1.1095  0.9398  0.5843
15409TIP3    H267643   0.800   5.301  16.205  0.4455  0.2747 -0.1887
15410TIP3   OH267644   1.474   3.139   5.158  0.0130 -0.0797  0.3889
15410TIP3    H167645   1.545   3.152   5.220  0.7512  1.1197 -0.6600
15410TIP3    H267646   1.513   3.087   5.087 -0.6642 -0.9559  0.6371
15411TIP3   OH267647   0.742   3.159   4.974 -0.2302 -0.3634 -0.1382
15411TIP3    H167648   0.801   3.113   5.033  0.6651 -2.5458 -2.5589
15411TIP3    H267649   0.773   3.250   4.976  0.2702 -0.5175  2.0403
15412TIP3   OH267650   5.058   0.673  15.946 -0.0206  0.2177 -0.1874
15412TIP3    H167651   5.021   0.591  15.915  0.6501  0.8153 -2.7693
15412TIP3    H267652   4.985   0.719  15.986 -0.7511 -0.9621 -0.1334
15413TIP3   OH267653   6.152   0.586   4.599  0.0445  0.1722  0.1163
15413TIP3    H167654   6.066   0.625   4.590  0.9180  2.5500  1.3496
15413TIP3    H267655   6.158   0.524   4.526 -2.5753  0.1068 -0.1135
15414TIP3   OH267656   5.623   5.042  12.538  0.5964 -0.1437  0.4547
15414TIP3    H167657   5.712   5.079  12.539 -0.5375  3.0338 -1.7302
15414TIP3    H267658   5.566   5.117  12.557 -1.7007 -2.0303  1.4599
15415TIP3   OH267659   1.798   6.149  11.099  0.1524 -0.2251 -0.1086
15415TIP3    H167660   1.796   6.133  11.193  0.5739 -0.0256 -0.0650
15415TIP3    H267661   1.890   6.163  11.078  0.1995 -1.3619 -0.7388
15416TIP3   OH267662   4.211   5.591  10.531  0.2066  0.0388  0.3710
15416TIP3    H167663   4.241   5.682  10.536 -1.5567  0.7062 -0.4077
15416TIP3    H267664   4.116   5.597  10.517 -0.2755 -1.9364  2.2072
15417TIP3   OH267665   3.774   5.942  15.417  0.0301 -0.3114  0.1277
15417TIP3    H167666   3.719   5.922  15.342  1.6062 -1.4204 -0.8003
15417TIP3    H267667   3.713   5.973  15.484 -1.6974 -1.4356 -0.8500
15418TIP3   OH267668   5.614   2.957   0.678 -0.0853  0.1401  0.4585
15418TIP3    H167669   5.588   3.048   0.663  1.9600  0.6569 -0.2555
15418TIP3    H267670   5.535   2.916   0.714 -1.5864  1.7591 -0.7655
15419TIP3   OH267671   2.531   1.537  10.348  0.3426  0.4617 -0.0850
15419TIP3    H167672   2.601   1.479  10.377 -0.3508 -0.9038 -1.0365
15419TIP3    H267673   2.453   1.503  10.392  0.3563  2.6448  1.8758
15420TIP3   OH267674   5.918   3.960  13.007  0.2688 -0.1559  0.8742
15420TIP3    H167675   5.872   4.044  13.012 -1.0745 -0.9077  1.6063
15420TIP3    H267676   6.010   3.984  12.996 -0.0778  1.4179  1.1635
15421TIP3   OH267677   4.400   0.571  13.349 -0.3748  0.7370  0.8853
15421TIP3    H167678   4.315   0.529  13.361 -0.6325  0.8673 -0.4049
15421TIP3    H267679   4.444   0.560  13.434 -0.6521 -1.6031  0.7884
15422TIP3   OH267680   0.305   3.540  12.470 -0.3714 -0.1305 -0.1253
15422TIP3    H167681   0.392   3.531  12.432 -0.6006 -0.9178 -0.4711
15422TIP3    H267682   0.318   3.523  12.564 -0.4537 -2.2816 -0.4515
15423TIP3   OH267683   2.549   4.402  12.429 -0.2294 -0.3538  0.5897
15423TIP3    H167684   2.531   4.488  12.391  0.7376 -0.9558 -1.3461
15423TIP3    H267685   2.482   4.345  12.391  1.5404 -1.2414 -1.4770
15424TIP3   OH267686   4.208   5.106  13.477 -0.1902 -0.2821  0.3725
15424TIP3    H167687   4.255   5.167  13.420 -1.6586 -0.0587 -0.6482
15424TIP3    H267688   4.151   5.161  13.530 -0.7655 -0.6797  0.1787
15425TIP3   OH267689   0.507   4.366  13.570 -0.2143 -0.4371 -0.7854
15425TIP3    H167690   0.549   4.291  13.612  1.7986  0.6206 -0.8147
15425TIP3    H267691   0.522   4.352  13.477  2.5164  1.2112 -0.6997
15426TIP3   OH267692   1.240   3.138   3.521  0.7097 -0.4051  0.1622
15426TIP3    H167693   1.251   3.232   3.507  2.8564 -0.6592 -0.2193
15426TIP3    H267694   1.308   3.097   3.466  0.2021 -2.1416  0.7535
15427TIP3   OH267695   2.465   1.640  11.333  0.2890  0.1589 -0.0850
15427TIP3    H167696   2.464   1.637  11.429  0.1064  1.7892 -0.0039
15427TIP3    H267697   2.424   1.558  11.306 -0.8878  0.2584  1.2591
15428TIP3   OH267698   3.753   1.779  15.110 -0.1315  0.1971  0.1231
15428TIP3    H167699   3.716   1.723  15.179  1.4945  1.6096  2.2964
15428TIP3    H267700   3.678   1.815  15.065 -1.2723 -0.8667  1.0978
15429TIP3   OH267701   6.468   4.555   0.899  0.3028  0.1521 -0.2604
15429TIP3    H167702   6.473   4.545   0.804  0.0584  3.4924 -0.7341
15429TIP3    H267703   6.529   4.627   0.918 -0.7310  0.5145  1.9022
15430TIP3   OH267704   0.126   3.625  13.231 -0.6881 -0.0815  0.0820
15430TIP3    H167705   0.104   3.578  13.312 -0.6298 -0.0959  0.0895
15430TIP3    H267706   0.196   3.573  13.191 -1.6795 -0.8448 -0.6953
15431TIP3   OH267707   5.617   2.742   0.512  0.6439 -0.0637  0.4288
15431TIP3    H167708   5.528   2.754   0.480  0.4083 -0.6367  0.8606
15431TIP3    H267709   5.638   2.825   0.554 -0.0475 -0.2607  1.1840
15432TIP3   OH267710   6.756   5.959  13.688 -0.5378  0.3985  0.2543
15432TIP3    H167711   6.662   5.962  13.707 -0.5460 -0.6034  0.4051
15432TIP3    H267712   6.765   5.889  13.624  0.0854  0.6462  0.0642
15433TIP3   OH267713   5.424   4.460   2.015  0.1522 -0.2808 -0.0144
15433TIP3    H167714   5.397   4.524   2.080 -1.0457  0.4853 -1.2091
15433TIP3    H267715   5.382   4.379   2.042  0.1609 -0.1204  0.4925
15434TIP3   OH267716   2.151   4.912   3.072  0.5616 -0.1801 -0.0519
15434TIP3    H167717   2.207   4.971   3.022  1.7138 -1.7996 -0.7551
15434TIP3    H267718   2.090   4.876   3.007  0.0354  0.0360  0.3172
15435TIP3   OH267719   1.796   5.908   5.368 -0.2519  0.1347  0.3553
15435TIP3    H167720   1.709   5.949   5.369 -0.3624 -0.0842  1.1835
15435TIP3    H267721   1.842   5.950   5.296 -1.0751  0.1910 -0.1487
15436TIP3   OH267722   5.263   4.650   3.502 -0.8643 -0.3899  0.6578
15436TIP3    H167723   5.263   4.559   3.534  1.5689 -0.0268  1.9581
15436TIP3    H267724   5.311   4.698   3.569 -2.4942  2.0065  0.2335
15437TIP3   OH267725   1.124   1.435  12.941 -0.4063  0.1035 -0.2059
15437TIP3    H167726   1.095   1.479  12.861  0.7628  0.9935 -0.1739
15437TIP3    H267727   1.174   1.501  12.988 -1.3423 -0.3004  1.4507
15438TIP3   OH267728   1.451   4.019   5.321  0.1052 -0.4416 -0.1047
15438TIP3    H167729   1.366   4.061   5.310 -0.1688 -0.9710 -0.0471
15438TIP3    H267730   1.501   4.079   5.378  0.2923  0.5801 -1.3060
15439TIP3   OH267731   5.892   2.443  14.070 -0.3817  0.0626 -0.2475
15439TIP3    H167732   5.837   2.521  14.063  0.2743  0.4468 -1.3121
15439TIP3    H267733   5.954   2.464  14.140 -0.9033  0.0553  0.2190
15440TIP3   OH267734   4.882   6.290  11.334 -0.4486 -0.4201 -0.4464
15440TIP3    H167735   4.810   6.227  11.343  0.4510 -1.3372  0.4987
15440TIP3    H267736   4.850   6.369  11.378 -0.6295 -1.0472  0.5843
15441TIP3   OH267737   5.555   0.895   0.042 -0.3201 -0.0005 -0.2779
15441TIP3    H167738   5.611   0.817   0.047  0.1247  0.1323 -2.2399
15441TIP3    H267739   5.547   0.925   0.133  2.1379 -0.4893  0.1781
15442TIP3   OH267740   3.061   2.789  16.426 -0.0520  0.6776  0.0292
15442TIP3    H167741   3.050   2.715  16.366 -2.0955  0.7046  0.3169
15442TIP3    H267742   3.097   2.859  16.372 -0.3225  0.2049 -0.7779
15443TIP3   OH267743   2.452   6.605  12.711 -0.1423  0.0451  0.7449
15443TIP3    H167744   2.529   6.662  12.716 -0.2390  0.1708  0.8150
15443TIP3    H267745   2.461   6.546  12.786 -0.2187  0.1921  0.8694
15444TIP3   OH267746   4.735   3.253  12.871  0.0656  0.8777  0.7564
15444TIP3    H167747   4.646   3.263  12.839  0.2066  1.2626  0.4736
15444TIP3    H267748   4.787   3.315  12.819  0.7030 -0.1801  0.0905
15445TIP3   OH267749   5.959   1.183  11.284 -0.0424  0.3049 -0.6535
15445TIP3    H167750   6.029   1.227  11.237 -1.0172  1.5935 -0.9577
15445TIP3    H267751   5.907   1.254  11.321 -1.9458 -0.5594 -1.5318
15446TIP3   OH267752   5.443   4.297   2.467 -0.0090 -0.2409 -0.3028
15446TIP3    H167753   5.425   4.372   2.524  1.4193  0.1618 -0.3529
15446TIP3    H267754   5.453   4.223   2.527  0.3468 -0.0398 -0.1083
15447TIP3   OH267755   1.945   5.703  14.164 -0.2581  0.2140  0.1260
15447TIP3    H167756   1.994   5.693  14.082 -0.3336  0.4422  0.0517
15447TIP3    H267757   1.862   5.658  14.148 -1.1671  2.0838 -0.6959
15448TIP3   OH267758   6.434   3.043   2.360 -0.1225  0.2252  0.4795
15448TIP3    H167759   6.497   2.996   2.306 -0.0525  0.2159  0.5685
15448TIP3    H267760   6.437   3.133   2.327  0.3059  0.3372  0.8118
15449TIP3   OH267761   4.969   1.907  15.506  0.4607 -0.0022 -0.6072
15449TIP3    H167762   4.890   1.961  15.500 -0.4188 -0.9646  1.3740
15449TIP3    H267763   5.038   1.969  15.530 -0.3782  0.4079  0.8556
15450TIP3   OH267764   5.120   2.151  13.867 -0.2457  0.3619  0.4386
15450TIP3    H167765   5.068   2.210  13.812  1.0171  0.4344 -0.7439
15450TIP3    H267766   5.100   2.178  13.957 -2.0250  0.5381  0.0269
15451TIP3   OH267767   0.142   0.291  15.378  0.2847 -0.2025  0.1057
15451TIP3    H167768   0.232   0.296  15.346 -0.5628  0.2784 -2.4331
15451TIP3    H267769   0.113   0.203  15.353 -0.3735  0.1527 -0.4139
15452TIP3   OH267770   4.110   1.732  11.554 -0.3264  0.1899  0.0699
15452TIP3    H167771   4.180   1.765  11.610 -0.8837  1.0616  0.2644
15452TIP3    H267772   4.148   1.733  11.466 -0.2652  1.1770  0.0989
15453TIP3   OH267773   0.928   1.573   1.703  0.1011 -0.2228 -0.1668
15453TIP3    H167774   0.880   1.619   1.771 -1.5056 -2.9804  0.6763
15453TIP3    H267775   0.921   1.630   1.626 -0.5075  1.5791  1.1665
15454TIP3   OH267776   2.672   5.607  11.962  0.3142  0.5029 -0.2173
15454TIP3    H167777   2.659   5.554  12.041 -0.8092  0.7743 -0.1986
15454TIP3    H267778   2.726   5.552  11.905 -0.3100 -0.4266  0.0521
15455TIP3   OH267779   1.779   2.043  15.234 -0.1991  0.5341  0.4391
15455TIP3    H167780   1.773   2.018  15.141 -1.1981 -0.5292  0.7683
15455TIP3    H267781   1.688   2.041  15.265  0.2625 -0.5679  1.8053
15456TIP3   OH267782   3.121   5.451  11.206  0.3032 -0.1777 -0.1750
15456TIP3    H167783   3.120   5.370  11.258 -0.5324  0.0192  0.1336
15456TIP3    H267784   3.044   5.499  11.237  0.7498  0.6950 -0.4216
15457TIP3   OH267785   4.247   5.772  11.076  0.3077  0.2931  0.0971
15457TIP3    H167786   4.240   5.757  10.982  0.4527  0.1832  0.1028
15457TIP3    H267787   4.230   5.866  11.087  1.2831  0.5138 -0.1540
15458TIP3   OH267788   5.239   5.101   5.308 -0.3129  0.4411  0.1230
15458TIP3    H167789   5.256   5.100   5.402  2.1208 -0.3967 -0.2580
15458TIP3    H267790   5.204   5.189   5.291 -0.6405  0.6568  1.7799
15459TIP3   OH267791   3.775   5.446  13.952 -0.9594  0.2983  0.1620
15459TIP3    H167792   3.715   5.453  13.878 -0.1103 -1.5927 -0.7476
15459TIP3    H267793   3.724   5.401  14.020 -1.3971  1.0927  0.3773
15460TIP3   OH267794   0.754   3.120  17.094  0.0972 -0.0572  0.0737
15460TIP3    H167795   0.751   3.140  17.188  0.9388 -1.8957  0.5478
15460TIP3    H267796   0.848   3.121  17.073  0.0330 -1.1796 -0.3494
15461TIP3   OH267797   4.415   0.923   6.471 -0.1680  0.0748 -0.2799
15461TIP3    H167798   4.359   0.982   6.420  0.5583 -0.0425 -1.2465
15461TIP3    H267799   4.396   0.945   6.562 -3.0239 -1.0892 -0.4918
15462TIP3   OH267800   4.714   1.974   0.322  0.0874  0.3066  0.3700
15462TIP3    H167801   4.655   1.908   0.286  1.1201  0.5621 -1.9604
15462TIP3    H267802   4.800   1.949   0.291  1.0201  0.8675  2.3267
15463TIP3   OH267803   0.101   4.455   4.461  0.1782  0.0720 -0.3204
15463TIP3    H167804   0.067   4.426   4.545  0.4651  0.2930 -0.1233
15463TIP3    H267805   0.120   4.375   4.413 -2.0077 -0.0865 -1.0286
15464TIP3   OH267806   3.538   1.312  16.301 -0.5755  0.3494  0.0968
15464TIP3    H167807   3.516   1.241  16.361  0.3749  0.8122  1.0260
15464TIP3    H267808   3.514   1.278  16.214 -2.0091 -0.3012  0.7258
15465TIP3   OH267809   6.511   0.490  13.907 -0.2416  0.5899 -0.3161
15465TIP3    H167810   6.458   0.540  13.845 -0.3119 -0.2299 -0.9345
15465TIP3    H267811   6.548   0.556  13.966 -0.4363  1.3459 -1.0254
15466TIP3   OH267812   4.756   3.483  13.954 -0.1763 -0.4059  0.3577
15466TIP3    H167813   4.843   3.501  13.990 -0.1729 -0.4884  0.3903
15466TIP3    H267814   4.761   3.513  13.863 -0.6411  1.2023  0.8247
15467TIP3   OH267815   0.219   4.397  13.477  0.3685  0.3252  0.8969
15467TIP3    H167816   0.183   4.466  13.420 -1.9452 -1.5229 -0.0165
15467TIP3    H267817   0.271   4.445  13.541  1.4646  2.6815 -1.5380
15468TIP3   OH267818   3.849   4.090  11.207  0.0097 -0.3281  0.3263
15468TIP3    H167819   3.873   4.091  11.114 -0.5329  1.3182  0.1776
15468TIP3    H267820   3.930   4.115  11.253  0.4814 -1.8578  0.3828
15469TIP3   OH267821   3.454   5.191   5.153 -0.0248  0.9746 -0.3487
15469TIP3    H167822   3.415   5.105   5.141  0.4726  0.8497 -1.1650
15469TIP3    H267823   3.382   5.252   5.136 -0.0871  0.7350 -0.9717
15470TIP3   OH267824   2.745   0.422   5.964  0.3499  0.5741  0.0254
15470TIP3    H167825   2.838   0.428   5.986  0.0042  1.3573  1.3486
15470TIP3    H267826   2.714   0.343   6.008  0.2947  0.5386 -0.0766
15471TIP3   OH267827   0.380   1.817  16.609  0.0068  0.5358 -0.7274
15471TIP3    H167828   0.445   1.850  16.547  3.3001  1.1855  2.6696
15471TIP3    H267829   0.357   1.893  16.662 -1.1046 -0.3750  0.1639
15472TIP3   OH267830   6.143   4.802  15.627  0.4077  0.1423  0.3402
15472TIP3    H167831   6.133   4.803  15.532  1.0338  1.2645  0.2615
15472TIP3    H267832   6.204   4.731  15.644 -1.8922 -2.0095  0.2003
15473TIP3   OH267833   3.488   2.562  10.716  0.1173 -0.7537  0.3027
15473TIP3    H167834   3.578   2.589  10.699 -0.5452  0.7833 -1.0213
15473TIP3    H267835   3.470   2.496  10.649 -0.2755  0.2106 -0.5586
15474TIP3   OH267836   3.957   3.147   3.734 -0.4140 -0.6494 -0.5339
15474TIP3    H167837   3.893   3.185   3.793  0.8698  0.4186  0.2276
15474TIP3    H267838   3.950   3.199   3.654 -0.2336 -0.2739 -0.3082
15475TIP3   OH267839   5.758   2.195   5.420  0.4397  0.4659 -0.3732
15475TIP3    H167840   5.675   2.152   5.440  0.7919 -0.0728 -0.0593
15475TIP3    H267841   5.786   2.157   5.336 -0.9150  2.5482 -1.8762
15476TIP3   OH267842   3.443   3.679   3.517 -0.6570  0.1501  0.2909
15476TIP3    H167843   3.458   3.773   3.507  0.0081  0.0218  0.0875
15476TIP3    H267844   3.443   3.645   3.428 -1.0559 -0.0261  0.3554
15477TIP3   OH267845   1.227   6.685  15.971  0.0512 -0.3086 -0.4772
15477TIP3    H167846   1.238   6.641  16.055 -2.0112 -0.4146 -0.2065
15477TIP3    H267847   1.169   6.627  15.922 -2.8049  2.0268 -0.0985
15478TIP3   OH267848   4.345   6.338   1.572 -0.4356 -0.3212 -0.4396
15478TIP3    H167849   4.285   6.335   1.646 -0.4158 -2.2800 -0.4355
15478TIP3    H267850   4.326   6.421   1.529 -0.2808  0.9800  1.8583
15479TIP3   OH267851   2.978   0.434   2.425 -0.3454 -0.7222 -0.2380
15479TIP3    H167852   3.015   0.352   2.458 -0.5325 -0.5082  0.5316
15479TIP3    H267853   2.945   0.413   2.338  0.0443 -1.3410 -0.2365
15480TIP3   OH267854   0.224   0.373  16.552  0.3548 -0.5926  0.4301
15480TIP3    H167855   0.239   0.304  16.488  0.2305 -0.4698  0.2704
15480TIP3    H267856   0.153   0.340  16.607 -0.1056 -0.3464 -0.0045
15481TIP3   OH267857   5.735   1.179   2.739  0.1188  0.5627  0.2147
15481TIP3    H167858   5.670   1.237   2.779  0.0870  0.6749  0.0022
15481TIP3    H267859   5.769   1.127   2.812 -0.5691  0.1459  0.2441
15482TIP3   OH267860   2.841   6.053  16.504 -0.2613 -0.6541  0.8566
15482TIP3    H167861   2.884   6.077  16.422 -1.3399 -1.5047 -0.0022
15482TIP3    H267862   2.766   6.113  16.510  0.2957 -0.0156  1.6914
15483TIP3   OH267863   1.180   3.279  15.639  0.4321  0.0808  0.7146
15483TIP3    H167864   1.270   3.248  15.631 -0.3923 -2.8481  1.6338
15483TIP3    H267865   1.182   3.342  15.712  2.2786  3.0496 -1.6360
15484TIP3   OH267866   5.734   2.488  16.335  0.8913  0.3861  0.4001
15484TIP3    H167867   5.713   2.398  16.310  0.8267  0.4732  0.1393
15484TIP3    H267868   5.772   2.480  16.423  1.5032  0.0291  0.1151
15485TIP3   OH267869   3.421   0.510  16.839 -0.3678  0.4425  0.1120
15485TIP3    H167870   3.349   0.495  16.777 -1.6067 -0.0387  1.5964
15485TIP3    H267871   3.449   0.599  16.822 -0.1697  0.0855 -1.6255
15486TIP3   OH267872   6.367   0.679  17.004  0.2079 -0.5657  0.2345
15486TIP3    H167873   6.333   0.656  17.091  1.3445  0.5630  1.0090
15486TIP3    H267874   6.294   0.663  16.945 -1.0035 -0.1938  1.5738
15487TIP3   OH267875   4.271   6.231   1.994 -0.4764 -0.0542 -0.5114
15487TIP3    H167876   4.237   6.290   2.061 -1.7186 -0.5048 -0.7264
15487TIP3    H267877   4.269   6.144   2.035 -0.3020 -0.1911 -0.7919
15488TIP3   OH267878   2.467   4.768  12.922  0.2901 -0.0186  0.4023
15488TIP3    H167879   2.546   4.716  12.906  0.6820  0.2556  1.3961
15488TIP3    H267880   2.483   4.810  13.006 -1.4004 -0.8610  1.1914
15489TIP3   OH267881   5.182   1.099   1.205 -0.2965 -0.3872 -0.7535
15489TIP3    H167882   5.149   1.072   1.291 -0.3364 -0.6445 -0.8478
15489TIP3    H267883   5.107   1.086   1.147 -0.6088  0.8195 -0.6403
15490TIP3   OH267884   6.596   0.974   2.307  0.2081 -0.5792  0.2497
15490TIP3    H167885   6.505   0.979   2.336 -0.1594 -0.4490 -0.8781
15490TIP3    H267886   6.647   0.977   2.388 -0.7767 -0.3910  0.8828
15491TIP3   OH267887   0.787   3.939  13.126 -0.5984  0.0970  0.3553
15491TIP3    H167888   0.802   3.860  13.074 -1.5678  1.1547 -1.6597
15491TIP3    H267889   0.734   3.910  13.200 -0.4208 -1.2334 -0.0173
15492TIP3   OH267890   1.147   0.401  15.709 -0.1055 -0.1893 -0.0039
15492TIP3    H167891   1.078   0.404  15.774  2.1871  0.3804  2.5991
15492TIP3    H267892   1.102   0.406  15.625 -3.1271  0.6674  1.5406
15493TIP3   OH267893   2.639   3.715   3.842 -0.5487  0.1752  0.0233
15493TIP3    H167894   2.545   3.712   3.856 -0.6170 -2.9010 -0.4310
15493TIP3    H267895   2.672   3.633   3.877  1.8791  0.7862 -0.5866
15494TIP3   OH267896   2.539   6.002   4.664 -0.2363 -0.0957  0.6446
15494TIP3    H167897   2.616   6.059   4.669 -0.0009 -0.5154  2.0304
15494TIP3    H267898   2.572   5.914   4.682 -0.9728 -0.3430  0.8362
15495TIP3   OH267899   6.734   0.457   2.625  0.7877 -0.1259  0.2105
15495TIP3    H167900   6.707   0.507   2.703 -1.0785 -0.7391  0.0138
15495TIP3    H267901   6.730   0.520   2.553  2.4910  0.4364  0.5544
15496TIP3   OH267902   3.315   4.009   3.282 -0.3274 -0.3920  0.2684
15496TIP3    H167903   3.295   4.103   3.281 -1.5326 -0.6331 -0.7163
15496TIP3    H267904   3.389   4.001   3.342  2.3429  1.6782 -2.4685
15497TIP3   OH267905   2.739   4.831   0.274 -0.3868  0.1435 -0.2224
15497TIP3    H167906   2.752   4.900   0.339  1.0322 -0.4705  0.1665
15497TIP3    H267907   2.674   4.868   0.213  1.3625  2.4306 -0.8608
15498TIP3   OH267908   0.849   6.720   1.299 -0.5534 -0.9720  0.5586
15498TIP3    H167909   0.865   6.814   1.293 -1.0173 -0.8631  0.9709
15498TIP3    H267910   0.765   6.707   1.254 -0.7264 -1.1138  0.9124
15499TIP3   OH267911   3.393   0.176  12.405 -0.2242  0.8153 -0.7731
15499TIP3    H167912   3.456   0.228  12.456 -1.1417  1.2407 -0.0534
15499TIP3    H267913   3.448   0.117  12.353  0.7416 -0.2923  1.3747
15500TIP3   OH267914   0.469   3.195   4.089 -0.2714  0.2731 -0.2597
15500TIP3    H167915   0.532   3.124   4.080 -0.3095  0.5405 -3.8714
15500TIP3    H267916   0.400   3.158   4.146  1.3594 -1.2543  0.8501
15501TIP3   OH267917   2.682   0.653   5.476  0.4607 -0.2388 -0.0265
15501TIP3    H167918   2.698   0.609   5.393  0.7799  1.5003 -0.9472
15501TIP3    H267919   2.601   0.614   5.509  0.2231 -0.8179 -1.2589
15502TIP3   OH267920   5.371   3.665  16.464  0.6976  0.2899  0.8461
15502TIP3    H167921   5.302   3.726  16.437 -0.7553 -2.0644 -1.1216
15502TIP3    H267922   5.448   3.695  16.417  0.5065  1.6435  1.3345
15503TIP3   OH267923   3.854   2.539   5.579 -0.6127 -0.0319  0.9676
15503TIP3    H167924   3.796   2.541   5.655 -0.4097 -2.1824  1.2544
15503TIP3    H267925   3.938   2.508   5.613  0.0389  0.8049  0.1669
15504TIP3   OH267926   4.710   5.742  15.864  0.9229  0.2679  0.1658
15504TIP3    H167927   4.669   5.758  15.779  1.6762  1.6141  0.0214
15504TIP3    H267928   4.801   5.768  15.851  1.1482  0.0646  1.2649
15505TIP3   OH267929   2.879   1.643  13.267  0.2283  0.3125  0.2850
15505TIP3    H167930   2.846   1.572  13.323 -1.1617  0.9274  0.2774
15505TIP3    H267931   2.921   1.704  13.328 -1.8262  1.2917  0.7897
15506TIP3   OH267932   0.086   4.371   0.495 -0.7028 -0.2440 -0.0595
15506TIP3    H167933   0.125   4.434   0.556  0.5402 -0.2072 -0.8680
15506TIP3    H267934   0.034   4.425   0.435 -0.0708 -0.0330 -0.4248
15507TIP3   OH267935   1.086   6.360   1.527 -0.3132 -0.5009 -0.1890
15507TIP3    H167936   1.042   6.438   1.490  0.6732  0.1736  0.0286
15507TIP3    H267937   1.044   6.347   1.612  0.6534  0.8279  0.5203
15508TIP3   OH267938   4.520   4.129   4.161  0.0076 -0.0237  0.7094
15508TIP3    H167939   4.533   4.206   4.217  0.9383  1.7417 -1.7531
15508TIP3    H267940   4.533   4.055   4.220  1.0520  1.6935  2.8017
15509TIP3   OH267941   4.092   1.890  17.013 -0.3791 -0.5460  0.0691
15509TIP3    H167942   4.039   1.938  16.949 -1.3632  0.2757  1.4406
15509TIP3    H267943   4.169   1.945  17.026 -0.9670  0.1363  0.7922
15510TIP3   OH267944   2.843   1.292   3.386  0.2215  0.1625  0.3260
15510TIP3    H167945   2.812   1.237   3.457  0.7670 -1.0243 -0.3252
15510TIP3    H267946   2.910   1.347   3.426 -0.7787  0.8301  1.1281
15511TIP3   OH267947   5.605   6.215   0.230  0.1516 -0.5917  0.7582
15511TIP3    H167948   5.653   6.194   0.151 -0.6907  0.6777 -0.1424
15511TIP3    H267949   5.597   6.132   0.277  1.9984 -1.0701  0.2820
15512TIP3   OH267950   3.976   4.323   6.149  0.4293  0.1079  0.1878
15512TIP3    H167951   4.066   4.349   6.167 -0.2110  2.5453  0.1454
15512TIP3    H267952   3.930   4.337   6.232  0.2892 -2.4876  0.6493
15513TIP3   OH267953   2.374   4.461   4.339  0.0993 -0.4085 -0.7132
15513TIP3    H167954   2.305   4.407   4.301  0.8293 -1.0607 -1.1261
15513TIP3    H267955   2.430   4.400   4.386 -0.7263  0.3659  1.3964
15514TIP3   OH267956   1.013   2.280   5.693 -0.2970 -0.1431  0.7806
15514TIP3    H167957   0.992   2.278   5.599  0.8015  0.3276  0.5131
15514TIP3    H267958   0.942   2.231   5.734  0.4466 -2.4937 -0.5419
15515TIP3   OH267959   2.990   6.464   3.891  0.1476  0.0158  0.1452
15515TIP3    H167960   2.993   6.369   3.903 -0.2687 -0.0123  0.0295
15515TIP3    H267961   2.940   6.477   3.811  1.6011  0.2727 -0.7697
15516TIP3   OH267962   3.329   3.952   4.813 -0.1811 -0.4324 -0.2409
15516TIP3    H167963   3.388   3.981   4.743  1.0579  2.0171  1.6665
15516TIP3    H267964   3.379   3.887   4.862 -1.0587 -2.1675 -1.5396
15517TIP3   OH267965   4.133   6.557   1.513  0.0717 -0.1965  0.0773
15517TIP3    H167966   4.134   6.643   1.556 -0.0034  1.3758 -2.8009
15517TIP3    H267967   4.043   6.547   1.482  0.2847 -0.9117 -0.3269
15518TIP3   OH267968   6.782   4.091   2.998  0.0623 -0.2373  0.1190
15518TIP3    H167969   6.855   4.047   3.041  0.6714  1.1104  0.5265
15518TIP3    H267970   6.744   4.146   3.067 -1.4062 -0.9774 -0.0662
15519TIP3   OH267971   0.151   5.627  16.938  0.4543 -0.1174 -0.1558
15519TIP3    H167972   0.084   5.597  16.999  0.8990 -1.8940 -0.5050
15519TIP3    H267973   0.227   5.572  16.956  0.5628 -0.7525 -2.3603
15520TIP3   OH267974   0.962   0.752  15.753 -0.0530  0.1994  0.1994
15520TIP3    H167975   0.899   0.819  15.725 -0.0828  0.6139  1.1971
15520TIP3    H267976   0.988   0.707  15.673 -1.6529  0.0003 -0.2457
15521TIP3   OH267977   3.324   4.175   4.432  0.1375 -0.2304  0.5438
15521TIP3    H167978   3.238   4.177   4.473  0.3304  1.8247  0.9553
15521TIP3    H267979   3.386   4.168   4.505  0.3558 -1.0790  0.2890
15522TIP3   OH267980   2.373   3.915  14.809  0.2554  0.0308 -0.0102
15522TIP3    H167981   2.352   3.919  14.715 -0.5179 -1.6706  0.0740
15522TIP3    H267982   2.362   3.823  14.833 -0.3539  0.5716  1.9511
15523TIP3   OH267983   4.970   2.769  15.894  0.7041  0.2396 -0.1391
15523TIP3    H167984   4.954   2.746  15.803  1.9560 -1.0080 -0.0850
15523TIP3    H267985   5.030   2.844  15.889 -0.0560  0.8520 -0.3183
15524TIP3   OH267986   5.063   0.318  16.472 -0.2946  0.2124  0.2580
15524TIP3    H167987   5.035   0.250  16.410 -0.8401  0.8389 -0.1965
15524TIP3    H267988   4.982   0.348  16.512 -0.0154  0.3354  0.7285
15525TIP3   OH267989   0.327   2.255  12.903  0.4577  0.2184 -0.2547
15525TIP3    H167990   0.372   2.337  12.921  0.6007  0.2559 -0.7739
15525TIP3    H267991   0.386   2.207  12.846  0.2851 -0.1612 -0.1141
15526TIP3   OH267992   1.667   6.371  15.756  0.4898  0.0896 -0.1046
15526TIP3    H167993   1.594   6.361  15.817 -0.1960  0.0905 -0.9159
15526TIP3    H267994   1.743   6.387  15.813 -0.6294  3.4151  0.6762
15527TIP3   OH267995   0.945   1.928   4.802 -0.8243  0.5958  0.4823
15527TIP3    H167996   0.907   2.013   4.826 -0.0107  1.2177 -0.3470
15527TIP3    H267997   0.886   1.894   4.734 -1.0559  0.5892  0.6880
15528TIP3   OH267998   5.701   0.669  15.330 -0.3380 -0.2602  0.0420
15528TIP3    H167999   5.652   0.652  15.249  3.2613  1.3231 -2.7824
15528TIP3    H268000   5.676   0.759  15.353  0.2623  0.1143 -0.7023
15529TIP3   OH268001   6.491   3.932  13.939 -0.1954  0.7723 -0.5546
15529TIP3    H168002   6.578   3.899  13.960 -0.1404  0.5920 -1.0450
15529TIP3    H268003   6.507   4.004  13.878 -0.3543  1.2361 -0.0581
15530TIP3   OH268004   0.092   3.678   4.088 -0.0436  0.6512 -0.1894
15530TIP3    H168005   0.083   3.648   4.178  0.8998  1.7459  0.2906
15530TIP3    H268006   0.054   3.765   4.087 -1.0993  0.2105 -1.1430
15531TIP3   OH268007   2.377   5.697  17.221 -0.2438  0.0584  0.2930
15531TIP3    H168008   2.448   5.640  17.190 -0.5708  0.7401 -1.8602
15531TIP3    H268009   2.386   5.777  17.170 -2.6574  0.1185 -0.1606
15532TIP3   OH268010   2.589   4.704   1.120  0.6268  0.7190  0.1085
15532TIP3    H168011   2.566   4.788   1.080  2.1969  1.0274 -0.2285
15532TIP3    H268012   2.649   4.663   1.058 -0.1736 -0.7070  0.2433
15533TIP3   OH268013   4.482   5.455  16.702  0.7060  0.0845 -0.0943
15533TIP3    H168014   4.546   5.509  16.749 -0.3150  0.5176  0.8297
15533TIP3    H268015   4.458   5.507  16.625 -0.2898  0.9807  0.8027
15534TIP3   OH268016   5.268   5.465   4.539  0.2215  0.2764  0.2617
15534TIP3    H168017   5.356   5.465   4.575  0.3894 -0.1954 -0.1365
15534TIP3    H268018   5.243   5.557   4.536  1.3016  0.5677 -1.0425
15535TIP3   OH268019   3.042   2.671   4.238 -0.4389  0.3814 -0.5081
15535TIP3    H168020   2.999   2.685   4.154  0.3986 -1.4389 -1.2994
15535TIP3    H268021   3.064   2.578   4.238  2.8664  1.0426  0.1246
15536TIP3   OH268022   1.277   4.612   5.004  0.4804 -0.3471  0.4442
15536TIP3    H168023   1.211   4.550   5.032  1.0875 -0.7786  0.9191
15536TIP3    H268024   1.290   4.670   5.079 -0.3422  0.6072 -0.1072
15537TIP3   OH268025   1.852   1.395   1.394 -0.0983  0.0139 -0.2980
15537TIP3    H168026   1.768   1.438   1.412 -1.2594 -1.9977 -0.5322
15537TIP3    H268027   1.906   1.463   1.355 -1.2411  1.6570  0.8294
15538TIP3   OH268028   3.429   2.307  10.944  0.0334  0.1606  0.2988
15538TIP3    H168029   3.436   2.245  11.017 -0.7807 -1.3117 -0.8129
15538TIP3    H268030   3.511   2.357  10.948  0.0092  0.1446  2.2034
15539TIP3   OH268031   5.122   3.894   5.271  0.1936 -0.0207  0.3121
15539TIP3    H168032   5.176   3.942   5.335  1.4676 -0.3243 -0.4993
15539TIP3    H268033   5.118   3.805   5.306 -1.6452  0.4569  1.4893
15540TIP3   OH268034   0.573   4.431   2.893 -0.1779  0.1251 -0.0373
15540TIP3    H168035   0.669   4.423   2.889 -0.2209 -0.0407 -1.0974
15540TIP3    H268036   0.552   4.499   2.829 -0.7645  0.1593  0.1878
15541TIP3   OH268037   1.917   0.920   1.568 -0.2147  0.0570  0.3709
15541TIP3    H168038   1.993   0.920   1.627  0.2745  0.7685 -0.2521
15541TIP3    H268039   1.955   0.915   1.480 -0.9488 -1.4527  0.1058
15542TIP3   OH268040   4.918   5.537   5.502 -0.3849  0.0380 -0.6427
15542TIP3    H168041   4.836   5.579   5.528 -0.5932 -0.7185 -0.0167
15542TIP3    H268042   4.984   5.577   5.559 -0.0031  1.8753 -2.3021
15543TIP3   OH268043   6.569   3.817  14.842 -0.1765  0.2202  0.3471
15543TIP3    H168044   6.521   3.740  14.810 -1.1506  1.3276 -1.0411
15543TIP3    H268045   6.650   3.818  14.791 -1.0672  1.1609 -1.1598
15544TIP3   OH268046   6.528   1.855  13.901 -0.3892 -0.0366 -0.5066
15544TIP3    H168047   6.469   1.916  13.943 -0.0773  0.2938 -0.5438
15544TIP3    H268048   6.610   1.903  13.892  0.1199 -0.7437  0.2433
15545TIP3   OH268049   0.981   2.302   3.501  0.1098  0.5229 -0.5749
15545TIP3    H168050   1.075   2.319   3.508  0.2174 -0.2490 -0.0529
15545TIP3    H268051   0.975   2.215   3.462 -0.3620 -0.0371  0.7102
15546TIP3   OH268052   3.960   0.594  14.965  0.5044  0.0451  0.2502
15546TIP3    H168053   4.005   0.521  15.006  0.0259  0.3750  1.4188
15546TIP3    H268054   3.870   0.589  14.998  0.5230  1.2839  0.5735
15547TIP3   OH268055   6.185   2.495   0.884 -0.2235 -0.9198 -0.3169
15547TIP3    H168056   6.164   2.508   0.976 -0.2305 -0.3731 -0.3913
15547TIP3    H268057   6.187   2.583   0.847 -2.2516 -1.2382 -1.3015
15548TIP3   OH268058   5.144   0.834   2.469  0.1626  0.0207  0.0942
15548TIP3    H168059   5.059   0.815   2.507  0.3847  1.0838  1.1873
15548TIP3    H268060   5.179   0.748   2.446 -1.3981 -0.3934 -0.8579
15549TIP3   OH268061   5.536   2.428   2.532 -0.2133 -0.3588 -0.0189
15549TIP3    H168062   5.521   2.520   2.552  0.0623  0.0423 -1.5451
15549TIP3    H268063   5.450   2.387   2.540 -0.5232  0.2326 -0.2715
15550TIP3   OH268064   5.888   6.344   0.536 -0.1930  0.4889  0.7487
15550TIP3    H168065   5.870   6.303   0.621 -1.7551  1.6054  1.0057
15550TIP3    H268066   5.802   6.372   0.504  0.2639 -0.5162 -1.5479
15551TIP3   OH268067   3.412   1.475  14.074  0.1427  0.9615 -0.0581
15551TIP3    H168068   3.372   1.537  14.134  1.1064  0.7183  0.8785
15551TIP3    H268069   3.496   1.454  14.114 -0.3539 -1.3331 -0.0702
15552TIP3   OH268070   2.903   4.143  13.245  0.1668  0.0255  0.5313
15552TIP3    H168071   2.814   4.136  13.281 -0.7404 -1.2835 -1.8146
15552TIP3    H268072   2.892   4.136  13.151  2.7078  0.7950  0.1009
15553TIP3   OH268073   5.344   5.026   0.259 -0.5533 -0.1603  0.5892
15553TIP3    H168074   5.365   5.089   0.190  2.1143  0.8587  2.1759
15553TIP3    H268075   5.265   5.061   0.300  0.2185  1.5742  0.6964
15554TIP3   OH268076   2.599   0.931  15.660  0.2559  0.1832  0.2040
15554TIP3    H168077   2.668   0.872  15.692  0.3314  0.2937  0.2448
15554TIP3    H268078   2.517   0.885  15.679  0.3223 -0.0145  0.0247
15555TIP3   OH268079   6.058   0.502   3.576  0.1351 -0.3511 -0.4870
15555TIP3    H168080   6.111   0.422   3.567 -0.8870 -0.9593 -1.2526
15555TIP3    H268081   5.979   0.473   3.622 -0.4501  0.1085 -1.1786
15556TIP3   OH268082   3.785   3.359  12.932 -0.6161 -0.4963 -0.2244
15556TIP3    H168083   3.765   3.304  12.856  1.2708 -1.9001  0.2008
15556TIP3    H268084   3.743   3.314  13.005  0.8339 -1.3793  0.1067
15557TIP3   OH268085   5.083   0.762   0.657  0.3295  0.1811 -0.4623
15557TIP3    H168086   5.017   0.741   0.591 -0.6103  1.1953  0.1128
15557TIP3    H268087   5.044   0.733   0.740  0.3191  1.3580 -0.0390
15558TIP3   OH268088   1.850   4.078  15.467  0.4070 -0.9770 -0.0475
15558TIP3    H168089   1.840   4.174  15.466  0.0119 -0.9878  1.0597
15558TIP3    H268090   1.809   4.051  15.549  1.2996 -2.0156  0.0790
15559TIP3   OH268091   4.912   0.632   0.883 -0.8985  0.1676  0.4138
15559TIP3    H168092   4.916   0.543   0.848 -0.3234 -0.1604  1.2719
15559TIP3    H268093   4.821   0.657   0.874 -0.8589 -0.0764 -0.8649
15560TIP3   OH268094   4.244   2.167  14.463  0.0168 -0.1041 -0.3838
15560TIP3    H168095   4.302   2.097  14.491 -0.3666  0.3109  1.6264
15560TIP3    H268096   4.168   2.159  14.520  0.0116  1.9765 -0.0184
15561TIP3   OH268097   6.775   3.066   0.328 -0.2181 -0.3037 -0.4122
15561TIP3    H168098   6.845   3.095   0.386  0.8191 -2.2383 -0.6022
15561TIP3    H268099   6.801   2.978   0.301 -2.8080 -1.1813 -0.3591
15562TIP3   OH268100   4.564   2.742  12.841  0.0047  0.3977 -0.2277
15562TIP3    H168101   4.570   2.791  12.923 -1.7182  1.8205 -0.8728
15562TIP3    H268102   4.597   2.802  12.775 -1.8056  0.6274 -0.9866
15563TIP3   OH268103   2.423   5.380  10.295  0.2526 -0.1263  0.4548
15563TIP3    H168104   2.392   5.291  10.311  2.6864 -0.9145  1.2432
15563TIP3    H268105   2.508   5.369  10.252 -0.5606  1.8893 -1.8450
15564TIP3   OH268106   2.723   6.295  11.593  0.4672 -0.0372 -0.3672
15564TIP3    H168107   2.788   6.235  11.557  1.4174  1.4526 -1.2546
15564TIP3    H268108   2.749   6.308  11.684  1.5672  0.6635 -0.7517
15565TIP3   OH268109   3.526   1.663  14.981 -0.0108 -0.1529  0.0826
15565TIP3    H168110   3.445   1.706  14.952  0.0317 -0.6157 -0.7537
15565TIP3    H268111   3.542   1.596  14.915  1.2195  0.1262  0.0818
15566TIP3   OH268112   2.984   4.488   4.489  0.3280 -0.5836 -0.0551
15566TIP3    H168113   2.914   4.456   4.546  0.9381 -0.1774  0.9437
15566TIP3    H268114   2.980   4.431   4.412  0.1648 -1.8130  0.8386
15567TIP3   OH268115   3.498   4.885   0.487 -0.3465 -0.0393  0.6583
15567TIP3    H168116   3.414   4.858   0.523 -0.5443 -1.2225 -0.6252
15567TIP3    H268117   3.496   4.981   0.490 -1.9962 -0.0359  0.0390
15568TIP3   OH268118   3.949   2.655  13.207  0.1181  0.1428 -0.2156
15568TIP3    H168119   4.040   2.626  13.209  0.4080  0.9344 -1.1493
15568TIP3    H268120   3.954   2.750  13.216 -0.7778  0.0286  2.3875
15569TIP3   OH268121   4.939   6.217  16.325 -0.3067  0.3408 -0.2672
15569TIP3    H168122   5.032   6.197  16.313 -0.3977  0.7644 -1.8865
15569TIP3    H268123   4.915   6.173  16.407  1.3393  0.3269  0.2390
15570TIP3   OH268124   1.495   0.552   1.095 -0.2322 -0.2289 -1.5390
15570TIP3    H168125   1.416   0.570   1.043 -0.8108  0.4578 -0.4640
15570TIP3    H268126   1.461   0.529   1.181  0.7579  1.7430 -0.5598
15571TIP3   OH268127   5.021   3.959  12.282  0.2077 -0.3680 -0.3429
15571TIP3    H168128   5.025   4.025  12.213  0.2722  2.4242  2.1336
15571TIP3    H268129   4.930   3.958  12.310  0.4045 -0.5874  0.3152
15572TIP3   OH268130   6.159   3.298   1.099  0.7048  0.2626  0.5901
15572TIP3    H168131   6.163   3.210   1.063  0.4405  0.2711  0.5360
15572TIP3    H268132   6.174   3.355   1.024  0.9116  0.2625  0.6318
15573TIP3   OH268133   4.012   1.748   3.979 -0.0026 -0.9081 -0.5573
15573TIP3    H168134   4.085   1.767   3.920  0.1152  0.9210  0.1199
15573TIP3    H268135   4.044   1.771   4.066 -0.7551 -1.9250  0.0197
15574TIP3   OH268136   3.952   2.631  14.421 -0.1117 -0.6747 -0.0437
15574TIP3    H168137   4.016   2.701  14.406 -0.3405 -0.8268 -2.1473
15574TIP3    H268138   4.001   2.551  14.405 -0.5955 -0.8247 -0.8400
15575TIP3   OH268139   0.622   0.809   0.650  0.1662 -0.2760  0.1956
15575TIP3    H168140   0.617   0.878   0.716 -0.4453 -0.5155  0.4027
15575TIP3    H268141   0.600   0.853   0.568  1.4910  0.1488  0.0422
15576TIP3   OH268142   4.022   1.336  15.175  0.0242  0.6616 -0.0582
15576TIP3    H168143   4.025   1.426  15.208  0.2378  1.7472 -2.8215
15576TIP3    H268144   4.114   1.311  15.167 -0.0007  0.7487 -0.6465
15577TIP3   OH268145   5.885   0.958   2.049 -0.8699  1.1666 -0.7679
15577TIP3    H168146   5.842   1.024   2.104 -0.7217  0.9417 -0.3811
15577TIP3    H268147   5.825   0.884   2.050  0.3806  0.0618  1.4182
15578TIP3   OH268148   2.592   2.909  11.755  0.0486 -0.4004  0.5314
15578TIP3    H168149   2.683   2.882  11.758  0.0430 -0.7278 -1.2653
15578TIP3    H268150   2.591   2.998  11.790  0.8467 -0.8387  1.7121
15579TIP3   OH268151   1.170   5.832  16.598 -0.2629  0.5139 -0.9709
15579TIP3    H168152   1.210   5.806  16.682 -0.4453  1.1312 -0.6902
15579TIP3    H268153   1.211   5.774  16.534 -0.9196 -0.7349 -0.3201
15580TIP3   OH268154   3.219   2.746  16.660 -0.8759  0.3113  0.0483
15580TIP3    H168155   3.172   2.740  16.577 -1.2592  1.4513  0.1791
15580TIP3    H268156   3.311   2.728  16.637 -1.0359  0.2713 -0.5582
15581TIP3   OH268157   0.585   1.022  16.128  0.0238  0.1572 -0.0113
15581TIP3    H168158   0.529   1.058  16.059 -0.8286 -1.0445  0.0343
15581TIP3    H268159   0.537   0.947  16.161  0.7686  0.2851  1.4065
15582TIP3   OH268160   4.048   1.057  14.890  0.4869  0.2419  0.9273
15582TIP3    H168161   3.977   1.112  14.856  0.5430  0.6190  1.4047
15582TIP3    H268162   4.128   1.102  14.865  0.6494 -1.0649 -1.1312
15583TIP3   OH268163   5.174   2.873   1.551  0.4066 -0.5078  0.0861
15583TIP3    H168164   5.253   2.921   1.524 -0.2903  0.8720  0.3806
15583TIP3    H268165   5.134   2.930   1.617 -1.0826 -0.9550 -0.4069
15584TIP3   OH268166   6.693   3.431  10.971 -0.0724 -0.1041 -0.4167
15584TIP3    H168167   6.767   3.423  10.910  1.5217  0.9546  1.2422
15584TIP3    H268168   6.655   3.343  10.974 -0.5758 -0.0777 -3.2847
15585TIP3   OH268169   5.079   6.172  11.521 -0.3723 -0.0644 -0.1655
15585TIP3    H168170   5.020   6.198  11.450  0.6002  1.5823 -0.4449
15585TIP3    H268171   5.149   6.123  11.477 -0.7969 -0.7857 -0.0425
15586TIP3   OH268172   4.943   5.534  12.062 -0.0218  0.0219 -0.0026
15586TIP3    H168173   4.964   5.441  12.061  1.4176  0.3198  0.4833
15586TIP3    H268174   4.849   5.538  12.043 -0.3821 -1.5930  1.2881
15587TIP3   OH268175   4.314   2.472  13.545 -0.3944  0.1810  0.3180
15587TIP3    H168176   4.301   2.473  13.640 -0.5498 -0.1485  0.3006
15587TIP3    H268177   4.381   2.539  13.530 -0.0089 -0.1046  0.7143
15588TIP3   OH268178   1.797   4.683   0.222  0.5633  0.8262 -0.2460
15588TIP3    H168179   1.810   4.704   0.130 -0.8783  1.2383 -0.3813
15588TIP3    H268180   1.800   4.587   0.226  1.9859  0.8418 -0.4789
15589TIP3   OH268181   6.031   2.909  13.626  0.6427  0.1715 -0.2247
15589TIP3    H168182   6.107   2.922  13.683  0.0324  1.0528  0.4111
15589TIP3    H268183   6.007   2.817  13.639  0.0799  0.5221  1.5313
15590TIP3   OH268184   4.779   1.231   4.098  0.7112 -0.3898  0.0226
15590TIP3    H168185   4.724   1.158   4.068 -0.0089  0.7089 -1.5161
15590TIP3    H268186   4.862   1.219   4.052 -0.0822  0.7845 -1.8636
15591TIP3   OH268187   5.713   3.253   3.346  0.0927  0.0608  0.6087
15591TIP3    H168188   5.746   3.342   3.345 -1.8637  0.8343  0.0276
15591TIP3    H268189   5.681   3.240   3.436 -0.4401  0.2850  0.4559
15592TIP3   OH268190   6.249   5.366   1.307  0.4233  0.1750  0.0985
15592TIP3    H168191   6.193   5.301   1.348  0.0777 -0.8832 -1.9536
15592TIP3    H268192   6.269   5.428   1.378 -0.8423 -1.0581  1.6092
15593TIP3   OH268193   3.957   0.706   1.224 -0.2217 -0.5328 -0.0409
15593TIP3    H168194   3.915   0.760   1.291  2.6277  0.2444  1.2370
15593TIP3    H268195   3.920   0.619   1.237 -1.0222 -0.0145  1.3599
15594TIP3   OH268196   2.156   0.242  16.690  0.0941  0.6130  0.1531
15594TIP3    H168197   2.160   0.171  16.625  0.3816  1.1125 -0.3844
15594TIP3    H268198   2.063   0.248  16.713  0.0891 -0.0587  0.3508
15595TIP3   OH268199   0.467   3.496   2.461  0.1810 -0.0609 -0.1198
15595TIP3    H168200   0.376   3.495   2.431  0.4766  1.6864 -1.2012
15595TIP3    H268201   0.467   3.553   2.538  0.3533 -0.1027 -0.0888
15596TIP3   OH268202   3.284   2.586  10.979 -0.0653 -0.0063  0.1383
15596TIP3    H168203   3.194   2.556  10.992  0.5105 -0.6129  4.2684
15596TIP3    H268204   3.322   2.523  10.918 -1.9587 -0.8154 -0.2598
15597TIP3   OH268205   3.208   3.468   3.352  0.0810  0.5516  0.0735
15597TIP3    H168206   3.124   3.488   3.393 -1.3401 -1.8818 -1.4110
15597TIP3    H268207   3.243   3.394   3.402  0.4487  0.3515 -0.4711
15598TIP3   OH268208   1.427   2.802   3.021  0.1657  0.2868  0.1980
15598TIP3    H168209   1.366   2.809   2.948 -2.2190 -1.3816  1.8838
15598TIP3    H268210   1.511   2.832   2.985 -0.8451 -0.5670 -3.2255
15599TIP3   OH268211   0.608   5.345  11.583 -0.2358  0.0990  0.2070
15599TIP3    H168212   0.573   5.385  11.504  0.0170 -1.1700 -0.5776
15599TIP3    H268213   0.697   5.378  11.590 -0.2881  0.2782  0.0147
15600TIP3   OH268214   5.816   0.693  11.016  0.2617  0.4685  0.3639
15600TIP3    H168215   5.899   0.645  11.025 -0.4753 -1.3101 -1.6231
15600TIP3    H268216   5.763   0.639  10.958 -2.4634  1.3866  1.8046
15601TIP3   OH268217   1.914   3.347   2.185 -0.2298 -0.6440  0.2676
15601TIP3    H168218   1.852   3.370   2.254 -1.8077 -3.7113  0.0693
15601TIP3    H268219   1.860   3.306   2.117  1.6868 -0.8399 -1.2341
15602TIP3   OH268220   2.145   3.657   3.436  0.8223 -0.2165  0.5257
15602TIP3    H168221   2.078   3.604   3.393 -1.0150  2.1664  0.1767
15602TIP3    H268222   2.228   3.628   3.398  0.0043 -3.1162  0.7956
15603TIP3   OH268223   0.918   0.182  11.177  0.1235  0.1442  0.2080
15603TIP3    H168224   0.840   0.235  11.161 -0.1723 -0.3735 -0.0905
15603TIP3    H268225   0.886   0.107  11.227  0.2432 -0.5916 -0.7867
15604TIP3   OH268226   1.412   4.514   1.669  0.0170  0.0708  0.1748
15604TIP3    H168227   1.391   4.557   1.752  0.9963 -1.0999  1.0696
15604TIP3    H268228   1.370   4.428   1.675 -2.0318  0.8591 -1.6400
15605TIP3   OH268229   1.398   2.917  12.731 -1.3979  0.6748  0.5716
15605TIP3    H168230   1.485   2.913  12.770 -2.0108 -0.8045  1.8733
15605TIP3    H268231   1.413   2.908  12.637 -0.0928  1.4962  0.6863
15606TIP3   OH268232   3.083   3.602   1.652 -0.1268  0.5393  0.2802
15606TIP3    H168233   3.003   3.564   1.688 -0.4582  2.0356  1.2568
15606TIP3    H268234   3.063   3.695   1.642  0.9700  0.6715 -1.0043
15607TIP3   OH268235   3.699   5.084   1.332  1.0172 -0.0605  0.0147
15607TIP3    H168236   3.719   5.126   1.416 -0.2421 -0.0118  0.3046
15607TIP3    H268237   3.603   5.080   1.329  1.0580 -0.4946 -1.2111
15608TIP3   OH268238   6.626   3.433   2.759 -0.0505 -0.0674  0.1285
15608TIP3    H168239   6.665   3.381   2.830  0.3715  0.3725  0.2221
15608TIP3    H268240   6.560   3.375   2.721 -0.3748 -0.2619  0.9684
15609TIP3   OH268241   5.200   2.482  16.444 -0.5767 -0.2073  0.1059
15609TIP3    H168242   5.260   2.418  16.482 -0.2387  0.3804  0.5723
15609TIP3    H268243   5.211   2.471  16.350 -1.8310 -2.0674  0.1190
15610TIP3   OH268244   2.019   5.528  17.248  0.0220 -0.1710  0.2520
15610TIP3    H168245   2.068   5.456  17.209  0.3006  0.7735 -1.2366
15610TIP3    H268246   1.927   5.507  17.228  0.1175 -0.0149 -0.3762
15611TIP3   OH268247   6.576   0.814   0.246 -0.0008  0.4504  0.1622
15611TIP3    H168248   6.575   0.879   0.316 -0.7874 -1.1379  1.6911
15611TIP3    H268249   6.510   0.750   0.271  2.1761 -2.1095 -0.1393
15612TIP3   OH268250   4.197   5.693  14.026  0.0614 -0.0333 -0.4502
15612TIP3    H168251   4.228   5.636  14.096  0.4106 -0.3137 -0.8302
15612TIP3    H268252   4.104   5.670  14.017 -0.4988  1.3345  1.1929
15613TIP3   OH268253   6.314   1.466   0.771  0.3249  0.1107  0.0768
15613TIP3    H168254   6.229   1.506   0.786 -0.3626 -0.7777 -1.3148
15613TIP3    H268255   6.332   1.418   0.852 -1.8025 -1.9541 -0.5718
15614TIP3   OH268256   4.419   4.466   3.502 -0.0284  0.5036 -0.8279
15614TIP3    H168257   4.390   4.389   3.452  0.8300 -0.1552 -0.3418
15614TIP3    H268258   4.514   4.456   3.508 -0.1599  0.1630  1.5626
15615TIP3   OH268259   0.242   3.896  11.153  0.5651  0.1211 -0.3638
15615TIP3    H168260   0.286   3.838  11.090  0.6569  0.1450 -0.3231
15615TIP3    H268261   0.255   3.984  11.118 -0.1297  0.0741 -0.7604
15616TIP3   OH268262   3.302   2.984  13.464 -0.3712  0.5743  0.8464
15616TIP3    H168263   3.216   3.012  13.495 -0.7206  0.4771 -0.0114
15616TIP3    H268264   3.286   2.900  13.422 -0.5276  2.1096 -2.4096
15617TIP3   OH268265   0.872   2.291   2.815 -0.1101 -0.1311 -0.0834
15617TIP3    H168266   0.883   2.385   2.805  2.8891 -0.5887 -2.5325
15617TIP3    H268267   0.904   2.272   2.903  1.7417  0.9164 -0.4858
15618TIP3   OH268268   2.817   0.271  11.289 -0.0798  0.0144 -0.1643
15618TIP3    H168269   2.746   0.236  11.237 -0.2678  0.8184 -0.4702
15618TIP3    H268270   2.778   0.288  11.375 -0.1921  0.2095 -0.2524
15619TIP3   OH268271   5.234   0.152   5.757  0.5001  0.3858  1.1143
15619TIP3    H168272   5.167   0.096   5.718 -0.2950  1.2517  1.1999
15619TIP3    H268273   5.186   0.211   5.815  1.4434  0.4244  1.8908
15620TIP3   OH268274   6.652   0.982   2.870  0.2857  0.2442 -0.4795
15620TIP3    H168275   6.710   0.966   2.796 -0.8056 -1.0420 -1.1114
15620TIP3    H268276   6.565   0.957   2.838 -0.5354  1.5905  0.6043
15621TIP3   OH268277   6.320   6.277   0.208  0.2555 -0.1319 -0.3401
15621TIP3    H168278   6.251   6.286   0.143 -0.3991  2.1357  0.5624
15621TIP3    H268279   6.398   6.316   0.167  1.5807 -4.0152 -1.9407
15622TIP3   OH268280   0.397   6.309   1.544  0.3381 -0.1991 -0.2436
15622TIP3    H168281   0.373   6.392   1.586  1.5220 -0.6563  1.4650
15622TIP3    H268282   0.317   6.278   1.503 -0.1456  1.7459 -0.8545
15623TIP3   OH268283   4.565   3.980   5.456  0.3487 -0.5341  0.5645
15623TIP3    H168284   4.539   3.919   5.526  2.8544 -2.4804 -0.0559
15623TIP3    H268285   4.610   3.925   5.392  0.6629  1.6616 -1.2091
15624TIP3   OH268286   1.599   5.951  13.835 -0.2424  0.0131 -0.2222
15624TIP3    H168287   1.677   5.900  13.813  0.2430  1.0456 -0.9734
15624TIP3    H268288   1.587   5.935  13.929 -0.4286 -1.8834 -0.5189
15625TIP3   OH268289   1.788   0.186   2.485 -0.0388 -0.0430  0.1448
15625TIP3    H168290   1.815   0.099   2.514  0.5964 -0.1076 -0.6314
15625TIP3    H268291   1.752   0.173   2.397 -1.3490  0.2550  0.6046
15626TIP3   OH268292   3.548   5.525   4.154 -0.3339 -0.5135  0.0552
15626TIP3    H168293   3.540   5.494   4.244 -0.1217 -2.7422 -0.6264
15626TIP3    H268294   3.542   5.620   4.160  0.0981 -0.5916  2.4523
15627TIP3   OH268295   0.266   5.213   2.576 -0.7371 -0.1008  0.0664
15627TIP3    H168296   0.221   5.215   2.660 -2.8674  0.3380 -1.0063
15627TIP3    H268297   0.288   5.121   2.563 -3.0366 -0.6972 -0.1431
15628TIP3   OH268298   0.418   3.427  16.499 -0.4251  0.2001  0.5785
15628TIP3    H168299   0.395   3.335  16.484  0.0511  0.1805 -0.0634
15628TIP3    H268300   0.435   3.462  16.412  1.7088  0.2848  0.9764
15629TIP3   OH268301   5.925   2.066  12.984 -0.9159 -0.7428 -0.6137
15629TIP3    H168302   5.843   2.114  12.979 -0.1326  0.6822 -0.4340
15629TIP3    H268303   5.977   2.098  12.910  1.1090  1.6886  1.6555
15630TIP3   OH268304   5.305   5.637   2.996  0.4401 -0.6402 -0.0413
15630TIP3    H168305   5.296   5.670   3.085  1.7276  0.7441 -0.3853
15630TIP3    H268306   5.398   5.618   2.987  0.3204 -0.7842 -1.0910
15631TIP3   OH268307   5.653   1.288  13.289 -0.0711 -0.9854 -0.0823
15631TIP3    H168308   5.712   1.266  13.217  1.6902  1.2661  0.5691
15631TIP3    H268309   5.695   1.250  13.366 -0.5135 -1.0154  0.1436
15632TIP3   OH268310   2.182   2.411   3.716  0.1201  0.3540  0.3164
15632TIP3    H168311   2.200   2.467   3.792  0.9575 -0.1287  0.4838
15632TIP3    H268312   2.268   2.381   3.687 -0.2355  0.0774 -0.4830
15633TIP3   OH268313   1.572   3.905  15.374 -0.1184  0.1050  0.1421
15633TIP3    H168314   1.542   3.931  15.461 -1.5742 -0.2835 -0.2054
15633TIP3    H268315   1.562   3.984  15.321  1.9288  0.6903  0.5658
15634TIP3   OH268316   5.875   6.014   3.745  0.2477  0.5380  0.1466
15634TIP3    H168317   5.892   5.993   3.836  0.7549 -1.7627 -0.4295
15634TIP3    H268318   5.826   5.939   3.711  1.0275  0.8393 -1.7478
15635TIP3   OH268319   6.606   1.797   2.510  0.3266 -0.6599  0.4770
15635TIP3    H168320   6.534   1.837   2.462 -0.1540 -1.2613  0.6849
15635TIP3    H268321   6.680   1.855   2.494 -0.5392  0.7949  1.4632
15636TIP3   OH268322   4.139   3.069  13.524  0.0917  0.4461  0.1207
15636TIP3    H168323   4.130   2.975  13.513 -0.7347  0.7089 -1.7287
15636TIP3    H268324   4.233   3.083  13.535  0.3881 -0.4823 -1.0431
15637TIP3   OH268325   4.377   2.521  12.588 -0.5259 -0.5179 -0.3002
15637TIP3    H168326   4.462   2.538  12.549  0.1650 -0.6801  1.0840
15637TIP3    H268327   4.329   2.603  12.579 -0.1775 -0.3851 -0.9629
15638TIP3   OH268328   2.396   0.491  14.979  0.0700 -0.7822 -0.4560
15638TIP3    H168329   2.360   0.433  14.912 -1.0345  0.4592 -0.9873
15638TIP3    H268330   2.319   0.534  15.016  0.8672  0.4930 -0.2391
15639TIP3   OH268331   4.085   0.544  14.699 -0.1410  0.4833  0.0105
15639TIP3    H168332   4.034   0.467  14.724 -0.9305  0.6447 -1.0604
15639TIP3    H268333   4.046   0.616  14.749  0.7709  0.1759  1.2221
15640TIP3   OH268334   2.484   3.063   3.563  0.0646 -0.7236 -0.3600
15640TIP3    H168335   2.555   3.000   3.551 -1.0053 -2.1212  0.3067
15640TIP3    H268336   2.404   3.011   3.556 -0.8300  0.1228  2.3317
15641TIP3   OH268337   3.388   3.652   1.356 -0.2995  0.4211  0.0366
15641TIP3    H168338   3.368   3.716   1.287 -1.3219 -0.3810 -0.4479
15641TIP3    H268339   3.311   3.595   1.358  0.0803 -0.0755  1.2803
15642TIP3   OH268340   4.790   3.442   4.245 -0.1215  0.2525 -0.7625
15642TIP3    H168341   4.821   3.363   4.201  1.0569 -0.1918  0.7635
15642TIP3    H268342   4.867   3.477   4.289 -1.3450  0.2248  1.5547
15643TIP3   OH268343   6.677   5.002  12.055 -0.5050 -0.3141 -0.3195
15643TIP3    H168344   6.626   5.011  12.136 -1.0854 -0.7965 -0.6269
15643TIP3    H268345   6.645   4.921  12.015  1.8859 -1.7551  0.4679
15644TIP3   OH268346   0.130   2.310   3.592  0.4734 -0.0647  0.0841
15644TIP3    H168347   0.038   2.304   3.618  0.5910  0.2753  0.5744
15644TIP3    H268348   0.145   2.402   3.574  0.9496  0.0192  0.8636
15645TIP3   OH268349   1.135   3.737   0.000  0.2808  0.4383  0.0607
15645TIP3    H168350   1.177   3.726   0.085  1.8939  0.0650 -0.7516
15645TIP3    H268351   1.057   3.790   0.019  0.4857  0.1981  1.7814
15646TIP3   OH268352   5.528   5.501   5.605 -0.3377 -1.1571 -0.6420
15646TIP3    H168353   5.488   5.578   5.645  2.7232  0.6687 -0.7732
15646TIP3    H268354   5.537   5.439   5.678 -1.2409 -0.7013 -0.1218
15647TIP3   OH268355   4.212   2.351  16.621 -0.0466 -0.0717 -0.0850
15647TIP3    H168356   4.173   2.263  16.626  0.8220 -0.6407 -2.3542
15647TIP3    H268357   4.274   2.346  16.549  1.2497  1.9784  0.8061
15648TIP3   OH268358   3.685   1.611  15.927  0.1435 -0.3409 -0.0266
15648TIP3    H168359   3.615   1.556  15.892  1.0521 -2.3276  1.1190
15648TIP3    H268360   3.746   1.550  15.969  1.5917  1.4836  0.7024
15649TIP3   OH268361   1.795   0.326   1.802 -0.5362 -0.1163 -0.2271
15649TIP3    H168362   1.748   0.254   1.845 -1.4550  0.3155 -0.4765
15649TIP3    H268363   1.834   0.287   1.724  0.1219 -0.6355  0.3510
15650TIP3   OH268364   3.408   0.753   0.006  0.1484 -0.5211  0.6904
15650TIP3    H168365   3.460   0.761   0.086  0.3463  1.0525  0.4427
15650TIP3    H268366   3.444   0.677  -0.039  0.9300 -0.6170  1.4588
15651TIP3   OH268367   2.096   2.186  16.094 -0.1503  0.4969 -0.3547
15651TIP3    H168368   2.162   2.248  16.062 -0.6340  0.3634 -1.6661
15651TIP3    H268369   2.071   2.135  16.016 -0.1665 -0.9777  0.5785
15652TIP3   OH268370   3.291   3.403   0.045  1.2565  0.4177 -0.3663
15652TIP3    H168371   3.238   3.442  -0.024  1.0061 -1.7400 -1.4719
15652TIP3    H268372   3.380   3.432   0.025  1.2198 -0.3467 -1.7513
15653TIP3   OH268373   5.568   0.737  12.967  0.5801 -0.0985 -0.0923
15653TIP3    H168374   5.552   0.684  12.889  2.8077 -1.6922  0.4189
15653TIP3    H268375   5.655   0.776  12.952  0.8875 -0.1484  1.4211
15654TIP3   OH268376   1.085   5.270   5.619  0.8097  0.6571  0.4283
15654TIP3    H168377   1.046   5.299   5.537  2.4264  1.6955 -0.0113
15654TIP3    H268378   1.107   5.178   5.605  0.3340  0.6099 -0.0057
15655TIP3   OH268379   4.532   3.690  15.588  0.1272 -0.2707 -0.2040
15655TIP3    H168380   4.461   3.626  15.581 -1.2268  1.1240  0.0685
15655TIP3    H268381   4.576   3.686  15.503 -0.5492 -0.8561 -0.5411
15656TIP3   OH268382   5.232   2.887  11.881  0.0080 -0.5358  0.0897
15656TIP3    H168383   5.323   2.859  11.865 -0.4170 -0.9857 -1.8737
15656TIP3    H268384   5.195   2.817  11.935  0.9778 -0.0451  1.4294
15657TIP3   OH268385   2.638   5.495  11.129 -0.1514 -0.0619 -0.3533
15657TIP3    H168386   2.552   5.463  11.156  0.5517  0.1212  2.4161
15657TIP3    H268387   2.648   5.579  11.175  0.8168  0.8141 -2.0404
15658TIP3   OH268388   6.227   5.251   0.510  0.1405 -0.0157 -0.2318
15658TIP3    H168389   6.287   5.289   0.446 -0.3148  0.3995 -0.4139
15658TIP3    H268390   6.284   5.202   0.570  0.6467  0.2600 -0.4845
15659TIP3   OH268391   4.411   2.536  15.839  0.4055 -0.5908 -0.1417
15659TIP3    H168392   4.480   2.603  15.832 -0.8681  0.7778 -0.2250
15659TIP3    H268393   4.346   2.563  15.774 -0.9238 -0.9500  1.0019
15660TIP3   OH268394   4.111   4.675  12.568 -0.4713 -0.5544  0.2344
15660TIP3    H168395   4.016   4.670  12.572 -0.5131  0.7235  1.6722
15660TIP3    H268396   4.129   4.761  12.530  0.1162 -0.7882 -0.0284
15661TIP3   OH268397   5.966   1.573   3.456  0.0430 -0.6154  0.2522
15661TIP3    H168398   5.876   1.606   3.461 -0.4546 -1.9430  0.4635
15661TIP3    H268399   5.990   1.555   3.547  0.0267 -1.5035  0.0930
15662TIP3   OH268400   2.086   6.676   5.085 -0.0073 -0.1665  0.2790
15662TIP3    H168401   2.118   6.644   5.169  1.0005  2.4280  0.9466
15662TIP3    H268402   2.019   6.741   5.108 -1.5692 -1.2174 -1.0235
15663TIP3   OH268403   4.758   5.415  11.387  0.0408  0.5792 -0.1844
15663TIP3    H168404   4.800   5.469  11.320  0.8993 -0.1451 -0.2497
15663TIP3    H268405   4.679   5.381  11.346  0.6409  0.0169 -0.8980
15664TIP3   OH268406   1.832   5.280   2.205  0.1293  0.3006 -0.0273
15664TIP3    H168407   1.898   5.313   2.266  1.2054 -1.2297 -0.3051
15664TIP3    H268408   1.880   5.263   2.124  0.0881 -3.4173  0.5614
15665TIP3   OH268409   1.245   5.853   3.994  0.2266  0.0177 -0.1484
15665TIP3    H168410   1.167   5.801   3.974 -1.1311  1.2520  1.6063
15665TIP3    H268411   1.318   5.796   3.969 -1.1565 -2.6586  1.3539
15666TIP3   OH268412   1.862   4.737   0.529 -0.2809 -0.2315 -0.3368
15666TIP3    H168413   1.874   4.727   0.434 -0.1804 -0.7020 -0.2782
15666TIP3    H268414   1.820   4.822   0.539 -3.2515 -1.4987 -1.0647
15667TIP3   OH268415   4.925   2.368  16.016  0.3568  0.2795  0.4045
15667TIP3    H168416   5.001   2.372  15.957  0.1683  2.8790  0.2321
15667TIP3    H268417   4.850   2.366  15.957  0.2368 -0.1410  0.5719
15668TIP3   OH268418   0.553   2.691  16.232 -0.2710  0.0193  0.2398
15668TIP3    H168419   0.538   2.632  16.305 -0.3154  0.9510  1.0102
15668TIP3    H268420   0.484   2.669  16.169 -0.4060 -0.6054  0.6029
15669TIP3   OH268421   2.237   1.706   2.536  0.1872 -0.0584 -0.3903
15669TIP3    H168422   2.255   1.633   2.595 -1.1707  1.0411  1.4782
15669TIP3    H268423   2.263   1.784   2.585  2.2090  0.7841 -2.5669
15670TIP3   OH268424   3.243   5.005  16.924 -0.2860  0.4059 -0.1578
15670TIP3    H168425   3.162   5.006  16.874 -0.8886  0.2209  0.8016
15670TIP3    H268426   3.301   5.065  16.876 -1.2923  1.2604 -0.3433
15671TIP3   OH268427   2.183   1.270   0.702  0.1696  0.0054 -0.1932
15671TIP3    H168428   2.255   1.207   0.702 -0.1381 -0.3554 -0.3322
15671TIP3    H268429   2.168   1.289   0.610 -0.7014 -0.8568 -0.2493
15672TIP3   OH268430   3.418   4.606   3.105 -0.9768 -0.3252 -0.1716
15672TIP3    H168431   3.415   4.633   3.013  0.1080 -2.6301 -0.9628
15672TIP3    H268432   3.326   4.610   3.133 -1.4982 -0.6618 -1.7002
15673TIP3   OH268433   4.460   3.936   1.366 -0.0068 -0.2364  0.2373
15673TIP3    H168434   4.504   3.853   1.387  0.3396 -0.1549 -0.1486
15673TIP3    H268435   4.523   3.983   1.311 -1.2456 -0.8847 -1.8670
15674TIP3   OH268436   5.941   1.165  12.764  0.3386  0.3122  0.2154
15674TIP3    H168437   5.885   1.200  12.695  1.8696 -1.4548 -2.0654
15674TIP3    H268438   6.023   1.215  12.756 -0.1610  1.5850  2.2778
15675TIP3   OH268439   1.166   5.469  11.892  0.7992 -0.4720  0.0969
15675TIP3    H168440   1.181   5.563  11.898  1.6005 -0.6223  0.7374
15675TIP3    H268441   1.244   5.436  11.847  1.0667 -0.9450  0.8795
15676TIP3   OH268442   4.058   0.636   2.208  0.2621  0.3677  0.4127
15676TIP3    H168443   4.037   0.604   2.120  1.3728  0.4045  0.1241
15676TIP3    H268444   3.981   0.613   2.261  0.7136 -2.2323  0.0722
15677TIP3   OH268445   1.078   4.496  10.806  0.8250  0.3023 -0.5835
15677TIP3    H168446   1.043   4.558  10.742  2.2212 -0.1630 -1.8583
15677TIP3    H268447   1.023   4.418  10.795  0.6104  0.4707 -0.7231
15678TIP3   OH268448   5.789   2.256  15.771  0.7724  0.5160  0.1169
15678TIP3    H168449   5.826   2.248  15.684  1.0388  1.9230  0.0775
15678TIP3    H268450   5.856   2.301  15.822  0.3848  0.2407  0.8892
15679TIP3   OH268451   6.240   0.361  13.696  0.1051 -0.0374  0.4604
15679TIP3    H168452   6.193   0.322  13.622 -0.5367  2.3320 -0.4813
15679TIP3    H268453   6.213   0.308  13.771  0.3277 -2.1648 -0.8656
15680TIP3   OH268454   3.569   0.744   6.693  0.1706 -0.2398  0.2001
15680TIP3    H168455   3.595   0.718   6.782 -2.9745  2.3448  2.1121
15680TIP3    H268456   3.489   0.694   6.676  0.6727 -0.6049 -1.1385
15681TIP3   OH268457   0.785   0.302  16.353 -0.4634 -0.1027  0.3193
15681TIP3    H168458   0.763   0.369  16.289 -2.1225  1.1682  2.1252
15681TIP3    H268459   0.713   0.239  16.348 -0.1371 -0.4791  0.3121
15682TIP3   OH268460   4.113   4.034  14.556 -0.1307  0.0633  0.3401
15682TIP3    H168461   4.164   4.019  14.636  0.8480  0.7535 -0.1210
15682TIP3    H268462   4.137   4.124  14.530  0.4066 -0.5199 -1.2938
15683TIP3   OH268463   5.753   5.725  14.466  0.3041  0.4368  0.2993
15683TIP3    H168464   5.776   5.801  14.521  1.1188  0.7239 -0.4102
15683TIP3    H268465   5.736   5.763  14.380 -0.2389 -0.0960  0.1674
15684TIP3   OH268466   2.416   3.852  13.372  0.4965  0.2447  0.3374
15684TIP3    H168467   2.355   3.780  13.389  0.9906 -0.2251  0.1433
15684TIP3    H268468   2.368   3.910  13.314  0.0586  0.1209  0.5668
15685TIP3   OH268469   3.940   3.924   2.376 -0.1255  0.0768 -0.2613
15685TIP3    H168470   3.864   3.953   2.426 -1.1677 -0.8350 -1.2636
15685TIP3    H268471   3.909   3.919   2.286  1.0579 -0.5920 -0.6562
15686TIP3   OH268472   5.458   6.519   4.266  0.2214  0.4963  0.3944
15686TIP3    H168473   5.433   6.460   4.194  1.6338 -1.5761  1.5007
15686TIP3    H268474   5.491   6.597   4.223  0.4436 -0.4429 -1.2169
15687TIP3   OH268475   6.701   2.934   4.847  0.1185  0.3549 -0.9556
15687TIP3    H168476   6.731   2.941   4.757 -1.3583  1.2203 -1.4232
15687TIP3    H268477   6.762   2.874   4.889  1.1782  0.4061 -2.3716
15688TIP3   OH268478   5.383   2.352   3.954  0.3181 -0.1793  0.1681
15688TIP3    H168479   5.394   2.270   3.907  1.1720 -0.8028  1.3941
15688TIP3    H268480   5.308   2.337   4.011 -0.5500  0.4805 -0.7752
15689TIP3   OH268481   2.924   6.155   3.846  0.3430  0.5982 -0.0802
15689TIP3    H168482   2.956   6.066   3.858  0.8976  0.6099 -1.3153
15689TIP3    H268483   2.890   6.156   3.756  0.0447  1.5402  0.0334
15690TIP3   OH268484   0.539   3.747   3.193 -0.1419 -0.0060 -0.6274
15690TIP3    H168485   0.448   3.737   3.223 -0.6471  0.4915 -1.9166
15690TIP3    H268486   0.591   3.701   3.258 -1.2905  0.0049  0.3376
15691TIP3   OH268487   6.604   3.774   3.603  0.2338  0.3579 -0.3768
15691TIP3    H168488   6.572   3.847   3.656 -0.7683  0.5506 -1.2088
15691TIP3    H268489   6.525   3.735   3.566  0.7474 -1.1929  0.0902
15692TIP3   OH268490   5.916   2.009  12.342 -0.3006 -0.1250  0.2783
15692TIP3    H168491   5.935   2.056  12.260 -1.6597  1.4860  0.8208
15692TIP3    H268492   5.991   2.029  12.399 -0.1521  0.1484 -0.0082
15693TIP3   OH268493   3.922   3.044   6.761  0.3715 -0.1706 -0.0214
15693TIP3    H168494   3.872   3.125   6.749  0.8470  0.3863  1.5666
15693TIP3    H268495   3.856   2.977   6.779 -0.0202 -0.1645 -1.3086
15694TIP3   OH268496   2.347   4.489  13.776  0.0967 -0.2077 -1.0529
15694TIP3    H168497   2.403   4.557  13.813 -0.6694  0.5202 -1.1797
15694TIP3    H268498   2.407   4.426  13.738  0.9161 -0.7002  0.9144
15695TIP3   OH268499   1.070   1.085   0.978  0.4897 -0.0670  0.0633
15695TIP3    H168500   1.077   0.990   0.977 -3.7697 -0.5824 -0.5414
15695TIP3    H268501   1.081   1.111   0.886 -0.3392 -0.2546 -0.0967
15696TIP3   OH268502   5.584   5.511   3.952  0.0677  0.2687  0.6011
15696TIP3    H168503   5.616   5.478   3.868  2.7644  1.6325  0.9643
15696TIP3    H268504   5.661   5.512   4.008 -1.2459  1.2324  2.4963
15697TIP3   OH268505   0.941   5.311  15.018 -0.4608  0.1240  0.0070
15697TIP3    H168506   0.940   5.396  15.062  0.7114  0.2839 -0.2253
15697TIP3    H268507   0.973   5.330  14.930 -2.7262 -0.2055 -0.9545
15698TIP3   OH268508   0.683   3.620   0.091 -0.0573  0.4239  0.7672
15698TIP3    H168509   0.588   3.629   0.105  0.0533  2.0474  0.7218
15698TIP3    H268510   0.713   3.563   0.162 -1.2728 -1.4308 -0.1279
15699TIP3   OH268511   4.306   2.441  17.093  0.4342 -0.2110 -0.5690
15699TIP3    H168512   4.258   2.524  17.088  0.5673 -0.0300  0.7914
15699TIP3    H268513   4.398   2.467  17.099  0.4070 -0.4035  0.9206
15700TIP3   OH268514   3.398   1.142   0.017 -0.2184 -0.2415  0.2657
15700TIP3    H168515   3.361   1.195  -0.054 -0.3572  1.7501  1.7352
15700TIP3    H268516   3.322   1.115   0.069 -0.2583 -2.8026 -0.9442
15701TIP3   OH268517   5.947   1.720   4.637  0.0733 -0.3410 -0.0162
15701TIP3    H168518   5.987   1.676   4.713  0.9192  1.4377  0.6129
15701TIP3    H268519   5.933   1.810   4.666  1.4322  0.6886 -2.3148
15702TIP3   OH268520   2.671   5.362   3.386 -0.0309 -0.0427 -0.5617
15702TIP3    H168521   2.585   5.360   3.430  1.5987  0.3225  3.0219
15702TIP3    H268522   2.683   5.454   3.362 -0.3774  0.0242 -0.4846
15703TIP3   OH268523   0.618   3.295   0.860 -0.4287  0.3422 -0.7160
15703TIP3    H168524   0.655   3.317   0.774 -1.5610  1.3210 -0.9785
15703TIP3    H268525   0.669   3.347   0.922 -1.1774  1.5384 -1.0560
15704TIP3   OH268526   0.528   5.801   5.079 -0.6015 -0.0875 -0.1716
15704TIP3    H168527   0.588   5.871   5.106 -1.2944  0.7507 -0.7303
15704TIP3    H268528   0.543   5.792   4.985  0.7784 -1.9857  0.1722
15705TIP3   OH268529   4.464   6.214   0.898  0.5382  0.4041  0.0483
15705TIP3    H168530   4.392   6.166   0.940 -1.4488  2.8383 -0.3544
15705TIP3    H268531   4.492   6.278   0.963  0.5780  1.1566 -0.6929
15706TIP3   OH268532   2.092   5.480  15.661 -0.3759 -0.2184  0.1672
15706TIP3    H168533   2.112   5.541  15.731  0.2376  0.5527 -0.6590
15706TIP3    H268534   2.061   5.535  15.589  0.7382 -0.8007 -0.7954
15707TIP3   OH268535   2.433   1.912   4.333  0.1889  0.4465 -0.1236
15707TIP3    H168536   2.347   1.947   4.309  0.4982 -0.2090 -2.4584
15707TIP3    H268537   2.416   1.851   4.404 -1.0780  1.3194  0.3479
15708TIP3   OH268538   5.780   4.005  13.925  0.2010 -0.3016  0.2256
15708TIP3    H168539   5.727   3.928  13.948 -2.6070  2.0479  2.4664
15708TIP3    H268540   5.771   4.013  13.830 -3.1319 -0.3616  0.4282
15709TIP3   OH268541   0.566   3.856  11.876  0.4067 -0.7361  0.1350
15709TIP3    H168542   0.646   3.909  11.880 -1.5626  2.6249 -1.0535
15709TIP3    H268543   0.517   3.879  11.954 -0.0356 -1.6939  0.1577
15710TIP3   OH268544   3.825   1.747   1.317 -0.0782  0.0859  0.0345
15710TIP3    H168545   3.760   1.708   1.374  0.8922 -1.5937  0.0361
15710TIP3    H268546   3.774   1.801   1.256 -1.2899  0.2029  1.1187
15711TIP3   OH268547   1.659   3.072  16.290 -0.0230  0.3122  0.1919
15711TIP3    H168548   1.648   3.128  16.213 -1.4256  0.4926  0.4799
15711TIP3    H268549   1.585   3.096  16.346 -0.6476 -1.8084  0.3426
15712TIP3   OH268550   6.320   0.692   0.371 -0.1361  0.0049  0.2865
15712TIP3    H168551   6.251   0.658   0.315 -2.9543  1.0714  2.8285
15712TIP3    H268552   6.342   0.619   0.429  1.6081 -0.6011 -1.0563
15713TIP3   OH268553   3.147   6.757   2.649  0.3098 -0.0699 -0.0377
15713TIP3    H168554   3.212   6.690   2.626 -3.2845 -3.7121 -0.7727
15713TIP3    H268555   3.140   6.752   2.744  0.6225 -0.1321 -0.0163
15714TIP3   OH268556   0.261   0.536   1.890 -0.0035 -0.0849 -0.4143
15714TIP3    H168557   0.347   0.509   1.858  0.2741 -1.5178  1.3663
15714TIP3    H268558   0.280   0.600   1.959 -0.2644 -1.1752  0.7083
15715TIP3   OH268559   4.948   5.852  16.724  0.4284  0.5787 -0.2220
15715TIP3    H168560   5.026   5.849  16.778 -0.4399 -0.3502  1.0335
15715TIP3    H268561   4.876   5.835  16.784 -0.5063 -1.3870 -1.7961
15716TIP3   OH268562   0.818   5.181   2.251  0.4901 -0.2700 -0.0610
15716TIP3    H168563   0.792   5.171   2.343 -0.6646 -1.6478 -0.5028
15716TIP3    H268564   0.831   5.275   2.240 -1.0015  0.1182  1.1014
15717TIP3   OH268565   5.161   2.011   3.463 -0.4961  0.4394 -0.3152
15717TIP3    H168566   5.068   2.018   3.482 -0.1681 -0.4071  1.9665
15717TIP3    H268567   5.174   1.919   3.439 -0.1332  0.3743  0.1195
15718TIP3   OH268568   4.171   4.539   1.663  0.4653  0.5844  0.3023
15718TIP3    H168569   4.125   4.496   1.591 -0.4648  0.2870  1.0592
15718TIP3    H268570   4.254   4.491   1.669 -0.1028 -0.4155  0.4312
15719TIP3   OH268571   0.693   0.461  14.845 -0.1519  0.4786 -0.5105
15719TIP3    H168572   0.652   0.376  14.859  0.5398  0.2767  0.4097
15719TIP3    H268573   0.786   0.440  14.830 -0.0209  1.0528 -0.5177
15720TIP3   OH268574   6.401   1.731  15.193 -0.5155 -0.0816  0.2399
15720TIP3    H168575   6.334   1.771  15.138 -0.2027  1.2600  0.7877
15720TIP3    H268576   6.412   1.792  15.266  0.2008 -1.0407  0.9610
15721TIP3   OH268577   0.550   4.861   3.642  0.1500  0.7135  0.1196
15721TIP3    H168578   0.555   4.860   3.547  1.3617 -0.4911  0.1606
15721TIP3    H268579   0.610   4.930   3.669  2.4935 -1.1748  0.0527
15722TIP3   OH268580   1.545   2.207  16.916  0.2319 -0.7793 -0.6747
15722TIP3    H168581   1.598   2.160  16.981 -1.0482 -0.8115  0.3989
15722TIP3    H268582   1.481   2.142  16.886 -1.3628  0.1121  0.6004
15723TIP3   OH268583   4.054   2.267  16.155 -0.2380 -0.2328 -0.2576
15723TIP3    H168584   4.131   2.297  16.107  0.6401 -3.1388 -0.8517
15723TIP3    H268585   3.985   2.261  16.089 -0.4889  0.5980 -0.0880
15724TIP3   OH268586   6.496   1.851   4.674 -0.3296  0.1923 -0.1833
15724TIP3    H168587   6.414   1.847   4.722 -0.9629  0.8212 -1.1822
15724TIP3    H268588   6.564   1.844   4.741 -1.1861 -0.7540  0.6111
15725TIP3   OH268589   2.728   0.674  13.924 -0.5027 -0.5825  0.2004
15725TIP3    H168590   2.711   0.616  13.998 -1.8133 -0.5077 -0.0129
15725TIP3    H268591   2.816   0.708  13.939 -1.0374  0.0530  2.1362
15726TIP3   OH268592   5.643   3.551   1.461 -0.0982  0.1347  0.3599
15726TIP3    H168593   5.550   3.539   1.482  0.1234 -0.7061  0.8967
15726TIP3    H268594   5.653   3.511   1.375 -0.0194 -0.7082  0.7600
15727TIP3   OH268595   3.750   2.081   1.991  0.5795 -0.0928 -0.1775
15727TIP3    H168596   3.836   2.066   1.953  0.7927  1.5000 -0.3940
15727TIP3    H268597   3.726   2.169   1.961 -0.7179 -0.1488  0.6360
15728TIP3   OH268598   1.920   5.432   5.082 -0.5176  0.5908 -0.0479
15728TIP3    H168599   1.910   5.344   5.045  0.2094  0.9846 -1.2380
15728TIP3    H268600   1.875   5.490   5.020  0.9817  1.3030 -0.5382
15729TIP3   OH268601   4.117   5.346   3.457 -0.0854  0.1368 -0.1975
15729TIP3    H168602   4.204   5.305   3.453 -0.5347 -0.8166 -0.4799
15729TIP3    H268603   4.064   5.283   3.507 -0.5712  0.7917  0.1215
15730TIP3   OH268604   4.827   5.009   2.775 -0.0754 -0.7689  0.0606
15730TIP3    H168605   4.848   5.006   2.682  1.8511  2.3660  0.2825
15730TIP3    H268606   4.760   5.077   2.782 -1.3290 -2.0308  0.8608
15731TIP3   OH268607   2.908   4.898   0.879  0.1594 -0.7552  0.3505
15731TIP3    H168608   2.983   4.913   0.937  1.1845 -2.8024 -0.3729
15731TIP3    H268609   2.856   4.831   0.923 -1.0988  0.3433  0.6403
15732TIP3   OH268610   0.669   5.327   5.826  0.3061 -0.1546  0.8229
15732TIP3    H168611   0.585   5.293   5.857  0.8400 -0.6312  1.7922
15732TIP3    H268612   0.686   5.279   5.745 -1.5537  1.7630 -0.7994
15733TIP3   OH268613   1.157   5.948  15.508 -0.0688  0.0567  0.0038
15733TIP3    H168614   1.245   5.940  15.472 -0.8025 -0.1353 -1.8869
15733TIP3    H268615   1.100   5.918  15.437 -1.5861 -1.4473  1.7425
15734TIP3   OH268616   5.890   1.071   1.375 -0.1625  0.2818 -0.0538
15734TIP3    H168617   5.958   1.004   1.367 -0.4921 -0.2483  1.2943
15734TIP3    H268618   5.930   1.150   1.339  1.5647  0.2388  1.6191
15735TIP3   OH268619   0.039   4.854   4.056 -0.5217  0.0987  0.1436
15735TIP3    H168620   0.005   4.938   4.087 -0.9995  0.2972 -0.8863
15735TIP3    H268621  -0.038   4.807   4.026 -0.3484 -1.0078  1.3580
15736TIP3   OH268622   1.913   0.132   0.025 -0.0521  0.3724 -0.3051
15736TIP3    H168623   1.822   0.157   0.008  0.0096  0.4793 -0.4778
15736TIP3    H268624   1.925   0.050  -0.023 -0.5861 -0.6157  1.1428
15737TIP3   OH268625   3.616   6.060  15.627 -0.3269  0.0771  0.2392
15737TIP3    H168626   3.629   5.973  15.666 -0.7779 -0.0196  0.1739
15737TIP3    H268627   3.572   6.110  15.696 -1.4593 -0.2020 -0.2672
15738TIP3   OH268628   1.091   3.136  16.211  0.2082  0.0725  0.7071
15738TIP3    H168629   1.082   3.155  16.118  0.3197 -0.5419  0.5660
15738TIP3    H268630   1.007   3.162  16.249 -0.6196 -1.5965  0.1004
15739TIP3   OH268631   0.755   2.271  17.157 -0.4920  0.3269  0.1766
15739TIP3    H168632   0.844   2.276  17.123  0.9484  0.1809  3.5308
15739TIP3    H268633   0.741   2.355  17.201 -2.9759  1.2747 -2.1629
15740TIP3   OH268634   4.730   3.780   1.160  0.0743 -0.4963 -0.2004
15740TIP3    H168635   4.677   3.805   1.084 -0.5818 -0.9257  0.1119
15740TIP3    H268636   4.672   3.727   1.214  0.2653  0.4529  1.0049
15741TIP3   OH268637   0.876   6.474   4.733 -0.3917  0.6284 -0.1192
15741TIP3    H168638   0.900   6.455   4.824 -0.6711  0.1528 -0.1446
15741TIP3    H268639   0.814   6.406   4.709  0.5590  0.0599 -1.0463
15742TIP3   OH268640   4.958   1.680   2.021 -0.0216  0.2884  0.5132
15742TIP3    H168641   4.917   1.647   1.941 -0.6947  2.5459 -0.1541
15742TIP3    H268642   5.052   1.672   2.004 -0.1493 -1.2296  0.4089
15743TIP3   OH268643   0.529   3.880   4.274  0.1939 -0.4122 -0.2752
15743TIP3    H168644   0.477   3.939   4.219  0.2174  1.4691  1.5819
15743TIP3    H268645   0.464   3.836   4.329  0.3907  1.2780  1.4245
15744TIP3   OH268646   3.628   3.759  14.143  0.2667 -0.1065 -0.2195
15744TIP3    H168647   3.710   3.796  14.112  1.7633 -2.8936  0.0566
15744TIP3    H268648   3.606   3.808  14.222  1.5090  0.8601 -0.4571
15745TIP3   OH268649   0.661   6.703  13.583 -0.3543 -0.4478 -0.1362
15745TIP3    H168650   0.724   6.687  13.653  0.5857  0.9790 -0.6190
15745TIP3    H268651   0.575   6.693  13.624  0.1694 -1.5689  0.7328
15746TIP3   OH268652   5.431   5.364   3.609  0.0522  0.1406  0.2504
15746TIP3    H168653   5.381   5.399   3.535  0.2118  1.2202  0.6332
15746TIP3    H268654   5.370   5.305   3.654 -0.8576  1.3639  0.6566
15747TIP3   OH268655   4.541   3.273  15.976 -0.2413 -0.0924  0.0174
15747TIP3    H168656   4.559   3.187  16.013 -0.1042 -0.0226  0.1157
15747TIP3    H268657   4.624   3.321  15.985 -0.6123  0.4033  0.9389
15748TIP3   OH268658   0.142   3.597  14.209  0.3977  0.4476 -0.7505
15748TIP3    H168659   0.057   3.562  14.234  0.4219  2.3583  2.6109
15748TIP3    H268660   0.191   3.522  14.176 -1.3753 -1.4877  0.7811
15749TIP3   OH268661   5.334   2.570  13.540  0.1046 -0.0917  0.8948
15749TIP3    H168662   5.244   2.537  13.539  0.2928 -0.6113  0.9179
15749TIP3    H268663   5.362   2.564  13.449  0.6449 -1.4135  1.1288
15750TIP3   OH268664   0.099   5.722   3.186  0.2245  0.6113  0.1058
15750TIP3    H168665   0.109   5.714   3.281  1.2367  0.6987  0.0245
15750TIP3    H268666   0.005   5.715   3.170 -0.0028  1.1235  1.1626
15751TIP3   OH268667   2.086   0.627   2.139 -0.1866 -0.0178 -0.3415
15751TIP3    H168668   2.148   0.565   2.177  0.6573  0.5997 -0.6922
15751TIP3    H268669   2.012   0.572   2.112  1.4031 -1.2036 -2.5552
15752TIP3   OH268670   0.384   1.715   3.778 -0.9874  0.1318 -0.2055
15752TIP3    H168671   0.442   1.782   3.743 -2.2732  0.2874 -2.1893
15752TIP3    H268672   0.403   1.637   3.725 -1.4763 -0.2641  0.1898
15753TIP3   OH268673   4.585   5.717  16.582 -0.2220 -0.2201 -0.1907
15753TIP3    H168674   4.525   5.719  16.507 -0.2763  0.6752 -0.1401
15753TIP3    H268675   4.576   5.804  16.621  0.2064 -0.5012  0.5408
15754TIP3   OH268676   1.155   0.274  11.325  0.0333 -0.3760 -0.2770
15754TIP3    H168677   1.131   0.367  11.326 -0.0358 -0.3648 -1.3888
15754TIP3    H268678   1.082   0.231  11.281 -0.4708 -1.1445  1.2320
15755TIP3   OH268679   2.765   3.861  11.629  0.1111 -0.0130 -0.1059
15755TIP3    H168680   2.670   3.855  11.628  0.1039 -0.5410 -2.0871
15755TIP3    H268681   2.783   3.955  11.642 -0.6561  0.0563  0.5317
15756TIP3   OH268682   6.277   6.695   3.791  0.3435  0.4059  0.3849
15756TIP3    H168683   6.207   6.760   3.793 -0.0868 -0.0568  0.8494
15756TIP3    H268684   6.271   6.656   3.704 -0.5233 -0.1896  0.6905
15757TIP3   OH268685   1.225   5.085  12.550 -0.1396 -0.3946 -0.1429
15757TIP3    H168686   1.152   5.144  12.568 -0.4609 -0.1894 -1.9914
15757TIP3    H268687   1.291   5.141  12.508 -0.1292 -1.1697 -1.1937
15758TIP3   OH268688   5.662   4.246   3.582  0.1295 -0.1229  0.1136
15758TIP3    H168689   5.608   4.301   3.525 -1.7110 -0.7105  1.2022
15758TIP3    H268690   5.699   4.306   3.646  2.0659  0.5179 -1.4882
15759TIP3   OH268691   4.171   4.819  10.793  0.0678 -0.0816  0.6253
15759TIP3    H168692   4.224   4.842  10.717 -1.6388  1.1478 -0.2583
15759TIP3    H268693   4.165   4.724  10.790 -0.5983 -0.0340 -1.2812
15760TIP3   OH268694   2.716   4.630   0.895  0.2877  0.3489 -0.4353
15760TIP3    H168695   2.801   4.592   0.872  1.3596  1.0447  1.9925
15760TIP3    H268696   2.679   4.658   0.812  1.8578 -1.1243 -1.7060
15761TIP3   OH268697   1.450   2.688   5.462  0.2184 -0.7804  0.2680
15761TIP3    H168698   1.399   2.616   5.423  3.5497 -4.1832  1.4874
15761TIP3    H268699   1.478   2.654   5.547  0.5488  2.7845  1.7453
15762TIP3   OH268700   3.878   6.182   2.378  0.3770 -0.1552 -1.1049
15762TIP3    H168701   3.807   6.190   2.442 -0.9235 -1.8592 -2.2349
15762TIP3    H268702   3.870   6.261   2.324 -1.8712 -1.0806 -2.2840
15763TIP3   OH268703   3.036   0.614  12.940  0.0914 -0.8798 -0.5227
15763TIP3    H168704   3.115   0.663  12.960 -1.4889  1.2486  0.9284
15763TIP3    H268705   3.001   0.655  12.861  0.5825 -2.0878 -1.4091
15764TIP3   OH268706   0.015   5.062   3.518 -0.0972 -0.1994  0.4047
15764TIP3    H168707  -0.011   4.994   3.579 -3.1695  0.9154  0.4856
15764TIP3    H268708   0.089   5.106   3.560  0.3272 -1.8715  1.4704
15765TIP3   OH268709   0.773   0.921  15.657 -0.3974  0.5734  1.0482
15765TIP3    H168710   0.698   0.878  15.617  0.1808  0.5480 -0.0446
15765TIP3    H268711   0.740   1.005  15.687 -0.7709  0.7369  0.1998
15766TIP3   OH268712   4.756   2.802   1.717  0.1595  0.2226  0.4674
15766TIP3    H168713   4.807   2.742   1.664  0.0723  0.7571 -0.2409
15766TIP3    H268714   4.665   2.787   1.690 -0.3810 -2.1150  3.0804
15767TIP3   OH268715   3.847   4.775   1.929  1.0190 -0.3180  0.5784
15767TIP3    H168716   3.800   4.858   1.931 -1.6121 -1.7147  1.7097
15767TIP3    H268717   3.875   4.760   2.019  0.5193 -1.1290  0.6117
15768TIP3   OH268718   5.195   6.364   6.255  0.4354  0.7340  0.1150
15768TIP3    H168719   5.158   6.409   6.179  2.1228  2.0565  0.0376
15768TIP3    H268720   5.149   6.402   6.330 -1.0622 -0.4047 -0.1604
15769TIP3   OH268721   1.276   1.440   0.212  0.2874 -0.2228 -0.0615
15769TIP3    H168722   1.216   1.391   0.268 -2.1261 -0.3350 -2.4925
15769TIP3    H268723   1.354   1.385   0.207  0.3282 -0.5097  2.5337
15770TIP3   OH268724   2.511   6.074  15.388  0.1157 -0.1585  0.8582
15770TIP3    H168725   2.538   5.995  15.343  0.2167 -0.5975  1.6673
15770TIP3    H268726   2.499   6.047  15.479 -2.5233  0.0934  0.6878
15771TIP3   OH268727   2.707   5.837  14.176  0.2256  0.0506 -0.4896
15771TIP3    H168728   2.705   5.927  14.144 -3.4195  0.6146  0.8821
15771TIP3    H268729   2.619   5.804  14.161  1.1899 -3.0295 -0.0791
15772TIP3   OH268730   4.671   5.625  13.150 -0.2679  0.0238 -0.7626
15772TIP3    H168731   4.764   5.628  13.131  0.1792  1.7200  1.3375
15772TIP3    H268732   4.647   5.715  13.171 -1.9330 -0.6563  0.5533
15773TIP3   OH268733   5.673   3.886   4.632 -0.4579  0.4112  0.3286
15773TIP3    H168734   5.748   3.922   4.585 -0.0893 -0.4361  0.2664
15773TIP3    H268735   5.703   3.880   4.723 -0.4840  0.1654  0.3204
15774TIP3   OH268736   3.613   5.263   1.879 -0.0252 -0.4615  0.2603
15774TIP3    H168737   3.657   5.232   1.800 -0.4821  3.2228 -1.6379
15774TIP3    H268738   3.670   5.333   1.912 -1.2743 -0.0022  1.5439
15775TIP3   OH268739   6.542   0.901  13.043 -0.3352 -0.1209 -0.2312
15775TIP3    H168740   6.455   0.920  13.080 -0.2242 -0.0660  0.0012
15775TIP3    H268741   6.589   0.984  13.048  0.1638 -0.4518  0.8196
15776TIP3   OH268742   2.433   6.172   4.481 -0.2645 -0.5711  0.0329
15776TIP3    H168743   2.459   6.136   4.396  0.0154 -0.3245  0.0113
15776TIP3    H268744   2.482   6.121   4.545  2.6318  1.7866 -0.1209
15777TIP3   OH268745   1.466   4.418  10.696  0.4162  0.7192  0.0314
15777TIP3    H168746   1.556   4.449  10.685  0.1795  1.4355  0.0283
15777TIP3    H268747   1.471   4.324  10.683  1.2530  0.6796  0.5424
15778TIP3   OH268748   5.809   3.505   3.325 -0.2666  0.0779 -0.1224
15778TIP3    H168749   5.737   3.555   3.286 -0.3219  0.2411  0.1847
15778TIP3    H268750   5.838   3.559   3.399 -1.6243 -1.2569  1.4626
15779TIP3   OH268751   6.427   4.324  12.872 -0.1271 -0.2365 -0.4538
15779TIP3    H168752   6.433   4.365  12.786  0.9827  1.4665  0.3837
15779TIP3    H268753   6.334   4.329  12.894 -0.2438  0.4109 -1.0515
15780TIP3   OH268754   3.650   3.197   0.160  0.6168  0.1682  0.4492
15780TIP3    H168755   3.636   3.157   0.075  0.8514  0.0193  0.4803
15780TIP3    H268756   3.672   3.288   0.141 -1.3422  0.6907  0.4284
15781TIP3   OH268757   2.799   5.890   0.552  0.6161 -0.0423  0.6533
15781TIP3    H168758   2.872   5.841   0.588  1.1538 -0.7400 -1.2830
15781TIP3    H268759   2.736   5.823   0.523 -0.0797  0.5011  0.8806
15782TIP3   OH268760   1.596   4.941  14.335 -0.2623 -0.1619 -0.5616
15782TIP3    H168761   1.554   4.856  14.326 -0.0257 -0.4244  0.6038
15782TIP3    H268762   1.536   5.002  14.293 -1.9826 -0.4899  1.2503
15783TIP3   OH268763   4.236   3.534  11.664  0.1534  0.2999 -0.5722
15783TIP3    H168764   4.191   3.456  11.696  0.4638  0.4241  0.2026
15783TIP3    H268765   4.210   3.542  11.573  1.5909 -1.7811 -1.2163
15784TIP3   OH268766   2.602   5.628   4.910  0.2462 -0.1002 -0.0415
15784TIP3    H168767   2.674   5.592   4.961  0.2313  1.4930  1.1775
15784TIP3    H268768   2.628   5.615   4.819  0.8632 -1.8569  0.3577
15785TIP3   OH268769   2.454   0.456  15.817  0.1630  0.3924 -0.0507
15785TIP3    H168770   2.471   0.505  15.897  0.8449  1.9788 -1.1289
15785TIP3    H268771   2.359   0.458  15.807  0.0422 -0.1280  0.8835
15786TIP3   OH268772   3.064   4.721  16.539  0.0424  0.4645  0.2090
15786TIP3    H168773   3.096   4.807  16.512  0.8402  0.3461  0.7681
15786TIP3    H268774   3.142   4.673  16.568 -0.7585  0.6497  2.9628
15787TIP3   OH268775   2.917   5.361  14.874 -0.5545  0.2155  0.6161
15787TIP3    H168776   2.996   5.350  14.926 -0.8233 -0.1595  0.9525
15787TIP3    H268777   2.939   5.428  14.810 -0.4633  1.2566  1.7124
15788TIP3   OH268778   5.648   6.402   0.428 -0.4221 -0.6405 -0.2994
15788TIP3    H168779   5.623   6.353   0.349  0.6732 -1.5548 -0.1076
15788TIP3    H268780   5.639   6.494   0.403 -3.0974 -0.8716 -0.4968
15789TIP3   OH268781   1.541   3.067  12.933 -0.0427 -0.2466  0.0051
15789TIP3    H168782   1.622   3.116  12.918  0.7318 -1.3041  0.5988
15789TIP3    H268783   1.566   2.975  12.925 -0.7909 -0.6643  1.9027
15790TIP3   OH268784   4.821   5.920  14.653 -0.1853 -0.2296  0.2132
15790TIP3    H168785   4.840   5.901  14.745  1.1517 -0.4628 -0.0935
15790TIP3    H268786   4.765   5.997  14.656 -0.8421 -0.7205  1.2479
15791TIP3   OH268787   3.180   4.980   5.759  0.5460  0.5457  0.0249
15791TIP3    H168788   3.217   4.894   5.738  0.1203  0.3588  0.0418
15791TIP3    H268789   3.086   4.965   5.767  0.3956  1.1342 -0.5939
15792TIP3   OH268790   0.756   6.314  11.664  0.0706 -0.1793  0.0810
15792TIP3    H168791   0.760   6.408  11.680 -1.5870 -0.0505 -0.1282
15792TIP3    H268792   0.713   6.307  11.578 -1.6107 -1.1503  0.9578
15793TIP3   OH268793   3.076   6.707  14.573  0.3984  0.0019 -0.0338
15793TIP3    H168794   3.133   6.748  14.638 -0.1055 -0.1988  0.5535
15793TIP3    H268795   3.132   6.647  14.525  1.0387  0.9907 -0.5666
15794TIP3   OH268796   2.185   5.333   4.942  0.0858  0.0905 -0.4076
15794TIP3    H168797   2.215   5.423   4.955 -0.3099  0.6209 -2.6648
15794TIP3    H268798   2.090   5.339   4.944  0.0599 -0.3282 -0.3199
15795TIP3   OH268799   4.677   4.262  15.582 -0.0510  0.6594  0.3098
15795TIP3    H168800   4.757   4.309  15.557  0.1747  0.2620  0.2885
15795TIP3    H268801   4.688   4.243  15.675  0.1156  0.1293  0.1797
15796TIP3   OH268802   3.425   4.615   6.194  0.0194 -0.0457  0.1596
15796TIP3    H168803   3.442   4.523   6.215  2.0174  0.4227  0.8428
15796TIP3    H268804   3.373   4.647   6.268 -0.6140 -0.5916 -0.0412
15797TIP3   OH268805   0.386   0.540   5.363 -0.0057 -0.1174 -0.5626
15797TIP3    H168806   0.394   0.549   5.458 -1.2906 -1.6464 -0.2609
15797TIP3    H268807   0.360   0.449   5.350 -3.3793  0.8819 -2.0686
15798TIP3   OH268808   5.120   5.898  14.184  0.0344 -0.4768 -0.6298
15798TIP3    H168809   5.058   5.843  14.233 -0.0961 -1.5233 -1.9026
15798TIP3    H268810   5.203   5.850  14.188  0.9018  1.0406  1.2784
15799TIP3   OH268811   3.419   1.007  14.768 -0.0409 -0.5427  0.6030
15799TIP3    H168812   3.370   1.020  14.849  0.4216  0.9570  0.6801
15799TIP3    H268813   3.402   1.087  14.717  0.5955 -0.9557 -0.2822
15800TIP3   OH268814   1.270   0.648   0.172 -1.0367 -0.3247 -0.5888
15800TIP3    H168815   1.331   0.582   0.202  0.0410  0.6837 -0.4952
15800TIP3    H268816   1.268   0.713   0.242  0.1442  1.1594 -1.8539
15801TIP3   OH268817   4.917   6.301   3.275  0.7410  0.1926 -0.1216
15801TIP3    H168818   4.984   6.287   3.342  1.1579  1.5149 -0.2436
15801TIP3    H268819   4.962   6.289   3.192  0.4644 -0.4082 -0.1918
15802TIP3   OH268820   5.111   6.701  15.586  0.2521  0.4050  0.1420
15802TIP3    H168821   5.029   6.716  15.633  1.1906  1.4392  1.5256
15802TIP3    H268822   5.139   6.788  15.558  1.2119  0.1537  0.2850
15803TIP3   OH268823   2.251   2.082  13.734  0.0946  0.2912  0.2123
15803TIP3    H168824   2.160   2.111  13.725  0.8223  2.0334 -2.9938
15803TIP3    H268825   2.288   2.139  13.801 -0.6884  0.9977  0.0657
15804TIP3   OH268826   5.952   4.813  14.151  0.2966 -0.1922 -0.2717
15804TIP3    H168827   5.992   4.847  14.231  0.1162  1.1914 -0.7527
15804TIP3    H268828   5.892   4.881  14.123  0.4054 -0.6312 -1.6297
15805TIP3   OH268829   0.659   4.520  13.352  0.3439  0.6873 -0.3386
15805TIP3    H168830   0.746   4.558  13.337  0.1865  0.3653 -2.3981
15805TIP3    H268831   0.598   4.586  13.319 -0.3581  1.5852  2.4843
15806TIP3   OH268832   3.610   4.092  10.925  0.2674  0.0878 -0.1129
15806TIP3    H168833   3.664   4.171  10.938  1.3292 -0.6519  0.1271
15806TIP3    H268834   3.606   4.051  11.011  0.2891 -0.4604 -0.3680
15807TIP3   OH268835   5.537   2.225   1.103 -0.1880  0.1274  0.0834
15807TIP3    H168836   5.591   2.292   1.060  2.2217 -2.3230 -0.9970
15807TIP3    H268837   5.487   2.273   1.169  2.4072  2.8021  0.2962
15808TIP3   OH268838   6.035   1.877   5.359 -1.0642  0.0029 -0.2867
15808TIP3    H168839   5.957   1.865   5.304 -0.2637 -0.1544 -1.4340
15808TIP3    H268840   6.096   1.927   5.304 -0.3963  0.2289  0.6290
15809TIP3   OH268841   4.489   3.129   2.509 -0.0402  0.1429 -0.3949
15809TIP3    H168842   4.485   3.078   2.428  1.5473  0.4315 -0.7004
15809TIP3    H268843   4.571   3.102   2.550 -1.9138 -1.8357  2.4332
15810TIP3   OH268844   5.934   1.780  11.074  0.0635  0.3549 -0.4847
15810TIP3    H168845   6.029   1.783  11.078  0.0459  1.3383 -0.6567
15810TIP3    H268846   5.906   1.774  11.165  0.3265 -2.3274 -0.4975
15811TIP3   OH268847   4.028   5.347  12.367 -0.6714  0.5848  0.1436
15811TIP3    H168848   4.053   5.282  12.432 -1.8575 -0.0327  0.0163
15811TIP3    H268849   4.087   5.332  12.294 -2.0498 -1.5809 -0.6117
15812TIP3   OH268850   6.250   1.990   1.552  0.2278  0.4126  0.1011
15812TIP3    H168851   6.204   1.914   1.514  0.7687  0.6322 -1.0406
15812TIP3    H268852   6.301   1.953   1.623 -0.0929 -0.1797  0.0378
15813TIP3   OH268853   0.269   2.578  16.723 -0.7132  0.0532 -0.5867
15813TIP3    H168854   0.302   2.568  16.812 -0.9534  2.2663 -0.1949
15813TIP3    H268855   0.293   2.496  16.679  0.6620 -0.5163  1.1066
15814TIP3   OH268856   6.076   6.660   6.294 -0.0291  0.2551  0.3816
15814TIP3    H168857   5.981   6.654   6.294 -0.0618  0.4776  1.5072
15814TIP3    H268858   6.099   6.671   6.387  1.0654  0.5144  0.0927
15815TIP3   OH268859   1.076   3.430   0.511  0.0307  0.2009 -0.1953
15815TIP3    H168860   1.016   3.504   0.500  1.3293  1.3066 -0.1545
15815TIP3    H268861   1.058   3.397   0.599  0.2385  1.2382  0.2528
15816TIP3   OH268862   2.145   5.294   5.305  0.5357  0.0216  0.3699
15816TIP3    H168863   2.228   5.255   5.280 -0.5678 -0.0432 -3.9590
15816TIP3    H268864   2.149   5.384   5.273 -1.2848 -0.2182 -0.6716
15817TIP3   OH268865   5.818   3.372   2.255 -0.3228 -0.4253 -0.9486
15817TIP3    H168866   5.755   3.437   2.286 -0.1428 -0.1193 -1.2239
15817TIP3    H268867   5.867   3.416   2.186  1.4340 -0.0344  0.4603
15818TIP3   OH268868   0.066   1.152   5.563 -0.5415 -0.2144  0.3285
15818TIP3    H168869  -0.010   1.209   5.556 -1.9954 -2.2508 -2.6342
15818TIP3    H268870   0.030   1.066   5.587  1.0919 -0.7821  0.9590
15819TIP3   OH268871   2.059   5.470   4.175  0.2022  0.2342 -0.4310
15819TIP3    H168872   2.091   5.531   4.241 -0.9735  1.3587 -0.8681
15819TIP3    H268873   2.138   5.442   4.128  0.9067  0.3298  0.6618
15820TIP3   OH268874   1.933   0.614   0.911 -0.1477  0.3730 -0.2754
15820TIP3    H168875   1.879   0.548   0.867  1.1668 -0.8671 -0.0809
15820TIP3    H268876   2.023   0.589   0.892  0.4285  0.9061  1.5219
15821TIP3   OH268877   3.255   6.257   3.979  0.2084 -0.6080  0.0317
15821TIP3    H168878   3.336   6.306   3.966 -0.2004  0.2613  0.6158
15821TIP3    H268879   3.241   6.257   4.073 -0.0438 -1.4734  0.0055
15822TIP3   OH268880   6.055   5.044   5.780 -0.1286 -0.1703 -0.0465
15822TIP3    H168881   6.070   5.130   5.741  0.2139  1.2405  2.8898
15822TIP3    H268882   5.960   5.034   5.780 -0.1208 -0.4331 -1.5787
15823TIP3   OH268883   2.665   1.455  16.564  0.1991 -0.0624 -0.6163
15823TIP3    H168884   2.669   1.484  16.655  1.3140 -1.0564 -0.3183
15823TIP3    H268885   2.574   1.466  16.539 -0.0285  0.6770  0.4617
15824TIP3   OH268886   3.146   4.232  14.049 -0.0325  0.5336 -0.1996
15824TIP3    H168887   3.160   4.161  14.111  0.8472  1.4955  0.7493
15824TIP3    H268888   3.114   4.189  13.970 -0.6269 -0.7829  0.7203
15825TIP3   OH268889   4.882   3.965   2.470  0.2100  0.8462  0.5136
15825TIP3    H168890   4.901   3.913   2.391 -1.4955  2.9765 -1.4420
15825TIP3    H268891   4.905   4.055   2.446  0.5268  1.4521  2.8219
15826TIP3   OH268892   0.981   1.532   6.657 -0.0458 -0.5096 -0.1649
15826TIP3    H168893   0.889   1.547   6.636 -0.0901 -1.7860 -0.9755
15826TIP3    H268894   1.028   1.547   6.575  0.7844  2.2782  0.7168
15827TIP3   OH268895   2.051   0.008  12.740 -0.0745  0.3811  0.6788
15827TIP3    H168896   1.985   0.036  12.803 -0.1335  0.9503  0.3656
15827TIP3    H268897   2.004   0.006  12.656 -0.6203 -2.5277  0.9443
15828TIP3   OH268898   5.903   2.315   5.595  0.6310  0.3855 -0.2125
15828TIP3    H168899   5.850   2.329   5.673  1.1613 -2.0803  0.6954
15828TIP3    H268900   5.839   2.294   5.527  0.2772 -0.1466  0.2684
15829TIP3   OH268901   4.300   1.427  15.827 -0.6863  0.1041 -0.5497
15829TIP3    H168902   4.294   1.332  15.815 -0.0367  0.2367 -2.1094
15829TIP3    H268903   4.214   1.452  15.863 -1.3044 -0.9115 -1.2651
15830TIP3   OH268904   1.586   6.690  11.574  0.3594 -0.2062  0.1511
15830TIP3    H168905   1.496   6.663  11.554  1.0607 -1.8447 -1.0174
15830TIP3    H268906   1.577   6.756  11.642 -1.6490 -1.5875  1.3241
15831TIP3   OH268907   0.106   0.436   3.727  0.1652 -0.0505  0.9779
15831TIP3    H168908   0.053   0.364   3.692 -0.6232  0.5576  0.8788
15831TIP3    H268909   0.071   0.450   3.815  0.0175  0.4983  0.8334
15832TIP3   OH268910   4.942   4.665   1.628  0.0875  0.4967  0.0772
15832TIP3    H168911   4.911   4.737   1.683 -0.8010 -0.3397  0.7094
15832TIP3    H268912   4.885   4.591   1.651 -0.6513  0.2472 -2.3567
15833TIP3   OH268913   1.480   4.125  14.743 -0.4491  0.0323 -0.0585
15833TIP3    H168914   1.459   4.154  14.654 -0.5082 -0.3897 -0.1827
15833TIP3    H268915   1.440   4.192  14.800  0.0097  0.5629 -0.3577
15834TIP3   OH268916   6.082   4.945   5.470 -0.4872  0.3294  0.0440
15834TIP3    H168917   6.004   4.998   5.452 -1.1668  0.4598  2.9432
15834TIP3    H268918   6.123   4.987   5.545  1.6758 -0.5419 -0.5696
15835TIP3   OH268919   3.521   6.765  16.466 -0.1751  0.0977 -0.4347
15835TIP3    H168920   3.572   6.844  16.448  0.1056  0.0785  0.2587
15835TIP3    H268921   3.451   6.767  16.401 -0.6780  1.3706  0.1191
15836TIP3   OH268922   4.042   2.715  12.056 -0.1644 -0.2114 -0.3354
15836TIP3    H168923   4.070   2.646  11.996 -0.3959 -1.1855  0.6482
15836TIP3    H268924   3.948   2.722  12.043 -0.1436 -0.0786 -0.4232
15837TIP3   OH268925   0.942   5.477   6.067  0.2465  0.1270  0.6791
15837TIP3    H168926   0.963   5.416   5.996  1.0522 -0.1755  1.1633
15837TIP3    H268927   1.026   5.516   6.091 -0.0364  0.3233  1.3803
15838TIP3   OH268928   3.857   0.429   1.282  0.2672 -0.4585 -0.0647
15838TIP3    H168929   3.869   0.350   1.229  0.1476  0.0526 -0.8645
15838TIP3    H268930   3.913   0.415   1.358  0.1460 -1.3703 -0.1351
15839TIP3   OH268931   1.259   1.335   2.763  0.0065  0.0100 -0.3028
15839TIP3    H168932   1.286   1.311   2.674 -0.7576 -1.0671 -0.2683
15839TIP3    H268933   1.291   1.425   2.774  1.8381 -0.5194 -0.9289
15840TIP3   OH268934   6.569   1.701   2.790  0.0317 -0.5489 -0.0755
15840TIP3    H168935   6.658   1.692   2.824 -0.3471  0.4882  1.2635
15840TIP3    H268936   6.580   1.716   2.696  1.3522  0.8840  0.2750
15841TIP3   OH268937   3.999   1.525   2.521 -0.0977  0.4777  0.1222
15841TIP3    H168938   4.074   1.486   2.565 -0.2603  1.3329  1.2095
15841TIP3    H268939   3.935   1.454   2.516 -0.1108  0.3707  1.3942
15842TIP3   OH268940   2.627   2.375  13.171 -0.1426 -0.0588  0.0243
15842TIP3    H168941   2.639   2.468  13.154 -0.0287 -0.0885 -0.0560
15842TIP3    H268942   2.620   2.368  13.266 -2.0792  0.2735 -0.0433
15843TIP3   OH268943   1.310   6.532  17.067  0.1034  0.3340 -0.1039
15843TIP3    H168944   1.293   6.526  17.161  0.1645 -1.5435 -0.1803
15843TIP3    H268945   1.225   6.553  17.028 -0.1151  0.1780  0.2924
15844TIP3   OH268946   1.903   0.554  15.104  0.4415 -0.3911 -0.6334
15844TIP3    H168947   1.829   0.599  15.146  1.7625  1.7465 -0.4558
15844TIP3    H268948   1.960   0.528  15.177  0.7583 -0.3763 -0.8727
15845TIP3   OH268949   3.874   6.335   3.254 -0.3329 -0.1055  0.6038
15845TIP3    H168950   3.848   6.414   3.301  0.0315  0.0102  0.6179
15845TIP3    H268951   3.874   6.266   3.321 -1.6214 -0.3304  0.3882
15846TIP3   OH268952   4.652   3.347  14.938  0.1495  0.1729 -0.1009
15846TIP3    H168953   4.662   3.439  14.960 -1.3667  0.2025  0.5670
15846TIP3    H268954   4.687   3.339  14.849  0.8979  1.2378  0.0784
15847TIP3   OH268955   1.929   0.732  12.796  0.1863  0.2762 -0.0696
15847TIP3    H168956   1.845   0.704  12.759  1.2556  1.1475 -3.4886
15847TIP3    H268957   1.972   0.779  12.725  2.9372  1.2698  2.0782
15848TIP3   OH268958   3.172   1.940  16.394  0.2340  0.6464  0.2633
15848TIP3    H168959   3.266   1.961  16.391 -0.0855  2.2599  0.3384
15848TIP3    H268960   3.134   2.009  16.449 -0.7803 -0.9654  1.6698
15849TIP3   OH268961   1.760   6.437  12.746 -0.1751  0.0354  0.5290
15849TIP3    H168962   1.732   6.510  12.689  0.9724  1.9494  2.2791
15849TIP3    H268963   1.848   6.416  12.716 -0.1105  0.0677  0.6989
15850TIP3   OH268964   2.367   3.832  14.503 -0.2006 -0.7396 -0.2238
15850TIP3    H168965   2.422   3.760  14.532 -1.8804 -1.6301  0.9094
15850TIP3    H268966   2.374   3.830  14.407  1.7146 -0.7792 -0.1240
15851TIP3   OH268967   4.609   5.393  13.777 -0.1948  0.0427 -0.0461
15851TIP3    H168968   4.571   5.353  13.699 -2.1233  2.1267 -0.2844
15851TIP3    H268969   4.612   5.323  13.841 -3.1001 -0.6519 -0.5471
15852TIP3   OH268970   5.036   4.140   4.296 -0.3444  0.0727 -0.0858
15852TIP3    H168971   5.081   4.091   4.227  0.6255  2.6980 -1.4590
15852TIP3    H268972   4.953   4.166   4.257 -0.1889  0.7961  0.0448
15853TIP3   OH268973   6.427   1.174   3.041 -0.4238 -0.3973  0.1898
15853TIP3    H168974   6.512   1.131   3.051 -0.8169 -1.5348 -0.9448
15853TIP3    H268975   6.446   1.267   3.040  0.7005 -0.6117  0.8568
15854TIP3   OH268976   1.708   0.622  12.669 -0.3747 -0.2060  0.3867
15854TIP3    H168977   1.713   0.583  12.582  0.9046 -0.5825  0.6120
15854TIP3    H268978   1.653   0.562  12.720 -0.9208 -0.1103 -0.0815
15855TIP3   OH268979   1.237   5.023   5.835 -0.3577  0.2486 -0.0434
15855TIP3    H168980   1.254   5.073   5.915 -1.1794  1.2004 -0.4488
15855TIP3    H268981   1.268   5.079   5.764 -0.2407 -0.3136 -0.4486
15856TIP3   OH268982   6.764   0.005   0.595  0.0673  0.5827  0.3845
15856TIP3    H168983   6.694   0.059   0.558  1.0113  1.1494 -0.6138
15856TIP3    H268984   6.845   0.051   0.574  0.9035 -1.1199 -0.4125
15857TIP3   OH268985   0.851   4.615  17.234  0.4444  0.2677  0.1765
15857TIP3    H168986   0.789   4.561  17.185 -0.1728 -0.0520  1.2719
15857TIP3    H268987   0.931   4.561  17.238  0.0773 -0.2520  0.6225
15858TIP3   OH268988   3.531   4.071   1.238 -0.0448  0.3219 -0.3355
15858TIP3    H168989   3.457   4.011   1.243  0.0962  0.1863  0.1360
15858TIP3    H268990   3.597   4.032   1.295 -0.2291  1.3114  0.5843
15859TIP3   OH268991   2.006   1.021  17.061 -0.0722 -0.2156 -0.0116
15859TIP3    H168992   1.986   1.100  17.113 -1.8337 -0.1516 -0.7221
15859TIP3    H268993   1.922   0.976  17.052  0.5989 -1.3336 -1.0131
15860TIP3   OH268994   0.664   3.434  12.785 -0.8680 -0.4148 -0.1264
15860TIP3    H168995   0.637   3.506  12.728  0.3411  0.3313  0.2112
15860TIP3    H268996   0.711   3.476  12.856 -0.5150 -1.5087  0.3054
15861TIP3   OH268997   1.909   1.413  12.959  0.6284 -0.2298 -0.7941
15861TIP3    H168998   1.872   1.425  12.871  1.8985 -1.3319 -1.5190
15861TIP3    H268999   1.835   1.383  13.012  0.0067 -0.2602 -1.6588
15862TIP3   OH269000   0.648   5.960  13.137  0.2255  0.0745 -0.3740
15862TIP3    H169001   0.616   6.034  13.087 -1.9666 -0.7877 -0.3474
15862TIP3    H269002   0.639   5.885  13.079  2.0834 -0.2752 -0.2842
15863TIP3   OH269003   4.571   3.484   5.930 -0.0287 -0.2534  0.8142
15863TIP3    H169004   4.584   3.565   5.880  0.5418 -0.4009  0.7155
15863TIP3    H269005   4.529   3.512   6.011 -3.4619 -0.2758 -0.7605
15864TIP3   OH269006   4.022   6.125  16.887  0.3418 -0.6161 -0.4499
15864TIP3    H169007   3.994   6.105  16.976  0.9760  0.2226 -0.0393
15864TIP3    H269008   4.035   6.220  16.888  1.9939 -0.8074 -0.9424
15865TIP3   OH269009   2.783   1.711   1.440  0.1518  0.5546  0.0727
15865TIP3    H169010   2.738   1.766   1.376  1.0329 -0.6516 -1.6326
15865TIP3    H269011   2.768   1.622   1.411  1.5316  0.0182  0.9018
15866TIP3   OH269012   2.303   5.004  13.533  0.1538 -0.5097  0.0040
15866TIP3    H169013   2.257   4.933  13.489 -0.1815 -0.7078  0.6592
15866TIP3    H269014   2.285   4.991  13.626 -3.8910  3.0498  0.0387
15867TIP3   OH269015   0.781   6.772  10.948 -0.1517 -0.3240  0.4445
15867TIP3    H169016   0.823   6.686  10.944  0.1236 -0.2005  0.6232
15867TIP3    H269017   0.765   6.786  11.041 -1.0826 -0.6011  0.3370
15868TIP3   OH269018   2.719   3.570  15.147  0.1067 -0.2591  0.3980
15868TIP3    H169019   2.784   3.640  15.161  2.8758 -2.6524  0.5801
15868TIP3    H269020   2.721   3.519  15.228  0.1487 -1.9820 -0.6330
15869TIP3   OH269021   0.391   5.792   4.635 -0.6736 -0.2049  0.1848
15869TIP3    H169022   0.413   5.736   4.560 -2.5087 -0.2151 -0.3968
15869TIP3    H269023   0.295   5.790   4.639 -0.6340  0.0766  2.3438
15870TIP3   OH269024   5.784   5.339  12.749  0.4246 -0.0244  0.4017
15870TIP3    H169025   5.770   5.421  12.701 -0.5323 -0.9970 -1.0677
15870TIP3    H269026   5.834   5.365  12.826 -1.0922  2.1653  0.7429
15871TIP3   OH269027   5.118   0.831   3.363  0.0443  0.5109  0.4541
15871TIP3    H169028   5.099   0.888   3.289 -1.7290  1.6293  1.7007
15871TIP3    H269029   5.050   0.851   3.427  2.1378  0.4326  2.8600
15872TIP3   OH269030   3.989   5.823  15.537  0.1947  0.2217 -0.0958
15872TIP3    H169031   3.913   5.859  15.493  0.4038  0.9521  0.1220
15872TIP3    H269032   4.003   5.738  15.497  0.7789  1.1303 -1.9118
15873TIP3   OH269033   4.063   4.010  15.828  0.1903  1.4087  0.5519
15873TIP3    H169034   4.009   4.019  15.749  0.1406  0.6846  0.4964
15873TIP3    H269035   4.112   3.929  15.814 -0.3162  0.9146  1.5510
15874TIP3   OH269036   2.164   2.427   3.322  0.4768 -0.7262 -0.5650
15874TIP3    H169037   2.258   2.437   3.342  0.3703  0.2938 -0.5156
15874TIP3    H269038   2.120   2.466   3.398  0.0425  0.4221 -1.3736
15875TIP3   OH269039   1.444   4.148  15.737  0.1208  0.6575 -0.0752
15875TIP3    H169040   1.525   4.197  15.721  0.5839 -0.2551 -0.6024
15875TIP3    H269041   1.465   4.058  15.711 -0.9756  0.3539  0.0540
15876TIP3   OH269042   3.568   5.800  15.679 -0.6377 -0.3515  0.0889
15876TIP3    H169043   3.526   5.773  15.760  0.6333  0.5085  1.0744
15876TIP3    H269044   3.605   5.719  15.643 -0.6437 -0.6392  0.7127
15877TIP3   OH269045   2.014   6.410  12.150  0.6044 -0.0186  0.1016
15877TIP3    H169046   1.937   6.451  12.113  0.1791  0.1289  1.1277
15877TIP3    H269047   2.083   6.426  12.086  0.2348  1.4983  0.0514
15878TIP3   OH269048   5.769   3.748  15.816 -0.9784 -0.4057  0.0221
15878TIP3    H169049   5.723   3.720  15.895 -0.3688  1.0934  0.9441
15878TIP3    H269050   5.842   3.687  15.808 -0.3574  0.1283  1.3212
15879TIP3   OH269051   2.920   6.639   1.931 -0.1421 -0.4203 -0.4161
15879TIP3    H169052   2.955   6.728   1.929 -0.4675 -0.3025 -1.7409
15879TIP3    H269053   2.979   6.592   1.990 -0.0425  0.6877  0.4126
15880TIP3   OH269054   1.854   5.953   2.149 -0.4728 -0.1823  0.5619
15880TIP3    H169055   1.858   6.030   2.205 -1.4081  0.2939  0.0078
15880TIP3    H269056   1.763   5.923   2.155 -0.3955 -0.5808 -0.0753
15881TIP3   OH269057   0.985   5.100  12.155  0.1866  0.6285 -0.2077
15881TIP3    H169058   0.890   5.099  12.168  0.4651 -1.0002  2.4862
15881TIP3    H269059   1.007   5.192  12.145 -1.8188  0.9349 -2.7565
15882TIP3   OH269060   0.574   3.773  11.187  0.2814  0.6618  0.0702
15882TIP3    H169061   0.577   3.869  11.179 -2.2197  0.7713 -0.4114
15882TIP3    H269062   0.484   3.751  11.166  0.8246 -1.8392  0.1411
15883TIP3   OH269063   2.783   0.138  13.056 -0.3827  0.0760 -0.1854
15883TIP3    H169064   2.793   0.165  12.965 -0.6801  1.8663  0.2702
15883TIP3    H269065   2.700   0.089  13.058 -0.4840  0.2184 -0.8385
15884TIP3   OH269066   4.333   5.893  14.396 -0.0011  0.5661  0.3257
15884TIP3    H169067   4.428   5.881  14.408  0.4506  2.9849 -0.2047
15884TIP3    H269068   4.323   5.988  14.388 -2.6644  0.4900  1.7625
15885TIP3   OH269069   3.292   3.743   5.448 -0.0953  0.0910  0.3041
15885TIP3    H169070   3.212   3.692   5.458  0.7173 -1.0457  1.1891
15885TIP3    H269071   3.291   3.805   5.521  0.2846 -0.5734  0.8863
15886TIP3   OH269072   3.887   2.702   1.817 -0.0675  0.4865  0.7765
15886TIP3    H169073   3.879   2.691   1.912 -1.7292 -0.6194  0.5424
15886TIP3    H269074   3.921   2.791   1.806  0.5828  0.4727  2.4021
15887TIP3   OH269075   1.731   6.408   0.932  0.2415  0.7141  0.4502
15887TIP3    H169076   1.695   6.494   0.953 -0.9320  0.3150  0.1413
15887TIP3    H269077   1.683   6.379   0.855  0.6178 -0.2197  0.5466
15888TIP3   OH269078   3.342   3.354   2.039  0.7667 -0.2705 -0.6949
15888TIP3    H169079   3.263   3.304   2.058  0.7296  0.1424  0.3077
15888TIP3    H269080   3.396   3.294   1.988  0.3198 -0.9904 -0.3505
15889TIP3   OH269081   0.059   3.218   4.888 -0.1480 -0.6112 -0.3385
15889TIP3    H169082   0.083   3.303   4.926 -1.1338 -0.5840  0.2746
15889TIP3    H269083  -0.011   3.186   4.945  0.4973 -2.0367 -0.3127
15890TIP3   OH269084   5.832   6.240   4.982  0.0963 -0.1557  0.1074
15890TIP3    H169085   5.868   6.154   5.003  2.0014  1.1898  3.0106
15890TIP3    H269086   5.906   6.290   4.948 -1.0935  0.2921 -2.0410
15891TIP3   OH269087   4.369   3.222  15.001 -0.1206  0.1902  0.3177
15891TIP3    H169088   4.351   3.315  15.018  0.4044  0.2874  0.3459
15891TIP3    H269089   4.356   3.180  15.086 -0.0034  0.2920  0.3871
15892TIP3   OH269090   5.485   0.091   4.937  0.0295 -0.0207 -0.1210
15892TIP3    H169091   5.394   0.102   4.909  0.4734  0.0639 -1.6675
15892TIP3    H269092   5.500   0.161   5.000 -1.3024 -0.7540  1.0633
15893TIP3   OH269093   4.694   3.575   4.467  0.1615 -0.0577  0.5473
15893TIP3    H169094   4.711   3.500   4.411  1.5750 -0.2068  1.1148
15893TIP3    H269095   4.599   3.578   4.477 -0.2675  0.7204 -2.7925
15894TIP3   OH269096   0.397   2.442  12.584  0.0116  0.3494 -0.0185
15894TIP3    H169097   0.384   2.347  12.591  1.0967  0.3030  2.2385
15894TIP3    H269098   0.474   2.452  12.529  1.4669 -0.2638  1.8067
15895TIP3   OH269099   4.338   5.084  11.766  0.3612  0.2500  0.5707
15895TIP3    H169100   4.378   5.138  11.698  0.0325 -0.1764  0.0364
15895TIP3    H269101   4.246   5.077  11.741  0.1848  0.2955  1.1937
15896TIP3   OH269102   4.161   6.275  11.524 -0.0886 -0.0853  0.7003
15896TIP3    H169103   4.074   6.283  11.484  1.1586 -1.1376 -2.4921
15896TIP3    H269104   4.159   6.189  11.567 -0.5143 -0.2838  0.2939
15897TIP3   OH269105   1.165   6.672  13.650 -0.0055  0.6853 -0.0425
15897TIP3    H169106   1.111   6.621  13.589 -1.7252  2.5353 -0.1551
15897TIP3    H269107   1.135   6.645  13.737 -2.2308  2.6749 -0.0933
15898TIP3   OH269108   1.289   0.588  14.760  0.1936 -0.6742 -0.5421
15898TIP3    H169109   1.383   0.607  14.757  0.1608 -0.5580 -0.8410
15898TIP3    H269110   1.272   0.537  14.680 -0.6710  2.3942 -2.4928
15899TIP3   OH269111   2.382   3.340  12.005 -0.6346  0.7403 -0.3257
15899TIP3    H169112   2.382   3.366  12.097  0.2014  1.2655 -0.4654
15899TIP3    H269113   2.309   3.389  11.967 -0.3071  1.3727 -0.1639
15900TIP3   OH269114   0.752   3.348  15.774  0.8027 -0.1977 -0.3877
15900TIP3    H169115   0.739   3.268  15.824 -1.1825  0.8381  0.8916
15900TIP3    H269116   0.714   3.330  15.688 -0.0064 -0.5309  0.0284
15901TIP3   OH269117   6.224   3.544  14.586 -0.3414  0.0970 -0.2768
15901TIP3    H169118   6.202   3.464  14.539  0.8308  0.8313 -2.1979
15901TIP3    H269119   6.166   3.611  14.550 -0.4624  0.3731  0.4151
15902TIP3   OH269120   5.732   2.384   0.423  0.3136  0.3502 -0.2613
15902TIP3    H169121   5.640   2.381   0.398  0.2896  0.0826 -0.1409
15902TIP3    H269122   5.749   2.300   0.464  0.8016  0.0982 -0.9514
15903TIP3   OH269123   4.204   3.966  12.111 -0.7494 -0.0556  0.4319
15903TIP3    H169124   4.275   3.903  12.121 -1.9117 -1.4473  0.1720
15903TIP3    H269125   4.131   3.916  12.075 -1.4178  1.6476 -0.7526
15904TIP3   OH269126   2.185   0.089   2.720 -0.0642  0.0402  0.8767
15904TIP3    H169127   2.171   0.142   2.642  0.2437  1.7192  1.9255
15904TIP3    H269128   2.124   0.015   2.710 -0.1549  0.3214 -0.8343
15905TIP3   OH269129   4.303   4.533   2.586  0.2457  0.1775  0.1782
15905TIP3    H169130   4.313   4.479   2.507  1.3145 -1.8657  1.6003
15905TIP3    H269131   4.393   4.556   2.610 -0.1597  2.0701 -0.0053
15906TIP3   OH269132   6.414   0.096  11.785  0.1546  0.4819  0.0973
15906TIP3    H169133   6.426   0.101  11.690 -0.5897  1.1795  0.0230
15906TIP3    H269134   6.500   0.116  11.822  0.4532  0.1830 -0.4327
15907TIP3   OH269135   1.271   0.275   0.236  0.2280  0.3988 -0.0874
15907TIP3    H169136   1.239   0.242   0.152  0.5063  0.5327 -0.2476
15907TIP3    H269137   1.283   0.197   0.290 -0.9006  0.3886  0.1686
15908TIP3   OH269138   4.803   0.278   4.538 -0.4262  0.0760 -0.6107
15908TIP3    H169139   4.800   0.195   4.490 -0.9051  0.4026 -1.1677
15908TIP3    H269140   4.786   0.344   4.471 -2.3227  0.4693  0.2083
15909TIP3   OH269141   3.380   3.715   4.975 -0.1341  0.2352  0.3675
15909TIP3    H169142   3.367   3.774   5.050  0.1782  3.1812 -1.7213
15909TIP3    H269143   3.363   3.628   5.010 -0.6566  1.5169  3.6854
15910TIP3   OH269144   2.245   2.846  13.123 -0.1018 -0.0040  0.4229
15910TIP3    H169145   2.210   2.916  13.178 -0.4142 -0.6763  1.0974
15910TIP3    H269146   2.241   2.768  13.178 -0.6948 -0.7602 -0.6463
15911TIP3   OH269147   3.465   2.510   2.956  0.4959  0.0336  0.1907
15911TIP3    H169148   3.405   2.557   3.014  0.3845 -0.7768  0.7598
15911TIP3    H269149   3.450   2.548   2.870 -2.0683 -1.2371 -0.0117
15912TIP3   OH269150   1.910   5.284  12.762  0.5182 -0.1269  0.3469
15912TIP3    H169151   1.876   5.197  12.780 -0.3542  0.4406  1.6078
15912TIP3    H269152   1.999   5.269  12.731 -0.3794 -1.5756 -1.7233
15913TIP3   OH269153   4.855   3.861  11.691  0.3459 -0.3169 -0.2077
15913TIP3    H169154   4.927   3.924  11.691 -0.3572  0.5959  2.2843
15913TIP3    H269155   4.780   3.911  11.659  0.0660 -0.2296  0.5670
15914TIP3   OH269156   2.667   6.317   4.550  0.2320 -0.1702 -0.0290
15914TIP3    H169157   2.703   6.404   4.533 -1.0090  0.1872 -1.0177
15914TIP3    H269158   2.578   6.321   4.514 -0.1358 -1.5907  0.6538
15915TIP3   OH269159   4.049   1.539  14.600  0.0413  0.2112 -0.1979
15915TIP3    H169160   4.076   1.463  14.549 -0.4583  0.6626 -1.1716
15915TIP3    H269161   3.954   1.544  14.587  0.1518  1.3829 -0.7111
15916TIP3   OH269162   2.205   3.496  12.987  0.0690 -0.2188  0.0206
15916TIP3    H169163   2.186   3.424  12.927  1.3663 -0.4037 -0.1973
15916TIP3    H269164   2.182   3.575  12.938  0.3894 -0.4054 -0.4356
15917TIP3   OH269165   5.116   5.224  11.372 -0.1135 -0.4577 -0.0184
15917TIP3    H169166   5.127   5.165  11.447 -2.6769 -1.0146  0.0027
15917TIP3    H269167   5.184   5.196  11.310  0.0927 -2.0367  0.8640
15918TIP3   OH269168   0.589   6.482  11.059 -0.0019 -0.2062  0.4612
15918TIP3    H169169   0.510   6.443  11.097 -0.7092  1.9097  1.2943
15918TIP3    H269170   0.556   6.545  10.995  1.0371  0.4622  0.5759
15919TIP3   OH269171   3.985   6.042   2.570  0.1069  0.1933  0.4002
15919TIP3    H169172   3.985   6.107   2.639 -0.2850  1.4572 -0.7464
15919TIP3    H269173   3.964   6.091   2.490 -0.1477 -1.3210 -0.5136
15920TIP3   OH269174   3.388   0.067   3.386  0.0771 -0.2502 -0.5777
15920TIP3    H169175   3.428  -0.019   3.398  1.4159  0.3985 -0.0750
15920TIP3    H269176   3.460   0.121   3.351  0.3059  1.4855  2.2680
15921TIP3   OH269177   1.354   2.622  14.456  0.0996  0.1999 -0.1474
15921TIP3    H169178   1.290   2.550  14.459  0.0789  0.0156 -2.7511
15921TIP3    H269179   1.301   2.701  14.448  0.1650  0.3747  0.9798
15922TIP3   OH269180   6.164   3.653   5.102  0.2692  0.0067  0.1434
15922TIP3    H169181   6.207   3.718   5.158  1.7488 -0.5389 -0.3327
15922TIP3    H269182   6.226   3.580   5.097 -0.7831 -0.8823 -0.4376
15923TIP3   OH269183   3.973   4.185   4.928  0.5995  0.8306  0.1031
15923TIP3    H169184   3.915   4.251   4.889  1.0233  0.5853 -0.9889
15923TIP3    H269185   4.038   4.168   4.860  0.6552 -0.5110  0.4670
15924TIP3   OH269186   2.224   2.711  14.743 -0.1440 -0.6013  0.3694
15924TIP3    H169187   2.289   2.645  14.717  1.8046  0.7248  1.5900
15924TIP3    H269188   2.229   2.778  14.675 -0.2783 -0.5045  0.4543
15925TIP3   OH269189   6.144   3.526  13.867  0.3590  0.3407  0.0108
15925TIP3    H169190   6.185   3.445  13.897  3.2804  1.0425 -1.6338
15925TIP3    H269191   6.135   3.579  13.946  0.8775 -0.6254  0.7369
15926TIP3   OH269192   6.447   0.652  15.634  1.2280 -0.4158  0.2253
15926TIP3    H169193   6.425   0.565  15.669  0.1985  0.0611  0.8198
15926TIP3    H269194   6.381   0.668  15.567  1.6464 -0.2486 -0.1500
15927TIP3   OH269195   1.306   6.078  17.291  0.9456  0.1802 -0.1625
15927TIP3    H169196   1.253   6.052  17.214  0.7249 -1.4045  0.4736
15927TIP3    H269197   1.368   6.006  17.302  1.0968  0.4797  1.0419
15928TIP3   OH269198   1.718   3.783   3.606  0.6241  0.6890  0.0823
15928TIP3    H169199   1.721   3.863   3.659  1.2213  0.5500  0.2586
15928TIP3    H269200   1.794   3.733   3.633 -0.0228 -0.1859  0.3494
15929TIP3   OH269201   5.482   4.774  17.011 -0.0108  0.4196  0.3777
15929TIP3    H169202   5.515   4.863  17.026  0.4759  0.3923 -0.4467
15929TIP3    H269203   5.550   4.717  17.046  0.8751  0.3637 -1.3120
15930TIP3   OH269204   1.959   5.843  12.427 -0.3213 -0.2540 -0.3126
15930TIP3    H169205   1.926   5.930  12.403  0.3551 -0.1900 -1.0534
15930TIP3    H269206   1.881   5.788  12.430 -0.5782 -0.0063 -1.6219
15931TIP3   OH269207   0.941   4.949  11.537 -0.2425  0.1793 -0.4409
15931TIP3    H169208   0.863   5.002  11.553 -1.1717 -1.0829 -0.6486
15931TIP3    H269209   0.908   4.872  11.489  1.2262 -0.0700 -1.0938
15932TIP3   OH269210   3.791   6.202   4.777  0.1142  0.0051  0.3105
15932TIP3    H169211   3.728   6.254   4.726  0.5045  0.9361  0.7566
15932TIP3    H269212   3.846   6.160   4.711 -0.7637 -0.5827 -0.0804
15933TIP3   OH269213   3.829   1.310   4.063  0.6655  0.0216  0.5316
15933TIP3    H169214   3.742   1.292   4.029  1.0402 -0.0374 -0.4195
15933TIP3    H269215   3.880   1.232   4.042  1.6093  1.0579 -1.2581
15934TIP3   OH269216   4.534   3.983  15.141  0.5212  0.1180  0.3874
15934TIP3    H169217   4.608   3.986  15.080 -0.3380 -0.5836 -0.7309
15934TIP3    H269218   4.551   4.054  15.203  2.0523  0.0605  0.0845
15935TIP3   OH269219   1.645   2.622  13.914  0.3273  0.1810 -0.4326
15935TIP3    H169220   1.559   2.658  13.893 -0.5777 -1.5810  0.0686
15935TIP3    H269221   1.643   2.607  14.009  1.0216 -0.2771 -0.4784
15936TIP3   OH269222   5.547   2.609  16.907  0.4292  0.0961 -0.5824
15936TIP3    H169223   5.582   2.696  16.925  0.1865  0.4542 -1.7741
15936TIP3    H269224   5.540   2.604  16.812 -0.2102 -0.9723 -0.5064
15937TIP3   OH269225   6.422   3.244  16.980  0.0161 -0.5598 -0.0481
15937TIP3    H169226   6.423   3.238  17.076  1.3123 -0.9170 -0.0664
15937TIP3    H269227   6.348   3.189  16.954 -1.6684  1.1790  0.8060
15938TIP3   OH269228   0.885   4.966   5.196  0.2276  0.0379  0.2888
15938TIP3    H169229   0.881   4.894   5.132  0.3717  1.8995 -1.9657
15938TIP3    H269230   0.793   4.981   5.219 -0.0302  0.5133 -0.9413
15939TIP3   OH269231   4.361   4.725   2.970 -0.0815  0.6884  0.3989
15939TIP3    H169232   4.407   4.676   3.038 -0.9514  0.4903  0.8586
15939TIP3    H269233   4.269   4.696   2.978 -0.7319  2.7712  1.0392
15940TIP3   OH269234   1.045   1.751  15.884  0.1885 -0.1475  0.2535
15940TIP3    H169235   0.990   1.816  15.928  0.6920 -0.2468  1.0609
15940TIP3    H269236   1.134   1.787  15.892  0.7383 -1.8225  2.4136
15941TIP3   OH269237   0.122   6.546  15.081 -0.2644 -0.7293 -0.1344
15941TIP3    H169238   0.081   6.518  15.163  0.0361  1.2789  0.7697
15941TIP3    H269239   0.214   6.558  15.103  0.2086 -2.0300 -1.3008
15942TIP3   OH269240   0.680   4.021   6.596 -0.5471 -0.2562  0.1982
15942TIP3    H169241   0.645   4.077   6.527  0.0328 -0.2461 -0.0927
15942TIP3    H269242   0.604   3.998   6.650 -1.0974 -0.6927 -0.7479
15943TIP3   OH269243   5.156   0.600   6.505  0.2918  0.1706  0.3502
15943TIP3    H169244   5.206   0.675   6.472  2.4585  0.2245  3.2557
15943TIP3    H269245   5.082   0.639   6.552 -0.3443  0.2951 -0.7344
15944TIP3   OH269246   3.210   1.493   5.051  0.3216  0.0899 -0.6353
15944TIP3    H169247   3.292   1.452   5.022  0.1490 -0.0501 -0.9422
15944TIP3    H269248   3.209   1.480   5.145 -0.1859 -1.5134 -0.8192
15945TIP3   OH269249   0.601   3.590   4.395  0.5606  0.2381  0.3171
15945TIP3    H169250   0.543   3.612   4.468  0.8210 -0.1282  0.6402
15945TIP3    H269251   0.677   3.647   4.407  0.6133  0.1619  0.3468
15946TIP3   OH269252   5.108   5.449   0.096  0.1782 -0.4503 -0.4847
15946TIP3    H169253   5.149   5.429   0.180 -0.6860 -0.6042 -0.0885
15946TIP3    H269254   5.022   5.485   0.119 -0.8940 -2.3307 -1.3356
15947TIP3   OH269255   3.090   5.284  15.877 -0.3335 -0.3692 -0.0280
15947TIP3    H169256   3.124   5.275  15.966  0.5380  0.3464 -0.2791
15947TIP3    H269257   2.997   5.261  15.885  0.0255 -1.6598  0.7979
15948TIP3   OH269258   5.954   4.893   1.743 -0.0007 -0.2417 -0.0641
15948TIP3    H169259   5.879   4.835   1.730  0.5259 -1.1451  0.7807
15948TIP3    H269260   6.023   4.857   1.687 -0.0285  0.2883 -0.4520
15949TIP3   OH269261   1.175   3.761   2.395 -0.2677  0.2767 -0.2374
15949TIP3    H169262   1.199   3.799   2.479 -1.6939 -1.1103  0.8707
15949TIP3    H269263   1.175   3.834   2.333  1.0066  1.2823  0.9115
15950TIP3   OH269264   4.937   2.156   2.485 -0.5286 -0.0450  0.1426
15950TIP3    H169265   4.876   2.082   2.479 -0.2597 -0.6616  3.2562
15950TIP3    H269266   4.881   2.231   2.508 -0.5971  0.4126 -1.4161
15951TIP3   OH269267   3.599   0.954   3.062 -0.5610  0.3579  0.1104
15951TIP3    H169268   3.685   0.911   3.064 -0.1659  1.1274  0.1973
15951TIP3    H269269   3.536   0.883   3.067  0.0776 -0.2109  0.1849
15952TIP3   OH269270   2.310   0.362  11.477  0.0131  0.9324  0.5828
15952TIP3    H169271   2.327   0.273  11.508  0.1344  0.1585 -1.5235
15952TIP3    H269272   2.236   0.392  11.529 -1.8121 -1.4433 -0.4694
15953TIP3   OH269273   3.613   4.070  15.025  0.4726  0.1706 -0.3571
15953TIP3    H169274   3.699   4.106  15.049  0.7152  1.0789 -2.3823
15953TIP3    H269275   3.553   4.144  15.033 -0.0159 -0.2943  0.3908
15954TIP3   OH269276   4.692   5.979  16.404  0.2940  0.2630 -0.3894
15954TIP3    H169277   4.761   6.021  16.455  1.3250 -2.1007  0.3052
15954TIP3    H269278   4.722   5.985  16.313  0.4891  0.8909 -0.2835
15955TIP3   OH269279   6.606   4.860   4.576  0.2002  0.3017  0.2303
15955TIP3    H169280   6.624   4.779   4.528  0.5876  0.5270 -0.0069
15955TIP3    H269281   6.661   4.855   4.654 -2.8156 -1.6256  2.4568
15956TIP3   OH269282   5.403   6.739  14.513  0.8149  0.2666  0.1608
15956TIP3    H169283   5.419   6.646  14.526  0.4542  0.1641 -0.0877
15956TIP3    H269284   5.308   6.745  14.503  0.7836  0.7307  0.7080
15957TIP3   OH269285   0.150   0.627  11.601 -0.2751 -0.0777 -0.0003
15957TIP3    H169286   0.124   0.553  11.546  0.5262  1.1621 -2.1995
15957TIP3    H269287   0.231   0.658  11.561  0.6995  0.5548  2.3048
15958TIP3   OH269288   6.250   1.672   1.032  0.4230  0.0665  0.0416
15958TIP3    H169289   6.198   1.713   1.101  0.2681  1.4167 -0.8272
15958TIP3    H269290   6.193   1.673   0.956  1.9344  2.4610 -1.2071
15959TIP3   OH269291   4.079   4.641  12.224  0.1067 -0.3022  0.2475
15959TIP3    H169292   4.089   4.716  12.165  0.0093 -1.2946 -1.0857
15959TIP3    H269293   4.039   4.678  12.303  1.0362  1.2202  0.0458
15960TIP3   OH269294   0.395   3.217   0.715  0.2835 -0.4482 -0.3031
15960TIP3    H169295   0.457   3.173   0.773 -1.3493 -0.8040  1.2744
15960TIP3    H269296   0.345   3.275   0.772 -1.6401 -1.0667 -1.2507
15961TIP3   OH269297   4.948   1.376  13.544 -0.7266 -0.3771 -0.3077
15961TIP3    H169298   5.035   1.390  13.508 -0.4295  1.6389  1.0212
15961TIP3    H269299   4.925   1.287  13.518  2.2795 -1.4721  0.4335
15962TIP3   OH269300   5.541   4.931   3.491  0.1249 -0.0598  0.0885
15962TIP3    H169301   5.589   5.010   3.468 -0.8884  0.4474 -0.3701
15962TIP3    H269302   5.594   4.859   3.457  0.4347  0.4904 -0.6041
15963TIP3   OH269303   2.153   1.605   3.038 -0.6284 -0.7628  0.4965
15963TIP3    H169304   2.117   1.553   2.966  1.9439 -1.8744 -0.0938
15963TIP3    H269305   2.156   1.544   3.112  1.1920 -1.0945  0.1706
15964TIP3   OH269306   0.991   6.525   0.348  0.3946  0.7643 -0.3517
15964TIP3    H169307   0.919   6.463   0.341  0.1509  0.6035  2.5114
15964TIP3    H269308   1.047   6.491   0.418  3.7130  0.5358 -2.8378
15965TIP3   OH269309   6.523   2.240  16.795 -0.0784 -0.3000  0.3155
15965TIP3    H169310   6.534   2.177  16.867  1.7586 -0.4649 -0.0508
15965TIP3    H269311   6.600   2.226  16.740 -1.1496  0.2429 -1.3764
15966TIP3   OH269312   6.320   3.840   4.094  0.7443 -0.7531  0.0054
15966TIP3    H169313   6.370   3.764   4.062  0.0127 -2.7124  3.0786
15966TIP3    H269314   6.315   3.827   4.189 -0.7759  2.3828  0.4730
15967TIP3   OH269315   0.422   3.164  15.429  0.0157 -0.5915  0.1103
15967TIP3    H169316   0.369   3.086  15.447 -0.7834 -0.1595 -0.3158
15967TIP3    H269317   0.414   3.177  15.335 -1.8451  1.3792  0.4670
15968TIP3   OH269318   6.229   3.096   3.689  0.1163 -0.3167  0.5532
15968TIP3    H169319   6.139   3.087   3.658  0.3860  1.1266 -0.7514
15968TIP3    H269320   6.282   3.065   3.615  0.7227 -1.5414  1.4585
15969TIP3   OH269321   5.871   5.363   1.183 -0.9608 -0.5577 -0.5052
15969TIP3    H169322   5.912   5.279   1.203  0.9746  0.6452  0.8174
15969TIP3    H269323   5.877   5.370   1.088 -0.5466 -1.6193 -0.5717
15970TIP3   OH269324   3.813   3.243   4.548 -0.1920 -0.5405  0.2431
15970TIP3    H169325   3.778   3.324   4.583 -1.1389 -0.6809 -0.3261
15970TIP3    H269326   3.763   3.174   4.592  0.2698 -0.7970  0.3712
15971TIP3   OH269327   4.788   1.286  12.430  0.1923 -0.1169  0.0311
15971TIP3    H169328   4.703   1.241  12.434  0.2705 -0.5075 -1.8994
15971TIP3    H269329   4.852   1.219  12.454  0.0679 -0.1456  0.2934
15972TIP3   OH269330   3.858   4.918   3.285  0.3202 -0.1146 -0.6762
15972TIP3    H169331   3.832   4.844   3.231 -1.3280 -0.2090  0.1848
15972TIP3    H269332   3.883   4.880   3.369 -0.0910  0.2469 -0.3798
15973TIP3   OH269333   0.743   5.522  12.123 -0.2953  0.2481 -0.2067
15973TIP3    H169334   0.761   5.480  12.038 -0.4794  2.0986 -1.2103
15973TIP3    H269335   0.802   5.597  12.125 -1.3777  1.1013  0.6297
15974TIP3   OH269336   2.634   0.440  16.325 -0.0230  0.0216 -0.0186
15974TIP3    H169337   2.688   0.371  16.363  0.5819 -0.1468 -1.1125
15974TIP3    H269338   2.584   0.476  16.398  0.0778 -1.1879  0.6637
15975TIP3   OH269339   2.405   3.652   0.514  0.4119 -0.0222 -0.4192
15975TIP3    H169340   2.370   3.600   0.441 -0.8903 -0.7113  0.6442
15975TIP3    H269341   2.369   3.739   0.501  1.4520  0.2845 -1.4303
15976TIP3   OH269342   3.795   4.512  16.030 -0.2188 -0.4080  0.3002
15976TIP3    H169343   3.864   4.573  16.005  0.2891 -0.8864  0.5307
15976TIP3    H269344   3.838   4.427  16.034 -0.9298 -0.8010 -0.0729
15977TIP3   OH269345   1.484   2.087   2.166 -0.5421  0.1809  0.1904
15977TIP3    H169346   1.509   2.000   2.197  0.6005  0.6557  0.6528
15977TIP3    H269347   1.547   2.146   2.208 -0.3635  1.0726 -1.2818
15978TIP3   OH269348   5.003   5.103  10.910  0.0859 -0.0562 -0.3522
15978TIP3    H169349   4.973   5.167  10.975 -0.0220  1.1969 -1.5714
15978TIP3    H269350   5.000   5.151  10.827  2.3798 -0.8706 -0.9909
15979TIP3   OH269351   4.105   5.742   6.460 -0.5419  0.1823 -0.0418
15979TIP3    H169352   4.022   5.694   6.453 -0.7437  0.4142  0.6865
15979TIP3    H269353   4.172   5.673   6.459 -0.8446 -0.1672  1.3111
15980TIP3   OH269354   4.747   5.909  13.131  0.7070  0.4397  0.0218
15980TIP3    H169355   4.794   5.926  13.049  1.4281 -1.9622 -0.1499
15980TIP3    H269356   4.664   5.955  13.121  1.2296  1.1076 -1.5838
15981TIP3   OH269357   6.727   0.514   6.376 -0.2650  0.8175  0.2814
15981TIP3    H169358   6.738   0.443   6.312 -0.0990  0.1945  0.9907
15981TIP3    H269359   6.686   0.584   6.326 -1.4462 -0.1646 -0.1767
15982TIP3   OH269360   1.406   0.741   3.441 -0.1928  0.2961  0.4178
15982TIP3    H169361   1.486   0.787   3.415 -0.0401 -0.4553 -0.4932
15982TIP3    H269362   1.400   0.667   3.380 -0.4840 -0.8441  1.7638
15983TIP3   OH269363   0.150   0.213  14.460 -0.2954  0.0293  0.0894
15983TIP3    H169364   0.155   0.246  14.371  1.2799 -1.1158 -0.2889
15983TIP3    H269365   0.148   0.117  14.450 -1.2179 -0.0978  1.2488
15984TIP3   OH269366   0.321   3.712  15.852 -0.1020 -0.3493 -0.4551
15984TIP3    H169367   0.393   3.728  15.913 -0.3527 -1.7035  0.2379
15984TIP3    H269368   0.242   3.733  15.903 -0.2612  0.0574 -0.8548
15985TIP3   OH269369   3.335   0.017  11.110  0.0925 -0.1228 -0.5466
15985TIP3    H169370   3.382  -0.060  11.080 -1.4532 -1.2481 -0.1775
15985TIP3    H269371   3.245   0.004  11.079 -0.2050  1.5324 -0.4707
15986TIP3   OH269372   6.454   6.028   2.033 -0.8287  0.3223 -0.2320
15986TIP3    H169373   6.540   6.028   1.990  0.4174  0.1029  2.1002
15986TIP3    H269374   6.394   5.995   1.966  1.6549 -4.1059 -0.6671
15987TIP3   OH269375   1.577   2.376   5.512 -0.3134 -0.3376 -0.4702
15987TIP3    H169376   1.501   2.357   5.567  0.4441  0.2869  0.8410
15987TIP3    H269377   1.608   2.290   5.482 -1.6827 -0.5772 -1.2577
15988TIP3   OH269378   3.410   3.986   2.920 -0.1458 -0.3483  0.1373
15988TIP3    H169379   3.381   3.899   2.946  0.0164  0.1208  2.0428
15988TIP3    H269380   3.446   4.025   3.000 -0.8963  1.7440 -0.4614
15989TIP3   OH269381   6.523   6.585   6.546 -0.4098 -0.2108 -0.0841
15989TIP3    H169382   6.570   6.583   6.463 -0.8236  1.1064 -0.3830
15989TIP3    H269383   6.582   6.544   6.609  0.3141 -0.3316 -0.8329
15990TIP3   OH269384   4.394   3.263  16.436  0.4035  0.1062  0.3654
15990TIP3    H169385   4.364   3.182  16.395  1.0069 -0.3634  0.8265
15990TIP3    H269386   4.330   3.329  16.408 -0.5547 -0.6827  0.6246
15991TIP3   OH269387   4.374   0.469  15.311  0.3731 -0.1083  0.2655
15991TIP3    H169388   4.348   0.472  15.403 -0.6373 -1.8940  0.0955
15991TIP3    H269389   4.407   0.380  15.299  1.2754  0.3587 -0.9140
15992TIP3   OH269390   6.724   1.368   0.139  0.5132 -0.8426 -0.0001
15992TIP3    H169391   6.768   1.289   0.108  0.7171 -1.4107  1.6164
15992TIP3    H269392   6.706   1.350   0.232 -3.5236 -0.8416 -0.6153
15993TIP3   OH269393   6.605   5.345  14.305 -0.1214  0.0449 -0.5603
15993TIP3    H169394   6.696   5.324  14.289  0.2506 -1.5686  2.7603
15993TIP3    H269395   6.606   5.392  14.389 -2.2033  1.9862 -1.5009
15994TIP3   OH269396   1.033   1.607  14.235 -0.0464 -0.1321 -0.2542
15994TIP3    H169397   0.978   1.564  14.301  1.2732  0.0142  0.9949
15994TIP3    H269398   1.034   1.545  14.162 -2.1610  0.0429 -0.4967
15995TIP3   OH269399   0.130   6.252  12.737 -0.0096  0.1329 -0.1571
15995TIP3    H169400   0.071   6.321  12.705 -1.1644 -1.3913 -1.4849
15995TIP3    H269401   0.125   6.260  12.832 -2.5456 -0.0246 -0.1999
15996TIP3   OH269402   2.046   5.820   2.716 -0.1815 -0.1925 -0.4695
15996TIP3    H169403   2.067   5.766   2.792  1.4135  0.8140 -0.1545
15996TIP3    H269404   2.012   5.902   2.752 -3.6123 -1.2483 -0.9545
15997TIP3   OH269405   3.608   0.118  12.869  0.3161 -0.7395 -0.2815
15997TIP3    H169406   3.682   0.143  12.813 -0.5844  1.0328 -0.7236
15997TIP3    H269407   3.626   0.159  12.953 -0.2918 -0.0746 -0.4706
15998TIP3   OH269408   5.538   3.792   3.679  0.6192  0.6038 -0.3011
15998TIP3    H169409   5.629   3.818   3.692  1.9510 -3.1498 -0.9912
15998TIP3    H269410   5.501   3.790   3.768  0.5128  3.9816 -0.1602
15999TIP3   OH269411   0.991   0.362  10.392  0.2821 -0.3692 -0.1434
15999TIP3    H169412   1.053   0.434  10.404  1.4370 -1.1162 -1.3526
15999TIP3    H269413   1.046   0.284  10.386 -0.7164 -1.0075 -1.7556
16000TIP3   OH269414   0.018   6.115  10.882 -0.8203 -0.0753 -0.2681
16000TIP3    H169415  -0.068   6.081  10.905 -1.0006  0.2111 -0.5112
16000TIP3    H269416   0.027   6.096  10.789 -0.9201  0.5256 -0.4041
16001TIP3   OH269417   6.634   0.488  15.804  0.6369 -0.3719 -0.3729
16001TIP3    H169418   6.663   0.458  15.718 -2.1025 -0.9362 -1.2072
16001TIP3    H269419   6.612   0.408  15.852  0.2597  0.0109  0.1102
16002TIP3   OH269420   3.272   2.422   2.183 -0.4969  0.2824 -0.8657
16002TIP3    H169421   3.259   2.327   2.177 -1.9073  0.2908  1.0223
16002TIP3    H269422   3.189   2.459   2.152 -0.3284  0.8628 -0.6372
16003TIP3   OH269423   3.595   2.105   4.777  0.2219 -0.5913  0.1694
16003TIP3    H169424   3.515   2.121   4.827  0.7704 -1.6731  1.4679
16003TIP3    H269425   3.662   2.092   4.844  1.1967 -1.0808 -0.8762
16004TIP3   OH269426   4.453   4.682  16.208 -0.3369 -0.1832  0.0083
16004TIP3    H169427   4.480   4.697  16.118 -0.3765 -0.0489  0.0177
16004TIP3    H269428   4.522   4.721  16.261 -0.1715 -0.5148  0.0366
16005TIP3   OH269429   0.109   1.992   5.485 -0.0908 -0.0159  0.0401
16005TIP3    H169430   0.184   2.049   5.467  0.1503  0.3066  1.8517
16005TIP3    H269431   0.067   2.031   5.562 -1.5250 -0.7737 -0.3223
16006TIP3   OH269432   0.734   3.745  14.004 -0.3354  0.4940  0.5873
16006TIP3    H169433   0.804   3.753  14.069  0.7752  1.6125 -0.6997
16006TIP3    H269434   0.711   3.835  13.981  1.0582  0.1945 -2.3680
16007TIP3   OH269435   3.286   4.307   0.332  1.0047  0.5418 -0.1712
16007TIP3    H169436   3.253   4.224   0.297 -1.7637  1.5602 -0.2646
16007TIP3    H269437   3.308   4.287   0.423 -1.3709  0.0120  0.3649
16008TIP3   OH269438   0.656   0.437   4.027 -0.2813  0.1841 -0.4840
16008TIP3    H169439   0.741   0.395   4.013 -1.3540 -2.4340  0.1383
16008TIP3    H269440   0.643   0.433   4.122 -0.5268  1.8174 -0.4276
16009TIP3   OH269441   0.987   2.350   0.260 -0.0743  0.3442  0.4951
16009TIP3    H169442   0.943   2.404   0.326 -0.8388  1.8191 -1.1355
16009TIP3    H269443   0.983   2.261   0.295 -0.4786  1.0671  2.4012
16010TIP3   OH269444   3.289   2.628  14.312 -0.2074 -0.0995 -0.5440
16010TIP3    H169445   3.278   2.537  14.284 -1.7509 -0.2942  0.5727
16010TIP3    H269446   3.366   2.659  14.264  0.8791 -2.2482 -0.2974
16011TIP3   OH269447   6.576   3.756  12.908 -0.3811 -0.0668 -0.0031
16011TIP3    H169448   6.550   3.682  12.855  0.6156  1.1365 -2.3127
16011TIP3    H269449   6.507   3.765  12.974 -1.0456 -2.3339 -0.3379
16012TIP3   OH269450   1.136   2.259  16.333  0.4311 -0.1319  0.2860
16012TIP3    H169451   1.218   2.238  16.379 -0.4197  0.2176  2.0616
16012TIP3    H269452   1.137   2.204  16.255  1.6240 -1.3281  1.0988
16013TIP3   OH269453   4.403   3.611  15.901 -0.9317 -0.0230  0.0346
16013TIP3    H169454   4.384   3.545  15.967 -0.3006 -0.6027 -0.3497
16013TIP3    H269455   4.493   3.638  15.919 -0.5031 -0.6962 -0.9879
16014TIP3   OH269456   0.866   4.412  16.924  0.2196  0.2966 -0.3418
16014TIP3    H169457   0.854   4.318  16.908 -2.0774  0.6810 -1.3364
16014TIP3    H269458   0.794   4.436  16.982 -0.2328  1.7061 -1.4196
16015TIP3   OH269459   0.225   1.919  16.251  0.3792  0.2330  0.0375
16015TIP3    H169460   0.152   1.865  16.222 -0.3160  0.8435  0.6342
16015TIP3    H269461   0.215   2.001  16.204  1.0718  0.0778 -0.3879
16016TIP3   OH269462   6.200   1.334  11.179 -0.0800 -0.2869  0.1611
16016TIP3    H169463   6.257   1.410  11.177 -0.9761  0.4007  0.3152
16016TIP3    H269464   6.195   1.306  11.088 -0.3004  0.2638  0.0011
16017TIP3   OH269465   5.339   1.868   2.812  0.0163 -0.5494  0.5746
16017TIP3    H169466   5.319   1.865   2.718  1.0591 -2.8760  0.3565
16017TIP3    H269467   5.290   1.795   2.849 -0.3234  0.2956  1.8724
16018TIP3   OH269468   5.340   5.487  10.932 -0.1910  0.2389 -0.3666
16018TIP3    H169469   5.396   5.547  10.882  0.7678  0.2975  0.7394
16018TIP3    H269470   5.253   5.499  10.894  0.3018  1.0736 -1.2972
16019TIP3   OH269471   1.510   2.447  15.555 -0.1653  0.0333  0.5823
16019TIP3    H169472   1.578   2.513  15.568 -0.6331  0.5149  0.5761
16019TIP3    H269473   1.470   2.436  15.641 -1.3907  1.1902  0.1853
16020TIP3   OH269474   3.993   2.900  16.786 -0.0045  0.6784 -0.2677
16020TIP3    H169475   4.059   2.859  16.841  0.2963 -1.0035 -1.7994
16020TIP3    H269476   4.003   2.994  16.803  1.7528  0.3675  0.6499
16021TIP3   OH269477   3.790   5.949  14.974  0.1979  0.3173 -0.1110
16021TIP3    H169478   3.697   5.959  14.955  0.0565  0.5775  0.6462
16021TIP3    H269479   3.795   5.874  15.033  0.3139  1.0304  0.8229
16022TIP3   OH269480   1.076   2.678   4.658  0.0820 -0.3570  0.3358
16022TIP3    H169481   1.042   2.608   4.714  0.3668 -0.4497  0.3924
16022TIP3    H269482   1.009   2.747   4.662 -0.3422 -0.7460  0.0409
16023TIP3   OH269483   2.524   0.166  15.748  0.4083 -0.2363  0.2375
16023TIP3    H169484   2.565   0.252  15.744  1.3055 -0.6927 -1.4206
16023TIP3    H269485   2.454   0.170  15.682  0.1488 -0.6171  0.4877
16024TIP3   OH269486   6.726   0.279   6.236  0.1796 -0.6421 -0.0244
16024TIP3    H169487   6.759   0.197   6.200  1.1472 -0.2657 -0.0238
16024TIP3    H269488   6.635   0.260   6.260  0.5304 -1.8487  0.4269
16025TIP3   OH269489   0.563   1.235   4.213  0.0825 -0.0280 -0.2796
16025TIP3    H169490   0.538   1.200   4.128 -0.6879 -1.4418  0.4862
16025TIP3    H269491   0.498   1.199   4.274  0.2476  1.4312  0.8333
16026TIP3   OH269492   3.641   6.161  14.819 -0.3399 -0.6204  0.7568
16026TIP3    H169493   3.676   6.248  14.798 -2.7708  0.8010  2.1559
16026TIP3    H269494   3.662   6.108  14.742  1.7906  0.9693  0.1175
16027TIP3   OH269495   0.875   4.191  12.739  1.1186  0.5455 -0.2186
16027TIP3    H169496   0.947   4.253  12.740  1.6901 -0.0161  2.8506
16027TIP3    H269497   0.843   4.189  12.830 -0.9823 -1.2481 -0.9020
16028TIP3   OH269498   1.890   0.465   4.906  0.1719  0.2652  0.3543
16028TIP3    H169499   1.913   0.520   4.980 -0.1630 -0.1116  0.7486
16028TIP3    H269500   1.973   0.443   4.864  0.2885  1.2869  0.0238
16029TIP3   OH269501   2.245   2.557  15.678  0.2801  0.0407 -0.1487
16029TIP3    H169502   2.192   2.534  15.601  0.9014  0.1892 -0.6298
16029TIP3    H269503   2.214   2.644  15.703 -0.3675 -0.2772  0.1638
16030TIP3   OH269504   4.289   2.120  12.948  0.4257 -0.2387  0.3402
16030TIP3    H169505   4.312   2.039  12.994 -0.3386  0.5669  2.2277
16030TIP3    H269506   4.372   2.168  12.940  0.4108  0.0419  1.7745
16031TIP3   OH269507   6.015   0.483  16.681  0.1071  0.0883 -0.0885
16031TIP3    H169508   5.954   0.546  16.643  0.1124  0.2698  0.1970
16031TIP3    H269509   6.056   0.440  16.606  0.1609  0.4833 -0.2868
16032TIP3   OH269510   0.547   3.895  14.537 -0.7021  0.0930 -0.9472
16032TIP3    H169511   0.487   3.820  14.542  1.7016 -1.8953  0.6421
16032TIP3    H269512   0.623   3.862  14.489 -0.1234  1.9608 -1.3703
16033TIP3   OH269513   2.759   3.483   4.625  0.0009  0.0009 -0.3706
16033TIP3    H169514   2.767   3.554   4.561 -2.3095  0.8880  0.2177
16033TIP3    H269515   2.699   3.517   4.691 -2.4430 -3.0007 -0.8217
16034TIP3   OH269516   3.694   4.613   2.939 -0.0981  0.7420  0.8194
16034TIP3    H169517   3.644   4.641   2.863  0.1939 -1.8702 -0.4549
16034TIP3    H269518   3.739   4.534   2.910  0.6032  0.0505  3.5107
16035TIP3   OH269519   3.632   4.722  16.938 -0.0051  0.6116 -0.0822
16035TIP3    H169520   3.546   4.716  16.980 -0.1196 -1.2291 -0.5047
16035TIP3    H269521   3.619   4.684  16.851  1.2165  0.3449 -0.1655
16036TIP3   OH269522   5.509   4.641  13.681  0.1261 -0.0617  0.7460
16036TIP3    H169523   5.525   4.552  13.712 -0.3415 -0.6338 -0.5898
16036TIP3    H269524   5.414   4.647  13.673  0.0989  0.8636  1.6605
16037TIP3   OH269525   6.377   3.528  12.157 -0.0436 -0.3806 -0.1891
16037TIP3    H169526   6.416   3.604  12.201 -1.4150  0.3415 -0.1630
16037TIP3    H269527   6.288   3.525  12.190 -0.7788 -0.4952 -2.0825
16038TIP3   OH269528   4.019   6.446  10.499  0.2402  0.6439 -0.9167
16038TIP3    H169529   4.091   6.407  10.449  1.5641  1.6063  0.1563
16038TIP3    H269530   3.947   6.452  10.437  0.4715 -1.9892 -1.5472
16039TIP3   OH269531   2.927   3.291   1.684  0.0574 -0.1153 -0.0317
16039TIP3    H169532   2.992   3.221   1.677  0.8540  0.6180 -0.0024
16039TIP3    H269533   2.844   3.248   1.661  0.7748 -0.6769 -1.6944
16040TIP3   OH269534   1.033   3.016  11.885  0.0292  0.5406  0.1401
16040TIP3    H169535   1.000   2.996  11.973  0.6796  1.7141  0.6779
16040TIP3    H269536   1.038   3.112  11.883  0.3582  0.5125 -1.0548
16041TIP3   OH269537   5.716   0.624   3.751  0.4800 -0.1222  0.1470
16041TIP3    H169538   5.712   0.534   3.721 -1.2829 -0.1896  0.5098
16041TIP3    H269539   5.806   0.635   3.782  1.2308 -1.1880 -1.5319
16042TIP3   OH269540   3.020   2.465  15.137 -0.3207  0.0485 -0.1336
16042TIP3    H169541   3.047   2.376  15.114  0.5975  0.5444 -1.0688
16042TIP3    H269542   3.100   2.517  15.134 -1.1001  1.2746 -1.4693
16043TIP3   OH269543   2.543   3.532  16.651 -0.0393 -0.0521 -0.6270
16043TIP3    H169544   2.620   3.486  16.617 -1.5488 -3.5031  0.1185
16043TIP3    H269545   2.575   3.578  16.728  1.5374 -0.2086 -1.1490
16044TIP3   OH269546   0.916   2.271  12.428 -0.6388 -0.3181 -0.1020
16044TIP3    H169547   1.009   2.290  12.425 -0.7132 -0.0465 -0.8786
16044TIP3    H269548   0.889   2.266  12.336 -1.6661  1.0202  0.0986
16045TIP3   OH269549   5.282   4.869   4.591  0.2599  0.0714 -0.1301
16045TIP3    H169550   5.294   4.880   4.496 -2.2122  0.6902 -0.4652
16045TIP3    H269551   5.313   4.951   4.629  0.0744  0.3546 -0.5716
16046TIP3   OH269552   4.607   4.585  16.535  0.0873 -0.2793  0.2440
16046TIP3    H169553   4.559   4.503  16.544  0.3216 -0.6035 -1.2124
16046TIP3    H269554   4.540   4.653  16.543 -0.4505 -0.6917 -0.5378
16047TIP3   OH269555   2.286   2.639   4.587 -0.0337 -0.1895  0.1421
16047TIP3    H169556   2.286   2.615   4.680  0.5618 -2.6723 -0.4418
16047TIP3    H269557   2.378   2.641   4.563 -0.2199 -0.6308 -0.6326
16048TIP3   OH269558   4.827   0.826  16.785  0.0750  0.1977 -0.3688
16048TIP3    H169559   4.843   0.920  16.782  0.4145  0.1582  0.1164
16048TIP3    H269560   4.904   0.787  16.745 -0.5916  0.1660 -1.6670
16049TIP3   OH269561   6.042   4.003  15.053 -0.0655 -0.3393  0.5607
16049TIP3    H169562   6.048   3.941  14.980 -0.4725  0.0019  0.2349
16049TIP3    H269563   5.951   4.032  15.053 -0.0828 -0.3688  1.2354
16050TIP3   OH269564   3.714   5.977   1.231  0.3374  0.6636  0.1331
16050TIP3    H169565   3.801   5.950   1.203 -0.7521 -2.3195 -0.7290
16050TIP3    H269566   3.705   6.066   1.196  2.1099  0.0992 -2.0350
16051TIP3   OH269567   2.150   5.886  10.864  0.0206  0.5523  0.3751
16051TIP3    H169568   2.066   5.854  10.831  1.6367 -1.9044 -1.7404
16051TIP3    H269569   2.177   5.952  10.800  1.0969 -0.9937 -0.8449
16052TIP3   OH269570   5.674   5.088   1.785 -0.3949 -0.4765 -0.5822
16052TIP3    H169571   5.598   5.112   1.731 -0.5251  0.5500  0.0407
16052TIP3    H269572   5.741   5.062   1.721 -1.0503 -0.7641 -1.1663
16053TIP3   OH269573   4.397   5.543  12.116 -0.1678  0.3882  0.1012
16053TIP3    H169574   4.302   5.547  12.126 -0.1532  3.0866 -0.1089
16053TIP3    H269575   4.429   5.513  12.201 -1.1507  0.8737  0.6546
16054TIP3   OH269576   5.919   0.416   5.392  0.3900 -0.4760 -0.0546
16054TIP3    H169577   5.886   0.327   5.381 -0.2057 -0.1810 -0.6966
16054TIP3    H269578   5.979   0.410   5.466 -0.1528 -1.2727  0.3325
16055TIP3   OH269579   6.638   6.444  11.559 -0.1269 -0.0041 -0.0779
16055TIP3    H169580   6.702   6.380  11.591 -0.2955  0.3194  0.9338
16055TIP3    H269581   6.615   6.413  11.472  0.5602 -0.7555 -0.0049
16056TIP3   OH269582   5.321   1.179  14.560  0.1126  0.1786 -0.6240
16056TIP3    H169583   5.315   1.160  14.466 -0.3454 -0.3001 -0.5014
16056TIP3    H269584   5.260   1.251  14.573  0.4015  0.4477 -0.7440
16057TIP3   OH269585   3.035   3.367  16.983 -0.6171  0.3647  0.2657
16057TIP3    H169586   3.055   3.289  16.931  0.4193  1.0801 -0.4546
16057TIP3    H269587   2.998   3.429  16.920 -2.0907  0.2385  0.9665
16058TIP3   OH269588   1.951   2.033   2.654  0.3671 -0.0825 -0.0698
16058TIP3    H169589   1.904   2.112   2.681 -1.4087 -1.5509  1.3671
16058TIP3    H269590   1.929   2.022   2.562 -1.2621 -0.1338  0.2979
16059TIP3   OH269591   0.405   3.916   2.433 -0.3488  0.2911  0.0084
16059TIP3    H169592   0.495   3.909   2.402 -0.3994 -1.1376  0.0875
16059TIP3    H269593   0.397   3.847   2.499 -0.8217  1.9735  1.7898
16060TIP3   OH269594   4.526   5.382   3.598  0.3183  0.4599  0.1482
16060TIP3    H169595   4.563   5.319   3.659  0.0871 -0.0537 -0.2348
16060TIP3    H269596   4.503   5.330   3.521 -0.3135  0.9325  0.0119
16061TIP3   OH269597   2.810   2.676   3.463  0.8166  0.2902  0.0732
16061TIP3    H169598   2.751   2.648   3.393  1.9206  0.4751 -0.9578
16061TIP3    H269599   2.878   2.727   3.419  2.1154 -0.4528  1.1388
16062TIP3   OH269600   2.878   3.133   5.449 -0.0770 -0.3606  0.1138
16062TIP3    H169601   2.784   3.142   5.463 -0.1841  0.2903 -0.9071
16062TIP3    H269602   2.908   3.222   5.430  0.5078 -0.7523 -0.8841
16063TIP3   OH269603   3.016   4.420  11.842  0.1215 -0.1240  0.4281
16063TIP3    H169604   2.958   4.403  11.917  0.6134  0.9476  1.0679
16063TIP3    H269605   3.094   4.368  11.860 -0.7821 -1.9560 -0.6732
16064TIP3   OH269606   2.744   4.881   6.467 -0.1336 -0.6078  0.1426
16064TIP3    H169607   2.677   4.892   6.400 -1.7804  1.3586  1.9236
16064TIP3    H269608   2.737   4.790   6.494 -3.9034 -0.0186  1.8501
16065TIP3   OH269609   5.614   5.140  13.490 -0.2504  0.5695 -0.1875
16065TIP3    H169610   5.705   5.141  13.518 -0.3985  0.1152  0.3275
16065TIP3    H269611   5.618   5.130  13.395  0.2296 -0.1982 -0.0945
16066TIP3   OH269612   2.327   6.166  16.300  0.0835 -0.0815  0.4627
16066TIP3    H169613   2.347   6.207  16.384  1.3758 -0.1168  0.1874
16066TIP3    H269614   2.274   6.231  16.253  0.0114  0.2472  0.9928
16067TIP3   OH269615   2.769   3.627   4.221  1.0961  0.6525 -0.3370
16067TIP3    H169616   2.756   3.719   4.197 -1.6201  0.5025  0.3020
16067TIP3    H269617   2.681   3.590   4.226  2.1393 -2.2946 -1.5484
16068TIP3   OH269618   3.199   0.437  11.121 -0.1007 -0.2924  0.2482
16068TIP3    H169619   3.164   0.464  11.036 -3.9833 -1.7519  1.1682
16068TIP3    H269620   3.209   0.519  11.170  0.1871  0.3914 -0.9146
16069TIP3   OH269621   2.056   5.663  14.418  0.4863  0.1315 -0.3046
16069TIP3    H169622   1.983   5.679  14.359 -0.3347 -1.2465  0.2679
16069TIP3    H269623   2.027   5.588  14.471  1.6751  0.5618  1.0114
16070TIP3   OH269624   3.516   0.982  17.015 -0.1083 -0.6781  0.0602
16070TIP3    H169625   3.544   1.015  17.101 -0.3207 -1.5379  0.4698
16070TIP3    H269626   3.423   0.964  17.026 -0.7303  1.4785 -1.0863
16071TIP3   OH269627   1.133   1.204  12.716 -0.0256 -0.5774 -0.5744
16071TIP3    H169628   1.047   1.217  12.677  0.5481 -0.2694 -1.7907
16071TIP3    H269629   1.142   1.109  12.723 -1.7735 -0.6467  2.6911
16072TIP3   OH269630   6.071   5.405   3.061  0.2769 -0.6536 -0.1140
16072TIP3    H169631   6.126   5.327   3.070 -0.1906 -0.8877  0.8362
16072TIP3    H269632   6.125   5.466   3.011  1.3143 -0.9678  0.5766
16073TIP3   OH269633   2.521   2.969  14.349  0.1624 -0.2078 -0.3770
16073TIP3    H169634   2.435   3.001  14.378  1.3036  2.5533  0.3033
16073TIP3    H269635   2.578   2.980  14.425  1.4854 -0.4222 -1.2981
16074TIP3   OH269636   4.325   3.352  17.306  0.2732  0.3693  0.2583
16074TIP3    H169637   4.383   3.295  17.256  0.2418  0.5024  0.0660
16074TIP3    H269638   4.237   3.325  17.280  0.2598  0.7320 -0.1027
16075TIP3   OH269639   4.459   1.940   4.130  0.2354  0.1899 -0.0178
16075TIP3    H169640   4.413   1.875   4.184 -0.0226  1.2586  1.0991
16075TIP3    H269641   4.521   1.981   4.190  1.6330 -0.2047 -1.1480
16076TIP3   OH269642   0.593   5.918   3.999  0.0361 -0.0048  0.3058
16076TIP3    H169643   0.511   5.961   4.022  0.2089 -0.6131  2.2948
16076TIP3    H269644   0.622   5.962   3.919 -0.3347  2.8587  1.6031
16077TIP3   OH269645   6.440   3.231  14.354  0.4043 -0.3876  0.1824
16077TIP3    H169646   6.420   3.197  14.441 -0.6329 -2.8360 -0.9208
16077TIP3    H269647   6.360   3.216  14.303 -0.1691  3.7886 -0.5257
16078TIP3   OH269648   2.334   5.485   5.661 -0.2688 -0.2665 -0.0915
16078TIP3    H169649   2.292   5.571   5.661  0.5981  0.2118  1.6721
16078TIP3    H269650   2.261   5.423   5.658 -1.0261  0.5552  0.6334
16079TIP3   OH269651   5.171   0.435   3.485 -0.3915 -0.4977 -0.0333
16079TIP3    H169652   5.245   0.493   3.469 -0.7654  0.2641  0.8690
16079TIP3    H269653   5.151   0.398   3.400 -1.5312  2.4089 -1.1763
16080TIP3   OH269654   4.948   5.571   4.410  0.3466  0.5557 -0.0050
16080TIP3    H169655   4.870   5.582   4.356 -0.6640  0.1783  1.3098
16080TIP3    H269656   4.919   5.514   4.482  2.3506 -1.2603 -0.5278
16081TIP3   OH269657   5.707   3.409   1.211  0.2171  0.1584 -0.7684
16081TIP3    H169658   5.664   3.382   1.130  0.5027 -0.1049 -0.8349
16081TIP3    H269659   5.771   3.474   1.182 -0.9210  1.4260 -0.5318
16082TIP3   OH269660   3.902   1.485   6.213  0.1253 -0.1621 -0.4825
16082TIP3    H169661   3.881   1.395   6.189 -0.4461 -0.0898 -0.2609
16082TIP3    H269662   3.915   1.483   6.308 -0.6264  0.1271 -0.3684
16083TIP3   OH269663   1.023   3.482  11.695 -0.9163 -0.1376 -0.1468
16083TIP3    H169664   1.038   3.569  11.731  0.9371 -0.3814 -0.2482
16083TIP3    H269665   1.055   3.488  11.605  3.1033 -1.9319  0.9817
16084TIP3   OH269666   5.828   5.241   5.591  0.3916 -0.0742  0.1344
16084TIP3    H169667   5.887   5.237   5.516  0.8878  0.1745  0.5035
16084TIP3    H269668   5.797   5.331   5.593  0.5222 -0.0299  0.3234
16085TIP3   OH269669   4.855   0.477  16.921 -0.2220 -0.4600  0.1191
16085TIP3    H169670   4.793   0.405  16.909  0.4346 -0.7896 -1.5329
16085TIP3    H269671   4.805   0.556  16.900 -0.9621 -0.3827  2.0015
16086TIP3   OH269672   5.941   0.513  16.256  0.5230  0.2038  0.2341
16086TIP3    H169673   5.950   0.437  16.199  1.5786 -0.0135  0.6631
16086TIP3    H269674   5.851   0.543  16.243  0.4563 -0.4188 -0.8045
16087TIP3   OH269675   2.864   0.745  12.742 -0.2983  0.1221 -0.1450
16087TIP3    H169676   2.795   0.782  12.797 -1.4967 -4.2781  1.8226
16087TIP3    H269677   2.829   0.747  12.653 -1.1808  1.5393  0.2131
16088TIP3   OH269678   0.137   2.382   3.034  0.4047  0.1779 -0.3882
16088TIP3    H169679   0.045   2.386   3.060  0.1325  0.2259 -1.3206
16088TIP3    H269680   0.143   2.306   2.978  0.8113  0.5030 -0.7904
16089TIP3   OH269681   3.151   2.817   1.522 -0.0116  0.0750  0.4595
16089TIP3    H169682   3.131   2.750   1.588 -1.7881  1.5344  1.4748
16089TIP3    H269683   3.232   2.786   1.481 -1.6508 -3.5920 -0.3641
16090TIP3   OH269684   6.497   2.829   0.173  0.3870  0.2994  0.1968
16090TIP3    H169685   6.561   2.773   0.216 -1.0733 -0.4693  1.4463
16090TIP3    H269686   6.494   2.798   0.083  1.5974  0.2132  0.1702
16091TIP3   OH269687   6.350   2.924   1.573  0.1370 -0.6691 -0.4433
16091TIP3    H169688   6.408   2.874   1.515  2.0212  1.2065 -0.2569
16091TIP3    H269689   6.357   3.014   1.543 -0.9519 -0.0498  1.0407
16092TIP3   OH269690   4.287   5.132  10.621  0.4326  0.1100  0.2962
16092TIP3    H169691   4.309   5.043  10.649  0.4273  0.2884  0.8916
16092TIP3    H269692   4.215   5.158  10.678  1.7099  1.2089  1.4920
16093TIP3   OH269693   2.596   1.357  12.202 -0.7282 -0.2789 -0.1413
16093TIP3    H169694   2.538   1.414  12.153 -1.4624 -0.3652  0.6052
16093TIP3    H269695   2.684   1.377  12.169 -0.5345  3.5066  2.1514
16094TIP3   OH269696   0.826   0.967  13.484 -0.2997  0.1270  0.8877
16094TIP3    H169697   0.770   1.043  13.474 -0.9153 -0.4521 -0.2334
16094TIP3    H269698   0.830   0.928  13.396  0.3860 -0.8601  1.3368
16095TIP3   OH269699   2.282   6.694   1.700 -0.2188  0.0795 -0.2746
16095TIP3    H169700   2.196   6.681   1.661 -0.2954  1.0100 -0.4292
16095TIP3    H269701   2.340   6.632   1.654 -1.2823 -2.5207  1.6175
16096TIP3   OH269702   0.492   3.366  17.182 -0.1559 -0.5821 -0.1919
16096TIP3    H169703   0.480   3.344  17.090 -0.2992 -1.0105 -0.0752
16096TIP3    H269704   0.570   3.422  17.183  0.4083 -1.3368 -0.4753
16097TIP3   OH269705   3.365   6.690   1.893 -0.1612 -0.0067 -0.9723
16097TIP3    H169706   3.306   6.627   1.853  0.6275  0.4663 -2.9937
16097TIP3    H269707   3.327   6.776   1.873  0.1893  0.2492 -0.5792
16098TIP3   OH269708   1.114   4.000   1.092  0.0163  0.3231 -0.5291
16098TIP3    H169709   1.067   3.943   1.031 -1.3066  0.8234 -0.0048
16098TIP3    H269710   1.111   4.087   1.051 -2.2167  0.9994  0.8624
16099TIP3   OH269711   5.612   2.880  16.990  0.6687 -0.0998 -0.1942
16099TIP3    H169712   5.690   2.922  17.027  0.6505  0.2718 -0.5677
16099TIP3    H269713   5.600   2.923  16.905  0.0312 -0.1302 -0.1222
16100TIP3   OH269714   6.277   5.666  16.234  0.2138 -0.0469 -0.1893
16100TIP3    H169715   6.365   5.659  16.197  0.8224 -0.7395  1.3092
16100TIP3    H269716   6.219   5.637  16.164  1.3426 -1.6554 -0.5035
16101TIP3   OH269717   3.460   6.272  10.813 -0.0839  0.6781  0.4076
16101TIP3    H169718   3.398   6.249  10.882 -0.5715 -0.0167 -0.2413
16101TIP3    H269719   3.414   6.251  10.732  1.4206 -1.0144 -0.0752
16102TIP3   OH269720   1.334   6.295  10.546  0.0117  0.6778 -0.0684
16102TIP3    H169721   1.272   6.226  10.521  0.5278  0.8515 -1.9667
16102TIP3    H269722   1.280   6.373  10.558 -0.2401  0.6579 -1.0023
16103TIP3   OH269723   2.687   4.095   2.234 -0.3036  0.1128 -0.1729
16103TIP3    H169724   2.606   4.046   2.249  1.6046 -3.6694 -0.9466
16103TIP3    H269725   2.668   4.150   2.158 -2.5495  0.5273  0.6258
16104TIP3   OH269726   4.862   5.402  16.461  0.7108  0.0568  1.0715
16104TIP3    H169727   4.822   5.415  16.546  3.1501  0.6946  2.2225
16104TIP3    H269728   4.915   5.481  16.447 -0.2758  0.3869 -1.4737
16105TIP3   OH269729   0.888   0.538   3.112  0.1514  0.1337  0.1014
16105TIP3    H169730   0.833   0.494   3.178 -0.1174 -0.1791 -0.3276
16105TIP3    H269731   0.892   0.629   3.142 -0.0577  0.0172  0.4938
16106TIP3   OH269732   0.909   6.724   5.393  0.3979  0.3605 -0.3104
16106TIP3    H169733   0.964   6.774   5.454  0.6311 -0.7444  0.4253
16106TIP3    H269734   0.887   6.644   5.441 -0.3048 -0.0600 -1.2985
16107TIP3   OH269735   5.947   5.945  14.971  0.0982 -0.2657 -0.5876
16107TIP3    H169736   5.950   5.929  15.066 -2.2506  1.9478 -0.0225
16107TIP3    H269737   5.945   6.041  14.964 -1.0347 -0.4026 -2.8132
16108TIP3   OH269738   4.781   0.480   4.365  0.3001  0.1929 -0.2460
16108TIP3    H169739   4.791   0.493   4.271 -0.5269  1.3900 -0.2001
16108TIP3    H269740   4.719   0.548   4.392  1.5897  0.7970  1.4059
16109TIP3   OH269741   6.239   4.594   6.015 -0.0567 -0.1642 -0.0812
16109TIP3    H169742   6.301   4.649   5.968  1.9249 -2.1744  0.0255
16109TIP3    H269743   6.282   4.574   6.098 -2.0548  0.5669  1.2179
16110TIP3   OH269744   6.662   2.221   1.834  0.3783 -0.2410  0.3920
16110TIP3    H169745   6.639   2.171   1.912 -2.6303 -0.2708 -0.3649
16110TIP3    H269746   6.637   2.311   1.855  0.1088 -0.1468 -0.3090
16111TIP3   OH269747   2.006   4.447   0.419  0.3801  0.2118 -0.4323
16111TIP3    H169748   1.931   4.468   0.363 -1.9005  1.7948  2.8658
16111TIP3    H269749   2.070   4.516   0.401  0.4734 -0.3178 -2.2672
16112TIP3   OH269750   1.153   5.667   4.920  0.5989  0.0282  0.1226
16112TIP3    H169751   1.125   5.749   4.961  0.8520 -0.0241  0.4018
16112TIP3    H269752   1.213   5.694   4.851 -0.4886  0.1750 -0.7971
16113TIP3   OH269753   3.999   5.677  15.962  0.2202 -0.1667 -0.0453
16113TIP3    H169754   4.044   5.673  15.878  0.1967  3.7293 -0.4508
16113TIP3    H269755   4.031   5.758  16.003 -2.3182 -0.0996  2.1063
16114TIP3   OH269756   0.303   2.482   6.267  0.4100  0.4386  0.5212
16114TIP3    H169757   0.238   2.490   6.337  0.8329  0.6364  0.9001
16114TIP3    H269758   0.323   2.572   6.242  1.5667  0.4608  1.3957
16115TIP3   OH269759   2.698   6.461   1.927 -0.4836 -0.1589 -0.1632
16115TIP3    H169760   2.777   6.512   1.947  1.4023 -1.9660 -2.3733
16115TIP3    H269761   2.647   6.462   2.008  0.1553  3.7855  0.3927
16116TIP3   OH269762   3.494   6.085   5.876 -0.2587  0.3799 -0.9131
16116TIP3    H169763   3.449   6.133   5.946 -0.5497  1.3459 -1.7332
16116TIP3    H269764   3.432   6.016   5.851 -0.7205  0.8560 -1.1086
16117TIP3   OH269765   3.133   0.347   1.940  0.5773  0.3039 -0.2057
16117TIP3    H169766   3.045   0.365   1.905  0.9406  1.6301 -0.4925
16117TIP3    H269767   3.192   0.399   1.885  1.5422 -0.4800  0.0595
16118TIP3   OH269768   5.856   6.355   4.554  0.0899 -0.1718  0.1000
16118TIP3    H169769   5.841   6.414   4.481 -2.7003  1.3603  1.7099
16118TIP3    H269770   5.789   6.287   4.544  1.1015 -1.1936  0.0843
16119TIP3   OH269771   3.790   2.040   2.868 -0.0228  0.0403  0.2218
16119TIP3    H169772   3.702   2.019   2.900 -0.3777  2.1668  0.7365
16119TIP3    H269773   3.777   2.117   2.813  1.3528 -0.4340 -0.8136
16120TIP3   OH269774   0.930   6.317  16.475  0.1294 -0.1292 -0.8267
16120TIP3    H169775   0.977   6.235  16.460  1.1165  0.3217 -0.2810
16120TIP3    H269776   0.953   6.343  16.564 -1.8642 -0.3275 -0.1991
16121TIP3   OH269777   1.967   1.237   2.332 -0.1399  0.5578 -0.0559
16121TIP3    H169778   2.019   1.317   2.328 -0.3714  0.8922  2.2632
16121TIP3    H269779   1.896   1.251   2.270  0.1871  1.8924 -0.1552
16122TIP3   OH269780   1.790   0.055  14.113  0.6346  0.3837  0.0069
16122TIP3    H169781   1.823   0.042  14.202  0.6313 -0.7207 -0.1286
16122TIP3    H269782   1.868   0.051  14.058  0.5626  0.3422 -0.0926
16123TIP3   OH269783   0.600   5.321   1.849 -0.3381 -0.4349  0.0322
16123TIP3    H169784   0.640   5.286   1.769  2.1082 -0.4263  1.1723
16123TIP3    H269785   0.528   5.377   1.818 -0.2445 -1.3995 -2.0743
16124TIP3   OH269786   0.216   4.038  15.711 -0.0625 -0.3346 -0.2166
16124TIP3    H169787   0.125   4.010  15.717 -0.7480  1.9859  1.8922
16124TIP3    H269788   0.265   3.970  15.758 -0.9557 -0.6453  0.2847
16125TIP3   OH269789   1.905   1.490  13.777 -0.5532 -0.0438  0.6620
16125TIP3    H169790   1.978   1.445  13.736 -0.2474  0.9969  0.0242
16125TIP3    H269791   1.912   1.580  13.746 -2.0793  0.0897  0.6137
16126TIP3   OH269792   1.837   6.646  16.918 -0.1170  0.1368  0.1112
16126TIP3    H169793   1.757   6.594  16.906  0.1367 -0.0141 -1.1615
16126TIP3    H269794   1.811   6.735  16.895 -0.0457  0.1880  0.2289
16127TIP3   OH269795   1.927   5.186  16.097  0.4890  0.2004  0.8932
16127TIP3    H169796   1.861   5.221  16.037  1.2045 -1.3171 -0.8895
16127TIP3    H269797   1.948   5.259  16.155  0.0575  1.9253 -0.9896
16128TIP3   OH269798   4.126   0.682  16.853  0.7917  0.0818 -0.1283
16128TIP3    H169799   4.166   0.769  16.854  0.7953  0.0786  0.9772
16128TIP3    H269800   4.186   0.628  16.904  0.2248 -0.3078  0.1329
16129TIP3   OH269801   6.648   3.940  15.879  0.4170  0.5079 -0.0909
16129TIP3    H169802   6.674   4.031  15.869 -1.3959  1.0064 -0.6044
16129TIP3    H269803   6.622   3.912  15.791  1.1406 -0.5939  0.0168
16130TIP3   OH269804   4.375   1.457   4.902  0.8275 -0.0655  0.2479
16130TIP3    H169805   4.284   1.488   4.905  0.6098 -0.7549  0.9490
16130TIP3    H269806   4.414   1.488   4.984  0.9493 -0.5981  0.3950
16131TIP3   OH269807   0.531   0.586  13.451  0.1869 -0.1956  0.0895
16131TIP3    H169808   0.589   0.549  13.384  1.5669  2.6207 -0.4307
16131TIP3    H269809   0.591   0.611  13.522 -0.9369 -0.7558  1.2651
16132TIP3   OH269810   5.993   3.354   3.195  0.1237  0.2700  0.9195
16132TIP3    H169811   5.920   3.407   3.227  0.7101 -0.4733  3.7987
16132TIP3    H269812   6.046   3.415   3.144 -0.7553  1.7128  1.6474
16133TIP3   OH269813   0.741   1.346  16.174  0.3382 -0.2434 -0.3776
16133TIP3    H169814   0.774   1.260  16.200  1.2506  0.4574  0.9219
16133TIP3    H269815   0.687   1.375  16.247 -3.0185 -1.1782 -2.2880
16134TIP3   OH269816   3.882   1.054  15.807  0.2746  0.9317  0.1782
16134TIP3    H169817   3.845   0.966  15.812  1.6908  0.2948  0.0667
16134TIP3    H269818   3.824   1.101  15.748  0.0132 -0.2304 -0.5353
16135TIP3   OH269819   2.232   2.723  13.822  0.6710 -0.2639 -0.0654
16135TIP3    H169820   2.229   2.700  13.729  1.4351  1.1492 -0.4760
16135TIP3    H269821   2.176   2.800  13.830  1.2976  0.1566  0.4623
16136TIP3   OH269822   2.051   4.898  15.585 -0.1268  0.0469 -0.5873
16136TIP3    H169823   2.026   4.929  15.672 -1.0470 -0.7180 -0.5626
16136TIP3    H269824   1.989   4.827  15.566  1.9873 -1.9353 -0.5390
16137TIP3   OH269825   3.297   6.373  12.059 -0.4480  0.3575  0.0783
16137TIP3    H169826   3.259   6.327  12.134 -0.6033  1.9794  1.0175
16137TIP3    H269827   3.221   6.409  12.013 -0.3638 -0.7219 -0.9716
16138TIP3   OH269828   4.997   4.556  13.455  0.5149 -0.3535  0.0159
16138TIP3    H169829   5.060   4.628  13.449 -0.3853  0.4244 -0.4523
16138TIP3    H269830   4.977   4.550  13.549  0.3452  0.2435  0.0221
16139TIP3   OH269831   5.016   0.865  15.342  0.2607 -0.1183 -0.1871
16139TIP3    H169832   5.028   0.895  15.252  2.3250  0.1242  0.1246
16139TIP3    H269833   5.104   0.858  15.377 -0.4935 -0.1315  1.8531
16140TIP3   OH269834   1.668   0.425   4.758 -0.4068 -0.1631  0.8250
16140TIP3    H169835   1.647   0.509   4.718 -1.8976 -0.5699  0.7031
16140TIP3    H269836   1.752   0.439   4.801  0.1324  0.9339 -0.5159
16141TIP3   OH269837   6.135   3.580  12.559 -0.8345 -1.0944 -0.2303
16141TIP3    H169838   6.190   3.520  12.508  1.1150 -0.0160  0.4982
16141TIP3    H269839   6.059   3.596  12.503 -0.1629 -2.2039 -1.5287
16142TIP3   OH269840   5.450   5.162  16.707  0.0722 -0.0040 -0.4377
16142TIP3    H169841   5.537   5.185  16.742 -0.8340  1.3939  1.0190
16142TIP3    H269842   5.447   5.067  16.712  1.1888 -0.0257  0.3268
16143TIP3   OH269843   5.402   6.301  16.336  0.1528 -0.3974  0.0117
16143TIP3    H169844   5.324   6.290  16.391 -0.7335  1.6601 -0.7133
16143TIP3    H269845   5.420   6.213  16.301 -0.4293 -1.3576  2.0028
16144TIP3   OH269846   1.949   2.429  15.863  0.4097 -0.4436  0.4766
16144TIP3    H169847   1.961   2.368  15.791  0.8582 -0.4956  0.5895
16144TIP3    H269848   2.019   2.407  15.925 -1.2478 -1.8506  1.9532
16145TIP3   OH269849   1.907   6.733   2.010  0.4115  0.1316  0.3272
16145TIP3    H169850   1.867   6.724   1.923 -3.2053  2.0348  1.5652
16145TIP3    H269851   1.870   6.661   2.061  0.7960  0.2808  0.8255
16146TIP3   OH269852   6.574   4.764  11.963 -0.3595 -0.3290 -0.5832
16146TIP3    H169853   6.483   4.792  11.956 -0.5677 -0.5313  0.9709
16146TIP3    H269854   6.592   4.719  11.881 -1.7357 -0.4989 -0.8037
16147TIP3   OH269855   1.872   6.115  12.417  0.0853 -0.0229 -0.4805
16147TIP3    H169856   1.932   6.189  12.426 -0.1909  0.3038 -1.2110
16147TIP3    H269857   1.793   6.143  12.464 -0.3411  0.5273 -1.4882
16148TIP3   OH269858   3.590   3.505   5.050  0.9231  0.5022  0.0333
16148TIP3    H169859   3.534   3.441   5.094  0.3319  1.2068  0.3255
16148TIP3    H269860   3.592   3.580   5.110 -1.1453  2.1099 -1.7396
16149TIP3   OH269861   3.916   6.131   0.846  0.6097 -0.0096 -0.4780
16149TIP3    H169862   3.840   6.186   0.863  0.5347  0.8583 -3.1809
16149TIP3    H269863   3.974   6.146   0.920 -0.3776  2.0003 -0.0577
16150TIP3   OH269864   3.243   0.699  12.120 -0.0024 -0.1035 -0.4419
16150TIP3    H169865   3.194   0.782  12.117  0.5050  0.2013 -0.2940
16150TIP3    H269866   3.185   0.636  12.076 -0.8668  0.0794  0.4003
16151TIP3   OH269867   5.859   0.676   1.305  0.1196 -0.3059 -0.4354
16151TIP3    H169868   5.874   0.587   1.271  1.4238 -0.9017  1.5193
16151TIP3    H269869   5.919   0.683   1.379  0.1489  2.2985 -0.6429
16152TIP3   OH269870   4.587   3.556   0.760 -0.0504  0.6197 -0.7899
16152TIP3    H169871   4.515   3.532   0.819  0.7648 -0.5150 -0.2187
16152TIP3    H269872   4.666   3.527   0.806  0.7882  1.9096 -1.3730
16153TIP3   OH269873   6.033   3.754  14.147  0.0003  0.8343  0.0996
16153TIP3    H169874   6.116   3.790  14.117 -0.1764  1.4096  0.2860
16153TIP3    H269875   5.995   3.823  14.201 -0.7595  0.7086 -0.2591
16154TIP3   OH269876   6.303   6.653  14.418  0.2824  0.1767  0.1008
16154TIP3    H169877   6.275   6.631  14.507  0.5718 -0.7558 -0.0295
16154TIP3    H269878   6.277   6.577  14.365  0.0052  0.7733 -0.6387
16155TIP3   OH269879   1.759   6.744   0.704  0.7468  0.0758 -0.5065
16155TIP3    H169880   1.806   6.740   0.788  0.3555  0.3009 -0.2730
16155TIP3    H269881   1.795   6.821   0.660  1.7281 -0.6546 -1.0239
16156TIP3   OH269882   0.863   6.274   0.408 -0.0420 -0.4553 -0.0720
16156TIP3    H169883   0.941   6.224   0.434  1.3322  1.5063 -0.1537
16156TIP3    H269884   0.808   6.274   0.486  0.0836 -1.7661  0.0381
16157TIP3   OH269885   4.714   4.288  11.537  0.1841  0.0172 -0.6443
16157TIP3    H169886   4.723   4.343  11.459  1.2394  0.1670 -0.4237
16157TIP3    H269887   4.785   4.315  11.595 -0.0258 -0.7321 -0.0094
16158TIP3   OH269888   1.293   5.934   1.306 -0.3929 -0.3724  0.2803
16158TIP3    H169889   1.231   6.006   1.321  0.4428  0.5323 -0.5473
16158TIP3    H269890   1.247   5.857   1.341 -1.0829  0.6192  1.7072
16159TIP3   OH269891   0.853   3.910   5.731  0.2501 -0.1568  0.4640
16159TIP3    H169892   0.882   3.878   5.645  0.5757 -2.1984  1.2801
16159TIP3    H269893   0.757   3.912   5.724  0.2749 -0.2486  0.0236
16160TIP3   OH269894   4.611   4.225   0.557  0.1337  0.1888  0.2361
16160TIP3    H169895   4.567   4.140   0.554 -0.9061  0.7317 -1.0402
16160TIP3    H269896   4.657   4.225   0.640  0.1573 -1.6218  0.2706
16161TIP3   OH269897   0.111   0.272  13.255  0.4429 -0.1190 -0.1107
16161TIP3    H169898   0.031   0.295  13.301 -0.5301 -1.5930 -0.9699
16161TIP3    H269899   0.182   0.290  13.317 -0.7524 -1.4570  1.7393
16162TIP3   OH269900   4.637   1.507   5.749  0.1462 -0.1253 -0.0594
16162TIP3    H169901   4.579   1.431   5.757  0.9380 -0.6347  1.0435
16162TIP3    H269902   4.717   1.481   5.794 -0.0916  1.8736  1.6879
16163TIP3   OH269903   0.853   2.958  15.313  0.4432 -0.5778 -0.2686
16163TIP3    H169904   0.805   3.041  15.323 -0.4290 -1.1678  0.7577
16163TIP3    H269905   0.942   2.979  15.339  0.0727 -0.1036  0.6719
16164TIP3   OH269906   1.466   4.519  16.500 -0.2068  0.0600 -0.2144
16164TIP3    H169907   1.465   4.457  16.573 -0.8531 -0.2208 -0.4515
16164TIP3    H269908   1.425   4.472  16.428 -2.1240  1.2292  0.0247
16165TIP3   OH269909   0.299   4.744  16.899  0.1359 -0.1223 -0.1339
16165TIP3    H169910   0.211   4.779  16.908  0.6757  1.3056 -0.2331
16165TIP3    H269911   0.356   4.813  16.931  1.2896 -0.5737 -1.1481
16166TIP3   OH269912   6.391   2.993   3.915 -0.0187 -0.6876 -0.6204
16166TIP3    H169913   6.346   3.052   3.855  2.5555 -0.4334 -2.4697
16166TIP3    H269914   6.465   3.044   3.949  0.8006 -2.0498 -0.2686
16167TIP3   OH269915   1.409   0.380   3.938  0.0140 -0.3618 -0.7798
16167TIP3    H169916   1.392   0.469   3.967  0.9320 -0.1939 -0.7227
16167TIP3    H269917   1.323   0.344   3.918 -0.2633  0.9837 -2.1306
16168TIP3   OH269918   2.779   6.110  12.589  0.3662 -0.3657  0.7147
16168TIP3    H169919   2.720   6.184  12.574  0.3544  0.0355  2.5839
16168TIP3    H269920   2.864   6.142  12.558 -0.0270 -0.3539 -0.4272
16169TIP3   OH269921   3.670   3.663   5.790 -0.2415  0.1526 -0.1983
16169TIP3    H169922   3.730   3.710   5.733 -0.0419 -0.3528 -0.4083
16169TIP3    H269923   3.721   3.589   5.824 -0.7725 -0.3470 -0.4676
16170TIP3   OH269924   4.944   2.557  14.672  0.2211 -0.2483 -0.6836
16170TIP3    H169925   4.864   2.518  14.638 -1.6105  1.9895  0.7415
16170TIP3    H269926   4.974   2.615  14.602  0.6925 -1.1625 -1.2586
16171TIP3   OH269927   4.106   6.717  12.067 -0.3484  0.1884  0.1717
16171TIP3    H169928   4.175   6.748  12.125  0.5357  0.6298 -1.0656
16171TIP3    H269929   4.030   6.703  12.124  0.4121  0.8313  1.3714
16172TIP3   OH269930   3.121   1.745   2.699 -0.0402  0.4470 -0.3775
16172TIP3    H169931   3.041   1.693   2.689  0.2883 -0.1549  0.0198
16172TIP3    H269932   3.135   1.784   2.613  1.1988 -2.3106 -1.5373
16173TIP3   OH269933   3.447   3.072  11.831 -0.1823 -0.0650  0.3080
16173TIP3    H169934   3.488   3.156  11.810 -0.6401 -0.0978 -0.7555
16173TIP3    H269935   3.475   3.013  11.761  0.6810 -1.0078  1.3871
16174TIP3   OH269936   2.252   0.303   4.378 -0.7813 -0.0469 -0.0064
16174TIP3    H169937   2.320   0.238   4.361 -1.4051 -0.4223 -1.1290
16174TIP3    H269938   2.288   0.385   4.344 -1.2694 -0.4371 -1.5237
16175TIP3   OH269939   3.482   6.108   0.048  0.1576  0.5311  0.3209
16175TIP3    H169940   3.455   6.198   0.029  2.4610  1.2679  0.1708
16175TIP3    H269941   3.450   6.091   0.136 -1.4299  1.0044 -0.1436
16176TIP3   OH269942   0.644   4.781  12.018 -0.1599  0.2204  0.6678
16176TIP3    H169943   0.659   4.748  12.107  0.6006 -0.2269  0.3785
16176TIP3    H269944   0.729   4.774  11.975 -0.4426  0.7762  0.0101
16177TIP3   OH269945   1.217   4.762  17.123  0.3307 -0.4831 -0.1703
16177TIP3    H169946   1.221   4.685  17.067  1.4891 -0.9445  0.5061
16177TIP3    H269947   1.213   4.727  17.212  0.8831  0.2416  0.1479
16178TIP3   OH269948   1.605   6.617  14.215  0.0411 -0.0741 -0.4128
16178TIP3    H169949   1.680   6.575  14.256 -0.4348 -0.2630  0.2917
16178TIP3    H269950   1.639   6.700  14.180  0.6449 -0.3254 -0.4262
16179TIP3   OH269951   3.620   0.089   1.728  0.3150 -0.2858  0.9102
16179TIP3    H169952   3.660   0.083   1.641  1.0725 -0.9537  1.3004
16179TIP3    H269953   3.539   0.138   1.713 -0.0461 -1.2059 -0.3408
16180TIP3   OH269954   5.535   4.399  16.534  0.0850 -0.6920  0.0678
16180TIP3    H169955   5.483   4.478  16.518 -0.0891 -0.5561  1.1948
16180TIP3    H269956   5.470   4.333  16.558  0.3756 -0.6409  1.0447
16181TIP3   OH269957   4.722   0.326   1.433 -0.0680 -0.5029  0.2119
16181TIP3    H169958   4.636   0.352   1.465 -0.2790 -1.1552  0.1923
16181TIP3    H269959   4.704   0.257   1.369  0.4136  0.0406 -0.5233
16182TIP3   OH269960   1.243   2.244   1.680 -0.0645 -0.4631  0.5418
16182TIP3    H169961   1.254   2.332   1.643 -0.2393 -0.1852  1.1346
16182TIP3    H269962   1.257   2.185   1.606 -2.3793  0.1111 -0.4729
16183TIP3   OH269963   2.081   0.443   0.078 -0.2850  0.3131  0.1157
16183TIP3    H169964   2.015   0.384   0.113 -0.4725  0.3770 -0.1242
16183TIP3    H269965   2.110   0.402  -0.004  0.1144  0.1884  0.3161
16184TIP3   OH269966   6.079   5.951   5.928  0.4620 -0.1262  0.4014
16184TIP3    H169967   6.150   5.930   5.867  1.7099  0.6279  1.5033
16184TIP3    H269968   6.090   6.045   5.944  1.8783 -0.7007  3.7059
16185TIP3   OH269969   0.796   3.210  11.521  1.2798 -0.2917  0.2408
16185TIP3    H169970   0.757   3.122  11.525  0.3492  0.0831 -0.1856
16185TIP3    H269971   0.882   3.196  11.482  0.0727 -0.7419 -2.5490
16186TIP3   OH269972   2.644   0.615  12.299 -0.0230  0.2483  0.0529
16186TIP3    H169973   2.710   0.654  12.356  1.5068 -0.3590 -1.2082
16186TIP3    H269974   2.574   0.680  12.294  0.0846  0.5763  2.0620
16187TIP3   OH269975   5.222   0.452   1.299 -0.3509  0.8468 -0.0138
16187TIP3    H169976   5.240   0.500   1.218 -1.1039  1.0190 -0.0842
16187TIP3    H269977   5.162   0.509   1.347 -1.5848 -0.1879 -0.2800
16188TIP3   OH269978   3.218   2.188  12.522  0.0145 -0.4172 -0.1230
16188TIP3    H169979   3.286   2.130  12.487 -1.3935 -1.4259 -1.3731
16188TIP3    H269980   3.239   2.197  12.615  1.8104 -0.7082 -0.4648
16189TIP3   OH269981   6.732   1.403  12.480  0.2629 -0.5059 -1.4223
16189TIP3    H169982   6.661   1.431  12.423 -0.2411  0.0521 -0.5508
16189TIP3    H269983   6.693   1.332  12.532 -0.4205  1.2615  0.6219
16190TIP3   OH269984   4.283   5.345   4.629 -0.3634 -0.5039  0.4866
16190TIP3    H169985   4.309   5.426   4.674 -0.2543 -0.2827  0.0342
16190TIP3    H269986   4.292   5.277   4.695  2.4297 -0.6188  0.1133
16191TIP3   OH269987   5.465   3.347   1.321  0.0013 -0.0363 -0.2617
16191TIP3    H169988   5.549   3.301   1.325  0.2803  0.5012  0.1422
16191TIP3    H269989   5.409   3.289   1.269  0.8005 -0.1143 -1.0714
16192TIP3   OH269990   1.315   2.494  15.016  0.0447  0.0516  0.4819
16192TIP3    H169991   1.287   2.448  14.937  2.5204 -0.8026 -0.0147
16192TIP3    H269992   1.273   2.579  15.010  0.6903  0.2830 -2.1771
16193TIP3   OH269993   4.175   1.370   3.764 -0.3032 -0.5243 -0.1179
16193TIP3    H169994   4.134   1.413   3.839 -0.2680 -0.1141 -0.3334
16193TIP3    H269995   4.184   1.279   3.792 -0.6230 -0.4525  0.2376
16194TIP3   OH269996   4.612   1.464   1.593 -0.3579  0.3470  0.2102
16194TIP3    H169997   4.531   1.413   1.594 -1.8454  2.5260  1.5377
16194TIP3    H269998   4.669   1.419   1.656 -0.8045 -0.7950 -0.1749
16195TIP3   OH269999   2.143   5.648  16.521 -0.0358  0.5146  0.2327
16195TIP3    H170000   2.059   5.637  16.565 -0.2719  0.5459 -0.2044
16195TIP3    H270001   2.170   5.738  16.542  0.0597  0.3919  0.6566
16196TIP3   OH270002   0.202   0.156  13.667  0.0627 -0.2915 -0.1801
16196TIP3    H170003   0.205   0.208  13.748 -0.2698 -0.4271 -0.0779
16196TIP3    H270004   0.236   0.214  13.600 -0.8695  0.2729 -0.1778
16197TIP3   OH270005   3.659   1.402  10.910  0.2666  0.1432  0.1002
16197TIP3    H170006   3.750   1.414  10.883  0.6284  0.6414  1.4468
16197TIP3    H270007   3.665   1.360  10.996 -0.8248 -1.2388 -0.4667
16198TIP3   OH270008   3.771   5.922  12.891 -0.0612 -0.0794 -0.2521
16198TIP3    H170009   3.724   6.003  12.910  0.3665  0.0484  0.2679
16198TIP3    H270010   3.765   5.913  12.796 -1.1574 -0.0794 -0.2026
16199TIP3   OH270011   4.140   2.908   0.364 -0.1164 -0.6632 -0.0024
16199TIP3    H170012   4.104   2.961   0.435 -1.6610  0.7248 -1.7308
16199TIP3    H270013   4.064   2.869   0.322  0.9057 -3.1843  0.3138
16200TIP3   OH270014   4.937   4.004   4.513  0.1843  0.2710  0.3224
16200TIP3    H170015   4.906   4.047   4.593  2.3789  1.6349  0.5098
16200TIP3    H270016   4.987   4.071   4.467  1.3729 -1.2860 -0.7774
16201TIP3   OH270017   1.791   3.088  11.792 -0.1320 -0.2758  0.2513
16201TIP3    H170018   1.819   3.179  11.778  0.7467 -0.6387 -0.4267
16201TIP3    H270019   1.851   3.036  11.739  0.2320 -1.3568  1.6512
16202TIP3   OH270020   6.743   4.918  16.691 -0.9639 -0.1359 -0.0565
16202TIP3    H170021   6.702   4.852  16.746  0.9520 -2.2420 -0.9897
16202TIP3    H270022   6.828   4.881  16.668  0.8379  3.2440  0.4383
16203TIP3   OH270023   1.213   3.751  11.024  0.0458 -0.1584  0.1009
16203TIP3    H170024   1.207   3.685  10.956  0.7346 -0.3233  0.1924
16203TIP3    H270025   1.129   3.797  11.021 -1.0284 -1.9528  0.9992
16204TIP3   OH270026   0.994   3.617   3.548  0.1045  0.5852 -0.2878
16204TIP3    H170027   0.934   3.677   3.592 -0.6647  0.7107 -1.4888
16204TIP3    H270028   0.961   3.530   3.571 -1.8061  0.6277 -2.5280
16205TIP3   OH270029   3.503   4.547  14.911 -0.2622 -0.8143 -0.1559
16205TIP3    H170030   3.579   4.604  14.897  0.4768 -1.2422  1.7278
16205TIP3    H270031   3.484   4.509  14.825 -0.2748  1.6032 -1.3104
16206TIP3   OH270032   2.986   1.383  13.988 -0.3416  0.5123 -0.3868
16206TIP3    H170033   3.018   1.341  14.068  1.5149  4.7575  1.3755
16206TIP3    H270034   3.019   1.326  13.918  0.3432 -1.9066  1.7266
16207TIP3   OH270035   5.118   0.813   1.928  0.7818 -0.2356  0.4307
16207TIP3    H170036   5.067   0.854   1.858  0.8985 -2.3396 -0.9901
16207TIP3    H270037   5.062   0.820   2.006 -1.5783 -2.0963 -0.9707
16208TIP3   OH270038   6.383   4.174  15.428  0.2559  0.4607 -0.0934
16208TIP3    H170039   6.329   4.126  15.366  0.2039  1.0769 -0.5337
16208TIP3    H270040   6.460   4.118  15.441 -0.6417 -0.5938  0.8351
16209TIP3   OH270041   1.830   6.585  14.375  0.2383  0.5484  0.2986
16209TIP3    H170042   1.893   6.656  14.367  0.2597  0.2974 -3.2398
16209TIP3    H270043   1.875   6.519  14.428  1.0781  2.1888  1.7322
16210TIP3   OH270044   2.415   4.831   2.513  0.3746 -0.2464 -0.2783
16210TIP3    H170045   2.350   4.762   2.497  0.9300 -0.7863 -0.2491
16210TIP3    H270046   2.427   4.830   2.608  0.2258  0.0401 -0.2564
16211TIP3   OH270047   5.248   5.709   1.152  0.5444 -0.7495  0.1189
16211TIP3    H170048   5.199   5.639   1.196 -1.1235  0.3055  0.0421
16211TIP3    H270049   5.313   5.663   1.099  0.9784 -2.1425  1.7573
16212TIP3   OH270050   1.324   3.831  12.700  0.1670 -0.3441  0.1447
16212TIP3    H170051   1.309   3.768  12.771  1.2642 -1.6749 -0.7587
16212TIP3    H270052   1.250   3.891  12.706  0.8059  0.3308  3.1671
16213TIP3   OH270053   2.333   3.057   3.297  0.0137  0.1847 -0.3626
16213TIP3    H170054   2.367   3.026   3.381  0.4732  1.3271 -0.1034
16213TIP3    H270055   2.240   3.074   3.314 -0.5090 -1.9372 -0.7869
16214TIP3   OH270056   2.272   4.992  13.807 -0.3062 -0.0399  0.4352
16214TIP3    H170057   2.327   4.972  13.882 -0.7647  1.5048  1.2252
16214TIP3    H270058   2.190   4.946  13.824  0.4387 -1.7990 -0.4229
16215TIP3   OH270059   3.252   3.154  13.742 -0.5062  0.9512 -0.0559
16215TIP3    H170060   3.242   3.248  13.731 -2.7828  0.5674 -2.0916
16215TIP3    H270061   3.272   3.121  13.654 -0.0275 -0.5278  0.5674
16216TIP3   OH270062   0.115   2.608   3.256 -0.3906  0.3461  0.3644
16216TIP3    H170063   0.155   2.569   3.334  0.4877 -0.8342 -0.6304
16216TIP3    H270064   0.116   2.537   3.191 -1.8841  1.0342 -0.4676
16217TIP3   OH270065   0.698   4.446   4.571  0.0987 -0.1718  0.5749
16217TIP3    H170066   0.659   4.436   4.658  0.4212 -1.6763  0.5701
16217TIP3    H270067   0.632   4.410   4.511 -0.4958  1.6441  0.0782
16218TIP3   OH270068   4.834   0.326   3.412  0.2613 -0.3411  0.2687
16218TIP3    H170069   4.822   0.345   3.319 -0.6060 -2.9973 -0.2324
16218TIP3    H270070   4.780   0.391   3.457 -1.0475 -0.3551 -1.2097
16219TIP3   OH270071   2.324   4.453   4.612  0.3659 -0.0857  0.2345
16219TIP3    H170072   2.398   4.397   4.587 -0.5429 -1.2461  0.0424
16219TIP3    H270073   2.289   4.485   4.529  0.8545  0.7411  0.3430
16220TIP3   OH270074   2.570   5.533   1.435 -0.4747  0.1211  0.9914
16220TIP3    H170075   2.515   5.462   1.468 -1.9755  0.6715 -0.2444
16220TIP3    H270076   2.508   5.601   1.409  0.7924  0.7685 -0.4494
16221TIP3   OH270077   0.135   0.382   1.010 -0.5294  0.1306 -0.2821
16221TIP3    H170078   0.077   0.380   1.086 -0.0717 -0.0586  0.0685
16221TIP3    H270079   0.209   0.326   1.034 -1.0402 -1.0875 -1.4204
16222TIP3   OH270080   1.199   3.462  14.893 -0.5369  0.3378 -0.6329
16222TIP3    H170081   1.148   3.382  14.910 -0.5173  0.6728  1.1661
16222TIP3    H270082   1.290   3.433  14.897 -0.5356  0.3700 -0.4397
16223TIP3   OH270083   4.933   2.108   3.957 -0.5275  0.3487  0.7380
16223TIP3    H170084   4.845   2.106   3.996 -0.3401 -0.9316  1.1616
16223TIP3    H270085   4.919   2.134   3.866 -1.1800  1.5268  1.1524
16224TIP3   OH270086   3.047   4.814   5.173 -0.4710 -0.0854 -0.1540
16224TIP3    H170087   3.067   4.746   5.238 -0.2697  0.0371 -0.0853
16224TIP3    H270088   3.002   4.882   5.223 -1.6720 -0.6556 -0.4397
16225TIP3   OH270089   6.697   0.849   4.606 -0.4814  0.4989 -0.2564
16225TIP3    H170090   6.656   0.818   4.524 -0.0644 -1.7209  0.2983
16225TIP3    H270091   6.790   0.829   4.595 -0.4502  0.0079  0.8163
16226TIP3   OH270092   0.873   1.844  11.219  0.0028 -0.1374  0.0986
16226TIP3    H170093   0.901   1.933  11.200  0.8585 -0.4820 -0.3558
16226TIP3    H270094   0.839   1.811  11.136  1.3753 -0.8087 -0.2419
16227TIP3   OH270095   1.748   5.118  11.923 -0.2039  0.8947  0.1264
16227TIP3    H170096   1.653   5.116  11.909 -0.0961 -0.9952 -0.7231
16227TIP3    H270097   1.776   5.202  11.887 -1.5939  1.6710  0.7780
16228TIP3   OH270098   0.234   0.531  14.354 -0.1639  0.2483 -0.1722
16228TIP3    H170099   0.182   0.587  14.296 -0.0707  1.1906  0.6177
16228TIP3    H270100   0.238   0.580  14.436 -1.0142 -1.4190  0.9340
16229TIP3   OH270101   6.509   6.500  11.821 -0.2288 -0.9427  0.4694
16229TIP3    H170102   6.569   6.561  11.864 -2.1419  1.3299  0.1218
16229TIP3    H270103   6.549   6.485  11.735  0.3528 -0.2685  0.6107
16230TIP3   OH270104   3.593   3.633  10.869  0.6054 -0.1717 -0.5311
16230TIP3    H170105   3.631   3.710  10.827 -0.2185  0.1978 -0.6144
16230TIP3    H270106   3.571   3.662  10.957 -0.4974 -0.0598 -0.8358
16231TIP3   OH270107   4.063   0.434  14.436 -0.3170 -0.1363  0.1172
16231TIP3    H170108   3.996   0.474  14.381 -1.7277 -0.0399  1.8020
16231TIP3    H270109   4.046   0.468  14.524  0.4538 -1.9401  1.0273
16232TIP3   OH270110   2.550   4.568   2.046 -0.4147  0.8645 -0.5086
16232TIP3    H170111   2.613   4.598   2.113 -1.1969 -1.1006  1.2151
16232TIP3    H270112   2.515   4.649   2.009  1.7237  2.0107 -0.1623
16233TIP3   OH270113   4.387   4.453  12.092 -0.3049 -0.3399 -0.2401
16233TIP3    H170114   4.359   4.477  12.003 -0.7167 -0.5632 -0.1767
16233TIP3    H270115   4.388   4.357  12.091  0.9194 -0.3424 -0.3695
16234TIP3   OH270116   2.463   1.018  12.097  0.1590  0.4608 -0.2472
16234TIP3    H170117   2.421   1.096  12.061  1.4782  0.7093 -1.3631
16234TIP3    H270118   2.486   0.965  12.020 -2.4330 -2.0356  0.5366
16235TIP3   OH270119   4.642   1.851  14.550 -0.1483  0.0730 -0.5760
16235TIP3    H170120   4.669   1.917  14.614 -0.4240  1.4360 -1.8223
16235TIP3    H270121   4.663   1.767  14.592  0.1173  0.9323  1.0853
16236TIP3   OH270122   1.361   1.432   1.556  0.5158  0.0520 -0.1589
16236TIP3    H170123   1.267   1.451   1.560  0.4311 -0.4473  0.2747
16236TIP3    H270124   1.378   1.415   1.463  0.2803  0.6498 -0.3129
16237TIP3   OH270125   5.530   3.509   0.572 -0.3627 -0.4229 -0.0198
16237TIP3    H170126   5.534   3.533   0.664  0.7288 -0.0088 -0.1664
16237TIP3    H270127   5.444   3.539   0.543 -0.2574  0.4682  0.5740
16238TIP3   OH270128   3.781   6.404  14.748 -0.2358 -0.1861 -0.3161
16238TIP3    H170129   3.756   6.496  14.737 -0.4697 -0.2243 -0.0953
16238TIP3    H270130   3.873   6.401  14.720 -0.9010 -0.3511 -2.7539
16239TIP3   OH270131   6.027   1.127  17.207 -0.8169  0.2521 -0.1139
16239TIP3    H170132   6.076   1.206  17.187  0.1059 -0.1362  0.5347
16239TIP3    H270133   6.071   1.090  17.284 -1.1791 -0.9341 -0.4505
16240TIP3   OH270134   3.785   4.393   4.986 -0.0949  0.5394 -0.3128
16240TIP3    H170135   3.715   4.329   5.001  0.4233 -0.6307 -2.5424
16240TIP3    H270136   3.739   4.474   4.963 -0.7163  0.5640  0.9060
16241TIP3   OH270137   6.458   3.167  15.885 -0.1786  0.4581  0.1449
16241TIP3    H170138   6.454   3.242  15.945  0.3649  0.5658  0.0486
16241TIP3    H270139   6.540   3.179  15.837  1.0043 -1.3177  1.5772
16242TIP3   OH270140   0.601   2.688  14.407  0.2286 -0.1129  0.4769
16242TIP3    H170141   0.682   2.735  14.427  0.6158 -0.8310  0.6202
16242TIP3    H270142   0.547   2.699  14.485  0.4242 -0.1253  0.6154
16243TIP3   OH270143   0.917   1.518  13.139 -0.3084 -0.0154 -0.2226
16243TIP3    H170144   0.968   1.491  13.062 -0.2045  1.0065 -0.5197
16243TIP3    H270145   0.971   1.585  13.181 -0.3035 -0.6674  0.8272
16244TIP3   OH270146   3.591   4.888  11.313  0.2019 -0.4855  0.7044
16244TIP3    H170147   3.606   4.809  11.262 -0.3810  0.1268 -0.4715
16244TIP3    H270148   3.516   4.930  11.269  0.4505  0.6619  1.3530
16245TIP3   OH270149   1.074   5.700   3.826 -0.2158 -0.3411 -0.4846
16245TIP3    H170150   0.990   5.720   3.866 -0.5152  0.3236 -1.4095
16245TIP3    H270151   1.101   5.618   3.866 -0.9120 -0.1433  0.4213
16246TIP3   OH270152   1.139   5.796  11.036 -0.1070  0.5278  0.2618
16246TIP3    H170153   1.225   5.833  11.056 -0.7143  1.8963  0.4665
16246TIP3    H270154   1.091   5.867  10.992 -0.8796 -0.4565 -0.5571
16247TIP3   OH270155   6.338   0.869  15.094 -0.6154 -0.2820  0.1047
16247TIP3    H170156   6.320   0.962  15.108  0.2566 -0.2547  1.1867
16247TIP3    H270157   6.321   0.828  15.179 -0.1785 -0.9804 -0.1336
16248TIP3   OH270158   4.812   4.280   0.218  0.0013  0.1125 -0.4747
16248TIP3    H170159   4.889   4.330   0.193  0.3297 -0.7586 -1.2503
16248TIP3    H270160   4.815   4.202   0.164 -0.2144 -1.0197  1.0741
16249TIP3   OH270161   3.469   3.162   4.913 -0.7014  0.3279 -0.2268
16249TIP3    H170162   3.519   3.189   4.989  1.3077 -1.7562 -0.7051
16249TIP3    H270163   3.392   3.219   4.913  0.6334  2.2686  1.7170
16250TIP3   OH270164   3.342   1.847   3.612  0.0436 -0.2766 -0.7312
16250TIP3    H170165   3.424   1.847   3.662  0.9228  1.2449 -2.0670
16250TIP3    H270166   3.366   1.809   3.527 -0.9606 -1.0359 -0.6909
16251TIP3   OH270167   5.522   3.625   0.150 -0.0916 -0.5171  0.0409
16251TIP3    H170168   5.471   3.656   0.225  1.2925  1.1271  0.3718
16251TIP3    H270169   5.522   3.698   0.089  1.0458 -0.8257 -0.3519
16252TIP3   OH270170   6.488   4.065   3.723 -0.1543 -0.3935 -0.4688
16252TIP3    H170171   6.396   4.070   3.748 -0.4648 -0.7481 -1.5012
16252TIP3    H270172   6.498   4.131   3.654  0.0781 -1.1551 -1.1817
16253TIP3   OH270173   5.256   0.142   1.017 -0.8401  0.6490  0.3586
16253TIP3    H170174   5.267   0.158   0.923 -0.3873  0.0627  0.3089
16253TIP3    H270175   5.184   0.200   1.042 -2.0506 -0.3577 -0.6656
16254TIP3   OH270176   3.036   1.834  14.215  0.0266  0.1857  0.3697
16254TIP3    H170177   2.958   1.866  14.169 -0.9230  0.7743  2.3023
16254TIP3    H270178   3.109   1.863  14.160 -1.0672 -0.6919 -1.6841
16255TIP3   OH270179   0.590   4.397  15.557 -0.1004 -0.1741 -0.0550
16255TIP3    H170180   0.558   4.317  15.598  2.5614 -0.0096  2.6588
16255TIP3    H270181   0.556   4.393  15.467 -1.2506 -3.6033  0.3968
16256TIP3   OH270182   6.162   2.922  15.292  0.0769 -0.2161 -0.3967
16256TIP3    H170183   6.213   2.841  15.298  0.4505  0.1263  2.0496
16256TIP3    H270184   6.133   2.926  15.200  1.7757 -2.0342 -1.0701
16257TIP3   OH270185   5.440   3.655  14.915 -0.0386 -0.1249 -0.0056
16257TIP3    H170186   5.431   3.724  14.980 -0.3754 -1.2875  1.2251
16257TIP3    H270187   5.352   3.644  14.879 -0.1891 -0.5334  0.4733
16258TIP3   OH270188   4.055   1.752   3.329  0.2789  0.2358 -0.8278
16258TIP3    H170189   4.008   1.792   3.257 -1.6480  0.7750  0.6503
16258TIP3    H270190   4.111   1.821   3.363 -1.7703  1.2801  0.6318
16259TIP3   OH270191   0.444   6.616  17.021  0.6288 -0.5586 -0.2962
16259TIP3    H170192   0.491   6.694  17.050 -1.5992  0.8288 -0.1595
16259TIP3    H270193   0.456   6.613  16.926  1.9409 -0.9231 -0.1300
16260TIP3   OH270194   4.698   3.301   4.776 -0.0059 -0.4463 -0.3444
16260TIP3    H170195   4.778   3.351   4.759  0.8761 -1.4601  0.6247
16260TIP3    H270196   4.661   3.284   4.689  1.6086 -1.1482 -0.9320
16261TIP3   OH270197   2.177   3.571  14.213  0.1538  0.1802 -0.5057
16261TIP3    H170198   2.228   3.515  14.271 -0.2379  0.8130  0.5000
16261TIP3    H270199   2.088   3.568  14.249  0.5545  3.2852  1.1384
16262TIP3   OH270200   6.556   6.023  16.554 -0.3915  1.0781  0.2307
16262TIP3    H170201   6.549   6.016  16.459 -0.5181  0.2233  0.2969
16262TIP3    H270202   6.644   6.055  16.570  0.8879 -1.9375 -0.0725
16263TIP3   OH270203   2.191   4.682   4.398  0.1117 -0.3741 -0.3761
16263TIP3    H170204   2.129   4.726   4.341 -0.6016 -0.9850 -0.0946
16263TIP3    H270205   2.258   4.647   4.339  0.0600  0.0760 -0.7050
16264TIP3   OH270206   3.682   5.991  17.119  0.1386 -0.2406  0.0776
16264TIP3    H170207   3.609   6.052  17.111  0.0837 -0.3047  0.0865
16264TIP3    H270208   3.666   5.926  17.050  0.5799  0.1517 -0.4011
16265TIP3   OH270209   6.501   3.508   4.291  0.2591  0.2770 -0.3172
16265TIP3    H170210   6.538   3.488   4.377 -1.2078 -0.0617  0.2651
16265TIP3    H270211   6.563   3.470   4.228  1.1929  0.2640  0.5951
16266TIP3   OH270212   3.639   4.859   3.822 -0.3281 -0.3895  0.1408
16266TIP3    H170213   3.550   4.893   3.818 -2.0047 -3.9861  1.6613
16266TIP3    H270214   3.680   4.906   3.895 -1.2832  0.6966  0.0011
16267TIP3   OH270215   5.130   6.054   2.283  0.1924 -0.6100 -0.5853
16267TIP3    H170216   5.193   6.012   2.341  2.4075  0.1799 -2.2635
16267TIP3    H270217   5.140   6.147   2.300 -1.2097 -0.5069 -0.2479
16268TIP3   OH270218   3.187   6.257   1.927 -0.3649  0.0771 -0.0666
16268TIP3    H170219   3.224   6.233   2.012  0.2087 -1.4559 -0.7049
16268TIP3    H270220   3.226   6.342   1.907  1.3503 -0.6158  0.1514
16269TIP3   OH270221   1.880   5.173   2.714 -0.3657 -0.0137 -0.3698
16269TIP3    H170222   1.823   5.139   2.645  0.4405  1.6352 -1.9395
16269TIP3    H270223   1.968   5.143   2.690 -0.0480  0.7620 -0.2134
16270TIP3   OH270224   5.758   2.415   2.867  0.1216 -0.1655 -0.0656
16270TIP3    H170225   5.809   2.446   2.792  1.1893  0.2503  0.8251
16270TIP3    H270226   5.694   2.484   2.883  1.1665  0.6588  0.6292
16271TIP3   OH270227   2.692   6.523  13.918 -0.4120  0.0620 -0.0117
16271TIP3    H170228   2.743   6.456  13.872 -1.8492 -1.5733  0.6540
16271TIP3    H270229   2.696   6.497  14.010  0.0148  1.6244  0.4298
16272TIP3   OH270230   4.648   5.774  17.202 -0.2222 -0.6679  0.0340
16272TIP3    H170231   4.647   5.697  17.145  0.8049 -0.3433 -0.4479
16272TIP3    H270232   4.683   5.844  17.147 -2.0071  0.4068  0.1681
16273TIP3   OH270233   5.619   6.252  12.102 -0.2893 -0.0917  0.6500
16273TIP3    H170234   5.673   6.313  12.151 -0.1072  0.1426  0.1660
16273TIP3    H270235   5.592   6.301  12.024 -0.1080 -0.6322  0.2393
16274TIP3   OH270236   0.675   2.954  13.788 -0.3613  0.4664  0.0784
16274TIP3    H170237   0.752   2.900  13.807 -0.9112 -1.3415 -2.3625
16274TIP3    H270238   0.612   2.931  13.856 -0.9838 -3.0055 -1.4527
16275TIP3   OH270239   1.866   2.772   1.030 -0.0986  0.0725 -0.2393
16275TIP3    H170240   1.773   2.767   1.010 -0.2210 -2.5556  0.5924
16275TIP3    H270241   1.874   2.846   1.090 -1.8395 -0.3285  0.5423
16276TIP3   OH270242   4.794   3.504   1.767 -0.2481  0.2300  0.1928
16276TIP3    H170243   4.801   3.413   1.796  0.6047  0.2087 -0.0634
16276TIP3    H270244   4.848   3.554   1.828 -1.5516  0.7373  0.9841
16277TIP3   OH270245   3.775   6.005   0.584  0.0541  0.4629 -0.0373
16277TIP3    H170246   3.863   6.042   0.581 -0.0183  0.5837 -1.1377
16277TIP3    H270247   3.768   5.965   0.670  0.8049  1.3970  0.4722
16278TIP3   OH270248   2.425   5.302  12.982 -0.4681 -0.1962  0.4534
16278TIP3    H170249   2.345   5.321  13.031  0.3198  0.0613  1.6740
16278TIP3    H270250   2.415   5.211  12.954 -0.9915 -0.3151  0.9958
16279TIP3   OH270251   4.244   3.264  12.770  0.4766  0.0094  0.0676
16279TIP3    H170252   4.205   3.180  12.747 -0.2520  0.2954  0.2338
16279TIP3    H270253   4.206   3.286  12.855  1.3046  0.1164  0.4239
16280TIP3   OH270254   3.822   4.031  15.357  0.0508 -0.0426 -0.0749
16280TIP3    H170255   3.843   4.079  15.277  0.8288 -1.2158 -0.6093
16280TIP3    H270256   3.735   3.994  15.341 -0.9475  1.8391  0.6898
16281TIP3   OH270257   5.792   4.615  14.050  0.2104 -0.4891  0.0551
16281TIP3    H170258   5.713   4.668  14.065 -0.0841 -0.8464 -0.2338
16281TIP3    H270259   5.861   4.665  14.093 -0.0857  0.0744 -0.0984
16282TIP3   OH270260   3.089   3.268  13.086 -0.0779  0.0631  1.0821
16282TIP3    H170261   3.028   3.251  13.157  1.4899  0.6264  2.6424
16282TIP3    H270262   3.077   3.194  13.026 -2.0941  0.0524  1.4275
16283TIP3   OH270263   4.480   0.665   2.998  0.5964  0.0632 -0.3478
16283TIP3    H170264   4.551   0.725   2.973  1.2804 -0.6685 -0.1891
16283TIP3    H270265   4.424   0.717   3.055  2.1015  0.0752  1.2016
16284TIP3   OH270266   3.681   3.702  16.636  0.1433  0.6226 -0.0055
16284TIP3    H170267   3.685   3.767  16.565 -1.4306  1.8941  0.9789
16284TIP3    H270268   3.620   3.636  16.604 -3.6499  3.0817  1.4130
16285TIP3   OH270269   4.627   5.412  13.332 -0.1797 -0.0521 -0.5694
16285TIP3    H170270   4.619   5.480  13.265 -1.7402  1.2869  0.8661
16285TIP3    H270271   4.650   5.459  13.412 -2.3799 -1.0079  0.7176
16286TIP3   OH270272   4.900   1.363  14.597 -0.4817  0.4933  0.7036
16286TIP3    H170273   4.830   1.400  14.651 -0.7304 -0.4657  1.0543
16286TIP3    H270274   4.863   1.283  14.560  1.0263 -1.1475  2.5015
16287TIP3   OH270275   3.846   6.118   3.462 -0.1747 -0.0626  0.2376
16287TIP3    H170276   3.915   6.053   3.451 -0.2981  0.1149 -1.9881
16287TIP3    H270277   3.766   6.074   3.432 -0.4064  0.8153 -0.4751
16288TIP3   OH270278   3.050   2.434  16.520 -0.0068  0.1015 -0.0102
16288TIP3    H170279   3.137   2.449  16.481  0.4469  1.3946  1.3957
16288TIP3    H270280   2.992   2.493  16.472  0.7717  2.6019  1.8942
16289TIP3   OH270281   1.381   0.560  11.633 -0.2828  0.5344  0.1243
16289TIP3    H170282   1.301   0.531  11.676 -0.2754 -1.1318 -0.8993
16289TIP3    H270283   1.351   0.625  11.569 -0.4463  1.9842  1.6074
16290TIP3   OH270284   1.566   3.687   3.886 -0.4644  0.3395  0.3314
16290TIP3    H170285   1.643   3.652   3.931 -1.2485 -0.1710  1.3120
16290TIP3    H270286   1.558   3.633   3.807 -0.5115 -0.4099  0.8379
16291TIP3   OH270287   4.304   5.082   5.816  0.0148 -0.0964 -0.2501
16291TIP3    H170288   4.344   5.001   5.845  0.2011 -0.7660 -2.2456
16291TIP3    H270289   4.282   5.129   5.897  0.8949 -1.6269  0.9109
16292TIP3   OH270290   1.213   2.716   0.684  0.6249  1.0734 -0.3806
16292TIP3    H170291   1.297   2.750   0.653 -0.8271  3.9851 -1.4213
16292TIP3    H270292   1.201   2.758   0.769 -0.5313  2.0738 -1.0184
16293TIP3   OH270293   0.219   4.452  16.807 -0.3178  0.1960 -0.0550
16293TIP3    H170294   0.212   4.509  16.730 -3.8316 -0.3915 -0.3637
16293TIP3    H270295   0.208   4.512  16.881  0.7646  0.4655 -0.0946
16294TIP3   OH270296   3.494   2.042  13.307 -0.1411 -0.2926  0.4890
16294TIP3    H170297   3.519   2.134  13.318 -1.3955 -0.0572  1.7781
16294TIP3    H270298   3.437   2.024  13.382 -0.6107 -1.8845 -0.2027
16295TIP3   OH270299   2.925   6.660   3.288  0.1709 -0.7728  0.5156
16295TIP3    H170300   3.005   6.709   3.304  0.1634 -0.4122 -0.4768
16295TIP3    H270301   2.884   6.704   3.213  0.3411 -2.4700 -0.6366
16296TIP3   OH270302   6.227   0.086   6.574 -0.2633 -0.0331 -0.4905
16296TIP3    H170303   6.299   0.148   6.559 -2.3537  2.3300 -1.4680
16296TIP3    H270304   6.265   0.001   6.555  2.7897  0.8524  0.9541
16297TIP3   OH270305   6.395   2.751   4.471  0.0165  0.1886 -0.1765
16297TIP3    H170306   6.347   2.834   4.467  0.6496  0.5281 -1.1852
16297TIP3    H270307   6.382   2.712   4.385 -1.0627 -1.2323  0.6100
16298TIP3   OH270308   5.183   0.888   4.954  0.2085 -0.2876  0.0660
16298TIP3    H170309   5.112   0.824   4.960  1.1610 -1.4963 -1.0632
16298TIP3    H270310   5.204   0.908   5.045 -1.0464 -0.4888  0.4278
16299TIP3   OH270311   0.176   5.406   0.705  0.7998  0.8164  0.6090
16299TIP3    H170312   0.216   5.324   0.677 -0.6329  0.2069  0.2753
16299TIP3    H270313   0.249   5.458   0.740  2.1800  0.4327 -1.5116
16300TIP3   OH270314   5.315   1.753   5.932  0.6270  0.3936 -0.9110
16300TIP3    H170315   5.325   1.742   6.027  0.1137  0.3446 -0.8610
16300TIP3    H270316   5.393   1.802   5.905  2.4044 -2.2741 -0.9523
16301TIP3   OH270317   6.371   3.059  11.299 -0.3178 -0.0504 -0.4560
16301TIP3    H170318   6.386   3.025  11.211 -2.0558 -0.9143 -0.4769
16301TIP3    H270319   6.408   3.147  11.298  0.1494 -0.2378 -1.8872
16302TIP3   OH270320   4.357   2.050   2.882  0.1967  0.0771 -0.2770
16302TIP3    H170321   4.289   2.084   2.940 -0.0354 -0.7491 -0.0517
16302TIP3    H270322   4.437   2.053   2.936  0.1545  0.1493 -0.2181
16303TIP3   OH270323   6.751   1.315   2.400  0.1885 -0.0361  0.7229
16303TIP3    H170324   6.692   1.314   2.324  1.5702 -1.6052 -0.3897
16303TIP3    H270325   6.775   1.408   2.410 -0.7619  0.3246 -0.1420
16304TIP3   OH270326   4.827   2.642  11.858 -0.0462  0.1845 -0.6157
16304TIP3    H170327   4.886   2.609  11.790  0.2345  1.7507 -1.1849
16304TIP3    H270328   4.801   2.729  11.827 -1.2203  0.2680  0.5055
16305TIP3   OH270329   6.078   4.804   0.090 -0.0800 -0.1880  0.0622
16305TIP3    H170330   6.038   4.888   0.115  2.0291  0.6105  1.0633
16305TIP3    H270331   6.029   4.739   0.140 -1.8843  0.3759 -0.8713
16306TIP3   OH270332   4.935   6.203  10.586 -0.9113  0.0825  0.0785
16306TIP3    H170333   4.951   6.229  10.677 -0.9328  1.3845 -0.2696
16306TIP3    H270334   4.847   6.166  10.587 -0.9481  0.1759  0.5790
16307TIP3   OH270335   6.440   0.351   5.254 -0.2177 -0.2545  0.2066
16307TIP3    H170336   6.410   0.296   5.326  0.7927 -0.6579  0.3322
16307TIP3    H270337   6.517   0.396   5.288  0.6759 -0.9604 -0.8156
16308TIP3   OH270338   4.163   2.626   5.590  0.4898 -0.1368 -0.0957
16308TIP3    H170339   4.183   2.679   5.513  0.1209  0.2980  0.1029
16308TIP3    H270340   4.175   2.685   5.664  0.8666 -0.5575  0.1901
16309TIP3   OH270341   3.223   1.374   0.530  1.0268 -0.0921 -0.0322
16309TIP3    H170342   3.193   1.465   0.527 -0.2029 -0.3869  1.8602
16309TIP3    H270343   3.312   1.380   0.565  0.3374  0.3164  1.7611
16310TIP3   OH270344   1.353   2.317   5.253 -0.1630  0.5181 -0.7164
16310TIP3    H170345   1.321   2.242   5.302 -0.5166  0.3965 -1.1305
16310TIP3    H270346   1.308   2.392   5.293 -1.2723  0.3125 -1.5361
16311TIP3   OH270347   1.386   4.715   4.396  0.3167  0.1909 -0.7668
16311TIP3    H170348   1.321   4.716   4.465 -0.0505 -0.0939 -1.1029
16311TIP3    H270349   1.437   4.796   4.409 -0.1636  0.4632 -0.5608
16312TIP3   OH270350   0.954   2.660   2.527  0.3085 -0.3940 -0.1903
16312TIP3    H170351   0.862   2.679   2.549  0.4806 -1.3338  1.4334
16312TIP3    H270352   0.970   2.573   2.563  1.6134 -0.5881 -1.1933
16313TIP3   OH270353   5.527   5.791   5.327  0.6312 -0.2710  0.2990
16313TIP3    H170354   5.480   5.732   5.267  0.0225  1.2563 -0.7969
16313TIP3    H270355   5.592   5.735   5.370  0.3225 -1.6595 -0.9497
16314TIP3   OH270356   4.850   5.938   5.733 -0.4148 -0.5052  0.2684
16314TIP3    H170357   4.938   5.960   5.703 -0.0252  0.2921  1.9063
16314TIP3    H270358   4.819   5.872   5.671 -0.2606  2.0858 -2.8299
16315TIP3   OH270359   5.320   2.607   3.187  0.1482  0.0238  0.1370
16315TIP3    H170360   5.344   2.697   3.212 -0.8707  0.4487 -0.3659
16315TIP3    H270361   5.282   2.570   3.267  1.0661 -0.1469  0.5014
16316TIP3   OH270362   2.545   6.435   2.172 -0.4820  0.3008 -0.2716
16316TIP3    H170363   2.511   6.438   2.261 -0.7177  0.0158 -0.3503
16316TIP3    H270364   2.521   6.348   2.140  0.6290 -0.0545 -0.2029
16317TIP3   OH270365   1.835   4.892  11.772 -0.3454 -0.3290  0.1781
16317TIP3    H170366   1.781   4.914  11.696 -0.0168  0.7976  0.2436
16317TIP3    H270367   1.831   4.970  11.828 -0.0124 -0.8693  0.9785
16318TIP3   OH270368   1.939   2.790  16.540 -0.5147  0.4302  0.1534
16318TIP3    H170369   1.851   2.797  16.577 -0.0152  1.3531  1.1853
16318TIP3    H270370   1.935   2.843  16.460 -0.3139  2.3571  1.3491
16319TIP3   OH270371   4.099   3.029  12.754 -0.1430 -0.6267  0.3308
16319TIP3    H170372   4.108   2.937  12.777  1.4693 -0.4681  0.4706
16319TIP3    H270373   4.027   3.032  12.692  0.1028 -2.0493 -0.0504
16320TIP3   OH270374   0.658   2.859  16.484  0.3263  0.0587  0.3932
16320TIP3    H170375   0.575   2.813  16.474 -0.6865  1.9648 -0.5525
16320TIP3    H270376   0.667   2.873  16.578 -0.1258 -0.6578  0.5496
16321TIP3   OH270377   1.892   4.659  11.338  0.0494 -0.1353  0.0765
16321TIP3    H170378   1.911   4.606  11.260 -0.4754 -0.9932  0.5229
16321TIP3    H270379   1.874   4.747  11.303  0.7366 -0.2871 -0.6841
16322TIP3   OH270380   1.249   0.642  12.456 -0.0879  0.0306 -0.2128
16322TIP3    H170381   1.240   0.736  12.437 -2.0740  0.4189  2.2214
16322TIP3    H270382   1.218   0.599  12.377 -1.7547  1.4684 -0.3951
16323TIP3   OH270383   1.816   0.483   2.344 -0.4751 -0.3305 -0.4017
16323TIP3    H170384   1.881   0.412   2.344  0.1867  0.1535 -2.9679
16323TIP3    H270385   1.865   0.559   2.376  0.1111 -0.1040 -1.7582
16324TIP3   OH270386   2.129   3.572  15.287  0.0236 -0.2887  0.0602
16324TIP3    H170387   2.091   3.540  15.205 -0.8401 -1.1331  0.7734
16324TIP3    H270388   2.157   3.493  15.333  1.2019  0.2308  0.2591
16325TIP3   OH270389   0.290   1.823  15.618  0.2642 -0.7073 -0.1203
16325TIP3    H170390   0.260   1.912  15.601 -1.6685 -1.3462 -0.2039
16325TIP3    H270391   0.259   1.772  15.543 -0.5920 -1.8585  0.9686
16326TIP3   OH270392   2.531   5.972  12.309 -0.3428  0.3044  0.1887
16326TIP3    H170393   2.522   5.919  12.388  1.6345  0.5131  0.6138
16326TIP3    H270394   2.585   5.918  12.251 -0.5294  0.7644 -0.4208
16327TIP3   OH270395   6.271   1.620   4.023 -0.0770  0.2143 -0.0864
16327TIP3    H170396   6.208   1.671   3.972 -0.2601  0.7582  0.6562
16327TIP3    H270397   6.337   1.684   4.049  0.3043 -0.1705 -0.1072
16328TIP3   OH270398   0.981   5.763   1.376  0.2619  0.4387  0.1101
16328TIP3    H170399   0.895   5.784   1.413 -0.0704 -3.1892  1.8433
16328TIP3    H270400   0.963   5.748   1.283 -0.9666  0.0474  0.3855
16329TIP3   OH270401   5.715   6.128   2.788 -0.1137 -0.0777  0.1255
16329TIP3    H170402   5.667   6.142   2.706  0.9651 -2.0790 -0.9434
16329TIP3    H270403   5.651   6.086   2.846  0.0169 -2.0081 -1.0144
16330TIP3   OH270404   1.315   4.253   4.554 -0.4132 -0.0261  0.8057
16330TIP3    H170405   1.319   4.267   4.459 -1.6977  2.6501  1.0686
16330TIP3    H270406   1.349   4.334   4.591  0.3718 -1.1616  2.6693
16331TIP3   OH270407   4.210   2.573  15.605 -0.2627 -0.1835  0.5381
16331TIP3    H170408   4.258   2.627  15.543  1.2910 -1.2127  0.7739
16331TIP3    H270409   4.166   2.635  15.663  0.9429  0.8190  0.4204
16332TIP3   OH270410   1.919   3.032  12.452 -0.2556  0.4179 -0.0577
16332TIP3    H170411   1.889   3.000  12.537  0.6465 -1.0405 -0.2545
16332TIP3    H270412   1.990   3.093  12.473  1.3590 -1.4536  0.2482
16333TIP3   OH270413   1.389   2.981   1.176 -0.7485  0.0619  0.2865
16333TIP3    H170414   1.306   3.006   1.216  0.1190 -0.4780  2.5798
16333TIP3    H270415   1.455   3.032   1.223  0.5305 -2.2702  1.1706
16334TIP3   OH270416   1.426   5.168  12.854 -0.4347  0.2880  0.6245
16334TIP3    H170417   1.419   5.170  12.759  0.0136  1.6180  0.6015
16334TIP3    H270418   1.489   5.099  12.873 -2.1125 -1.4861  0.1018
16335TIP3   OH270419   1.506   0.172  16.729  0.4147 -0.1472 -0.2037
16335TIP3    H170420   1.478   0.257  16.697 -2.2446 -0.2753  1.4629
16335TIP3    H270421   1.534   0.188  16.819 -0.3019 -1.0075  0.2000
16336TIP3   OH270422   3.738   2.369  15.079  0.0145 -0.0846  0.1639
16336TIP3    H170423   3.713   2.431  15.148  0.6042  0.6465 -0.2617
16336TIP3    H270424   3.757   2.424  15.004  3.3307 -0.5063  0.5646
16337TIP3   OH270425   2.475   2.048  15.185  0.0340  0.6416  0.1472
16337TIP3    H170426   2.523   1.967  15.167 -1.2582 -0.1998  0.2783
16337TIP3    H270427   2.458   2.045  15.279 -2.6341 -0.5346 -0.2694
16338TIP3   OH270428   2.431   5.587   1.846 -0.3066  0.1172  0.1761
16338TIP3    H170429   2.420   5.673   1.806 -0.9535 -0.7665 -1.6382
16338TIP3    H270430   2.521   5.562   1.824 -1.5170 -1.6349 -3.5617
16339TIP3   OH270431   5.000   3.413   1.329  0.3283  0.0654  0.1263
16339TIP3    H170432   5.029   3.498   1.361 -0.3420  0.0530  0.8112
16339TIP3    H270433   5.059   3.350   1.369  0.9001  0.2129 -0.4771
16340TIP3   OH270434   4.791   0.850  12.482  0.3325 -0.3143 -0.2520
16340TIP3    H170435   4.712   0.848  12.428  1.3541  1.1136 -1.8859
16340TIP3    H270436   4.757   0.852  12.572 -1.4941  0.4732 -0.9020
16341TIP3   OH270437   1.252   4.646  16.705  0.2477  0.0934  0.1144
16341TIP3    H170438   1.220   4.638  16.615  1.5194 -2.4798 -0.1898
16341TIP3    H270439   1.325   4.585  16.711  1.7260  1.8689  2.2850
16342TIP3   OH270440   4.943   1.149  11.601 -0.3169  0.2588 -0.1319
16342TIP3    H170441   4.893   1.068  11.614  0.2849 -0.1159 -0.1301
16342TIP3    H270442   4.958   1.153  11.507  1.1292 -0.5372  0.0396
16343TIP3   OH270443   1.910   6.230  16.978  0.2308 -0.5817 -0.4565
16343TIP3    H170444   1.839   6.188  17.027 -0.1934  0.1443 -0.4378
16343TIP3    H270445   1.878   6.235  16.888  1.0304 -1.9581 -0.8427
16344TIP3   OH270446   3.343   0.939  13.688  0.8872 -0.2343  0.3819
16344TIP3    H170447   3.408   0.904  13.749 -0.3171 -1.2378  1.1355
16344TIP3    H270448   3.263   0.947  13.740 -0.1260 -0.9427 -0.9853
16345TIP3   OH270449   2.328   4.524  12.593 -0.2746  0.2714 -0.2660
16345TIP3    H170450   2.264   4.566  12.650  0.6298  1.5017 -0.1261
16345TIP3    H270451   2.292   4.437  12.576 -0.2427 -0.4189  2.7448
16346TIP3   OH270452   4.874   1.032  15.665  0.2137 -0.8252  0.1889
16346TIP3    H170453   4.882   0.942  15.635 -1.7811 -0.4165 -1.7717
16346TIP3    H270454   4.926   1.083  15.602  1.1843 -0.5425  1.1814
16347TIP3   OH270455   2.042   2.256   1.813 -0.4238  0.0663 -0.6779
16347TIP3    H170456   1.998   2.220   1.736 -2.5332 -0.7869  0.8457
16347TIP3    H270457   2.081   2.338   1.782 -1.4216 -0.1387 -2.5800
16348TIP3   OH270458   3.541   1.829   4.170 -0.3318 -0.7168  0.2309
16348TIP3    H170459   3.451   1.863   4.171 -0.5075 -1.1589 -0.3430
16348TIP3    H270460   3.556   1.803   4.080  0.8018  0.4512  0.0447
16349TIP3   OH270461   1.938   0.839  14.168  0.0673 -0.1579  0.4209
16349TIP3    H170462   2.023   0.877  14.191 -1.3644  2.1118  2.5245
16349TIP3    H270463   1.927   0.858  14.074  0.9954  1.4867  0.6078
16350TIP3   OH270464   0.857   0.828  16.551  0.2242  0.5655  0.4614
16350TIP3    H170465   0.772   0.869  16.536 -0.1846 -0.6453 -0.7548
16350TIP3    H270466   0.912   0.858  16.479 -0.1897 -1.1958 -0.6643
16351TIP3   OH270467   4.426   4.644  15.154 -0.3245  0.7168 -0.1198
16351TIP3    H170468   4.487   4.670  15.085  1.4190 -0.2706  0.9773
16351TIP3    H270469   4.388   4.727  15.184 -0.2128  1.2676 -1.4239
16352TIP3   OH270470   0.889   4.377   6.429 -0.3541 -0.1276 -0.3740
16352TIP3    H170471   0.946   4.419   6.493 -1.9844  1.8923 -0.1775
16352TIP3    H270472   0.917   4.285   6.429  0.9145  0.2050  1.8435
16353TIP3   OH270473   5.889   3.923   1.305 -0.1446 -0.2528 -0.4393
16353TIP3    H170474   5.827   3.996   1.311  0.6757  0.4537 -0.4492
16353TIP3    H270475   5.926   3.916   1.393  0.3197 -0.1773 -0.6294
16354TIP3   OH270476   0.621   0.113   3.665 -0.2694  0.1340 -0.0223
16354TIP3    H170477   0.577   0.040   3.622 -0.1228  0.7182 -1.2219
16354TIP3    H270478   0.656   0.076   3.746 -1.1428 -0.8455 -0.0662
16355TIP3   OH270479   4.528   4.736  12.364  0.0787 -0.1554  0.3196
16355TIP3    H170480   4.556   4.727  12.455  1.2445  1.2480  0.1234
16355TIP3    H270481   4.585   4.803  12.327 -0.0310 -1.0391 -1.6038
16356TIP3   OH270482   5.307   0.447  12.561  1.1044  0.3212  1.0052
16356TIP3    H170483   5.272   0.518  12.615 -1.2064 -1.3240  1.8324
16356TIP3    H270484   5.287   0.474  12.471 -2.7635 -0.5655  1.4188
16357TIP3   OH270485   2.533   5.889  16.731  0.5660 -0.1090  0.4043
16357TIP3    H170486   2.514   5.971  16.684  2.1886  0.4805  0.7053
16357TIP3    H270487   2.628   5.880  16.725  0.5807 -1.1326  1.7903
16358TIP3   OH270488   4.368   1.561   2.278  0.0956 -0.6743  0.1291
16358TIP3    H170489   4.397   1.591   2.192 -2.5362 -2.0931 -1.3908
16358TIP3    H270490   4.398   1.629   2.338 -0.6780  2.0891 -2.3576
16359TIP3   OH270491   5.206   0.506  17.149  0.1975 -0.1444 -0.0387
16359TIP3    H170492   5.286   0.467  17.187  0.8624  0.7543 -0.4826
16359TIP3    H270493   5.177   0.442  17.085  1.4767  0.2007 -1.0127
16360TIP3   OH270494   0.375   4.560  11.172 -0.0849  0.2610 -0.2228
16360TIP3    H170495   0.327   4.548  11.090 -0.2646  0.2499 -0.1179
16360TIP3    H270496   0.405   4.472  11.195  0.4942  0.3559 -0.5931
16361TIP3   OH270497   3.261   1.006  15.437  0.2654  0.7630  0.0344
16361TIP3    H170498   3.187   0.986  15.494  2.6698  0.4663  3.3648
16361TIP3    H270499   3.239   1.090  15.397 -1.5796  1.0199  1.4415
16362TIP3   OH270500   5.530   0.716  15.099 -0.0448  0.0702 -0.0964
16362TIP3    H170501   5.520   0.727  15.004  1.2243  1.1491 -0.1292
16362TIP3    H270502   5.442   0.692  15.129 -0.1816 -1.7032 -1.7057
16363TIP3   OH270503   0.031   4.178  11.523  0.0385 -0.2115 -0.0183
16363TIP3    H170504  -0.055   4.148  11.554  0.0992 -1.6642 -1.1730
16363TIP3    H270505   0.054   4.118  11.452  2.1650 -0.0490  0.4603
16364TIP3   OH270506   1.600   3.810   2.088 -0.4421  0.3049  0.5325
16364TIP3    H170507   1.613   3.723   2.052  0.9474 -0.4998  2.8342
16364TIP3    H270508   1.553   3.796   2.170  1.0292  1.5337  1.6434
16365TIP3   OH270509   5.781   2.808  12.291  0.2809 -0.3252 -0.2239
16365TIP3    H170510   5.808   2.871  12.224  0.6290  0.1622  0.3621
16365TIP3    H270511   5.687   2.799  12.279 -0.2013  2.0614  1.1015
16366TIP3   OH270512   1.169   1.512   5.374  0.1668 -0.3806  0.3970
16366TIP3    H170513   1.143   1.531   5.284  0.0849 -2.9928 -0.1827
16366TIP3    H270514   1.263   1.531   5.376 -0.0426  0.8123  0.1385
16367TIP3   OH270515   2.963   1.490  11.303  0.5891 -0.3052 -0.8385
16367TIP3    H170516   2.938   1.502  11.212  1.2387  1.0357 -0.8733
16367TIP3    H270517   2.889   1.524  11.353  0.6360 -0.1105 -0.8969
16368TIP3   OH270518   2.397   4.668   4.151  0.0947 -1.0209 -0.2817
16368TIP3    H170519   2.397   4.588   4.204  1.8683  0.5034  2.2425
16368TIP3    H270520   2.489   4.696   4.150 -0.5768  1.3805 -0.4267
16369TIP3   OH270521   2.896   0.894  15.768 -0.3328  0.1110  0.4992
16369TIP3    H170522   2.844   0.918  15.845  0.8828  0.3310  1.2870
16369TIP3    H270523   2.982   0.873  15.804 -0.3294 -1.9508 -0.5556
16370TIP3   OH270524   4.543   6.056  13.070  0.1998 -0.1567 -0.3863
16370TIP3    H170525   4.495   6.138  13.084 -0.4188 -0.5347 -0.2405
16370TIP3    H270526   4.515   6.027  12.984  0.1534 -0.3849 -0.2942
16371TIP3   OH270527   6.584   4.493   4.989  0.8374 -0.4988 -0.1762
16371TIP3    H170528   6.505   4.514   5.040  1.3182  0.1072  0.3296
16371TIP3    H270529   6.550   4.472   4.902  0.2034  1.1864 -0.3741
16372TIP3   OH270530   4.850   1.641   1.242 -0.3715  0.2792  0.1124
16372TIP3    H170531   4.819   1.679   1.161  0.0129 -0.1840 -0.2590
16372TIP3    H270532   4.832   1.548   1.234 -0.7560  0.2964  0.7561
16373TIP3   OH270533   1.450   0.756   0.412  0.3226 -0.2305  0.4416
16373TIP3    H170534   1.392   0.682   0.427  0.3579 -0.3566 -0.0305
16373TIP3    H270535   1.528   0.736   0.464  0.6456 -0.9041 -0.2879
16374TIP3   OH270536   6.206   1.900  12.847 -0.3822  0.9442 -0.2838
16374TIP3    H170537   6.191   1.926  12.938 -1.0938 -0.7570  0.1337
16374TIP3    H270538   6.121   1.911  12.805 -0.1007  1.5480 -0.6985
16375TIP3   OH270539   1.964   4.183   6.085 -0.1835  0.4219 -0.1254
16375TIP3    H170540   1.956   4.272   6.119 -1.0285  0.5975 -0.7565
16375TIP3    H270541   1.923   4.128   6.151  0.3710  0.4829  0.2827
16376TIP3   OH270542   2.275   6.335   0.296  0.2308 -0.7822 -0.1515
16376TIP3    H170543   2.311   6.401   0.237 -1.6251  0.4742  0.0213
16376TIP3    H270544   2.191   6.310   0.257  0.8911 -3.1356 -0.2296
16377TIP3   OH270545   5.991   2.718   0.036 -0.1697  0.3097 -0.0607
16377TIP3    H170546   5.931   2.707   0.110 -0.3930  0.9965 -0.1427
16377TIP3    H270547   6.046   2.639   0.039 -0.0300  0.4365  0.9720
16378TIP3   OH270548   4.762   1.959   4.718 -0.2544  0.1378  0.4275
16378TIP3    H170549   4.731   1.882   4.765  1.5983 -0.6971  0.3789
16378TIP3    H270550   4.763   2.029   4.784  1.4849 -0.8103  1.4790
16379TIP3   OH270551   3.439   1.388   0.678 -0.3485 -0.1894  0.4727
16379TIP3    H170552   3.503   1.327   0.715 -0.5728 -0.2469  0.7678
16379TIP3    H270553   3.488   1.436   0.611 -0.5578 -1.7504 -0.8630
16380TIP3   OH270554   0.144   3.213   3.532  0.1204  0.4586 -0.5606
16380TIP3    H170555   0.225   3.246   3.569  0.8778 -0.7503 -1.1006
16380TIP3    H270556   0.171   3.157   3.459 -1.1585 -0.4109 -0.4065
16381TIP3   OH270557   1.164   2.490   3.234 -0.0286 -0.1163 -0.0161
16381TIP3    H170558   1.111   2.533   3.301 -2.3410 -1.1535 -1.0927
16381TIP3    H270559   1.207   2.419   3.280  0.3683  0.6546  0.8506
16382TIP3   OH270560   0.493   0.417   1.316  0.0077 -0.2602 -0.1228
16382TIP3    H170561   0.496   0.455   1.404 -2.6328  0.0796 -0.1068
16382TIP3    H270562   0.567   0.456   1.270  2.5572 -1.7533  2.3746
16383TIP3   OH270563   5.826   5.090  15.042 -0.2181 -0.6799  0.2192
16383TIP3    H170564   5.801   5.035  14.968  0.9333  0.1802 -0.8323
16383TIP3    H270565   5.805   5.179  15.015 -0.0605 -0.3754  1.0597
16384TIP3   OH270566   0.028   5.616   5.249  0.4042 -0.2801 -0.1073
16384TIP3    H170567   0.009   5.529   5.283 -1.6427 -0.0874 -0.6128
16384TIP3    H270568   0.028   5.605   5.154 -0.3467  0.3547 -0.1854
16385TIP3   OH270569   0.786   6.501   4.439  0.6761 -0.4998 -0.5620
16385TIP3    H170570   0.714   6.560   4.462  0.6688 -1.2406  1.5756
16385TIP3    H270571   0.805   6.520   4.347 -2.4105 -0.4828 -1.3047
16386TIP3   OH270572   3.501   0.068   0.170  0.2811  0.2717 -0.4827
16386TIP3    H170573   3.548   0.136   0.217  0.5504 -1.4861  2.0198
16386TIP3    H270574   3.412   0.102   0.159 -0.2335  0.2143  2.7692
16387TIP3   OH270575   3.201   2.973   1.880  0.0445 -0.3142 -0.9912
16387TIP3    H170576   3.225   2.886   1.848  0.3045 -0.2795 -0.8902
16387TIP3    H270577   3.283   3.021   1.884  0.0784 -0.4557  0.1498
16388TIP3   OH270578   3.924   4.430   1.799 -0.4522 -0.5923 -0.6492
16388TIP3    H170579   3.844   4.387   1.829 -0.0402  0.3435  2.0946
16388TIP3    H270580   3.978   4.359   1.765 -1.0433 -1.8117  0.8152
16389TIP3   OH270581   4.875   5.923   1.656  0.2623 -0.6261 -0.0059
16389TIP3    H170582   4.850   6.009   1.689  1.7949  0.2904 -1.1330
16389TIP3    H270583   4.967   5.914   1.681  0.4203 -1.4629 -0.8359
16390TIP3   OH270584   1.399   1.661  10.674  1.1423  0.1272  0.0701
16390TIP3    H170585   1.461   1.634  10.742  1.5511 -1.9919 -1.0573
16390TIP3    H270586   1.391   1.584  10.617  0.7157  1.7448 -2.2095
16391TIP3   OH270587   2.017   6.535   3.584  0.4351  0.2627  0.3747
16391TIP3    H170588   2.028   6.569   3.495 -3.3470  0.4717 -0.1407
16391TIP3    H270589   1.962   6.457   3.573 -0.7998  0.7630  2.5725
16392TIP3   OH270590   4.549   2.262   0.614 -0.0556  0.6374 -0.2143
16392TIP3    H170591   4.492   2.338   0.627  1.8640  2.1279 -0.1981
16392TIP3    H270592   4.638   2.296   0.622  0.8876 -1.5419 -0.6545
16393TIP3   OH270593   5.300   4.333  16.263  0.2581 -0.0097  0.4578
16393TIP3    H170594   5.288   4.295  16.176 -2.6329 -0.1996  0.8329
16393TIP3    H270595   5.359   4.407  16.249  0.5434 -0.5669 -1.5110
16394TIP3   OH270596   0.016   3.637   1.812 -0.9701 -0.0999  0.7211
16394TIP3    H170597  -0.041   3.622   1.736 -1.3698  0.9575  0.7953
16394TIP3    H270598   0.097   3.671   1.774  0.1906 -2.8163  0.4928
16395TIP3   OH270599   3.059   6.032   0.834  0.4610 -0.2626 -0.2775
16395TIP3    H170600   3.040   5.971   0.905  1.0806 -0.1205  0.0186
16395TIP3    H270601   3.049   6.118   0.874 -0.1239 -0.1712 -0.6167
16396TIP3   OH270602   4.165   0.528  11.375 -0.0443 -0.2240 -0.2185
16396TIP3    H170603   4.155   0.623  11.368 -2.1655 -0.2848  1.2306
16396TIP3    H270604   4.147   0.495  11.287 -1.9710  0.5575 -0.1505
16397TIP3   OH270605   1.350   2.419  16.930  0.0403 -0.3097  0.1174
16397TIP3    H170606   1.402   2.339  16.938  0.6757  0.0193 -0.6315
16397TIP3    H270607   1.305   2.411  16.846  1.7458  1.0254 -1.0022
16398TIP3   OH270608   1.316   2.986   5.495  0.5270  0.3618  0.1760
16398TIP3    H170609   1.411   2.997   5.497  0.8978 -1.2655 -2.5806
16398TIP3    H270610   1.290   3.014   5.407 -1.1829 -1.3288  0.0621
16399TIP3   OH270611   6.032   6.024  11.187 -0.0762  0.8833 -0.0137
16399TIP3    H170612   5.957   5.984  11.143 -1.3230  2.8243  0.2180
16399TIP3    H270613   6.108   5.992  11.139 -1.0141 -1.2112 -0.2178
16400TIP3   OH270614   2.955   5.258   1.613 -0.7797  0.2015  0.2705
16400TIP3    H170615   2.896   5.304   1.673  0.4339  1.7226  0.3615
16400TIP3    H270616   2.941   5.300   1.528  0.5220  0.9835  0.4077
16401TIP3   OH270617   0.988   1.924   1.152  0.0210  0.1769  0.2496
16401TIP3    H170618   0.959   1.860   1.217 -0.7951 -0.2924 -0.5534
16401TIP3    H270619   0.926   1.997   1.159 -0.6696 -0.2998 -0.6446
16402TIP3   OH270620   2.894   2.228   1.434  0.3223  0.0091  0.4434
16402TIP3    H170621   2.971   2.280   1.457  1.3135 -0.2484 -2.0430
16402TIP3    H270622   2.912   2.141   1.472  0.7412  0.2438  0.8009
16403TIP3   OH270623   4.555   6.079  16.765 -0.1580 -0.7599  0.3359
16403TIP3    H170624   4.535   6.167  16.796 -1.4878 -1.2138  0.8498
16403TIP3    H270625   4.497   6.065  16.690 -0.1414 -1.2850  0.4121
16404TIP3   OH270626   5.848   2.052   1.150  0.1986  0.2023 -0.4056
16404TIP3    H170627   5.898   2.115   1.099  1.6698  0.0976  0.8445
16404TIP3    H270628   5.776   2.103   1.188  0.2615  0.6994 -0.9482
16405TIP3   OH270629   3.894   3.668   2.614 -0.3313  0.0413  0.3073
16405TIP3    H170630   3.926   3.729   2.681 -0.2820  0.2486  0.0972
16405TIP3    H270631   3.963   3.666   2.548 -1.0685  1.1036 -0.5360
16406TIP3   OH270632   6.379   1.683   0.539  0.0388  0.5612  0.0212
16406TIP3    H170633   6.300   1.652   0.585  0.1052  0.3649  0.0040
16406TIP3    H270634   6.349   1.757   0.487  0.2433  1.6958  1.4672
16407TIP3   OH270635   6.420   2.654  16.534  0.6000 -0.6950  0.1104
16407TIP3    H170636   6.425   2.567  16.494  0.5141 -0.0629 -1.3481
16407TIP3    H270637   6.478   2.708  16.480  0.6450  0.1530  0.9920
16408TIP3   OH270638   6.533   2.143   0.195  0.0693  0.0056  0.3681
16408TIP3    H170639   6.601   2.209   0.206  0.5305  0.1521 -2.4467
16408TIP3    H270640   6.510   2.116   0.284  1.5085  2.2592  1.5105
16409TIP3   OH270641   5.137   5.419   3.110  0.0107 -0.0394 -0.5518
16409TIP3    H170642   5.067   5.356   3.132  0.2714 -0.0616  0.2343
16409TIP3    H270643   5.155   5.402   3.018 -0.4538 -0.6009 -0.5506
16410TIP3   OH270644   5.290   6.590   0.272 -0.0743 -0.1605 -0.9200
16410TIP3    H170645   5.292   6.520   0.337  0.5750 -0.3636 -1.1516
16410TIP3    H270646   5.235   6.657   0.312  1.1511  0.1639  0.3257
16411TIP3   OH270647   5.368   2.858   5.454 -0.0953 -0.4764  0.1753
16411TIP3    H170648   5.278   2.856   5.486 -0.2427 -1.9751 -0.2288
16411TIP3    H270649   5.360   2.875   5.361 -0.0231 -1.3551  0.0017
16412TIP3   OH270650   1.876   4.810   1.337 -0.2360  0.8159 -0.3738
16412TIP3    H170651   1.963   4.774   1.318  0.5926  2.1067  0.7685
16412TIP3    H270652   1.887   4.905   1.327 -1.7672  0.9449 -1.0986
16413TIP3   OH270653   4.183   0.706  12.948  0.5336  0.5937  0.1570
16413TIP3    H170654   4.114   0.766  12.979  0.3418  0.4029  0.1045
16413TIP3    H270655   4.254   0.717  13.011 -0.4805 -1.0259  1.6780
16414TIP3   OH270656   0.795   5.529   2.726 -0.6709  0.4003 -0.0429
16414TIP3    H170657   0.872   5.479   2.752 -0.8695 -1.0101 -1.8990
16414TIP3    H270658   0.828   5.615   2.702  0.0844  0.3140  0.6683
16415TIP3   OH270659   5.630   1.365   5.214  0.1613 -0.1123  0.6112
16415TIP3    H170660   5.534   1.360   5.212  0.1892 -1.6087  1.4841
16415TIP3    H270661   5.649   1.427   5.284 -0.1662  0.3111  0.3296
16416TIP3   OH270662   3.929   6.096   5.877  0.0299  0.0429 -0.7865
16416TIP3    H170663   4.008   6.116   5.828  0.7096  0.5123  0.4545
16416TIP3    H270664   3.923   6.165   5.943  0.3590 -1.7311  1.1972
16417TIP3   OH270665   5.047   5.560  15.039 -0.1994 -0.4247  0.2058
16417TIP3    H170666   5.056   5.588  15.130  0.0741 -1.5116  0.5245
16417TIP3    H270667   5.051   5.464  15.042 -0.3625 -0.4864 -0.9293
16418TIP3   OH270668   6.124   1.273  10.906  0.3965 -0.6193  0.7348
16418TIP3    H170669   6.114   1.179  10.892  0.0134 -0.3863 -0.6942
16418TIP3    H270670   6.202   1.297  10.857  0.3022 -0.1446  0.8131
16419TIP3   OH270671   0.378   0.516   5.646  0.3816  0.4912 -0.1419
16419TIP3    H170672   0.411   0.432   5.678 -2.2799  0.1012  1.9262
16419TIP3    H270673   0.306   0.538   5.705 -0.6497  3.0348 -2.1342
16420TIP3   OH270674   6.612   5.590  16.816  0.8345  0.3134  0.7579
16420TIP3    H170675   6.701   5.616  16.790  1.0266  0.9992  2.0112
16420TIP3    H270676   6.591   5.516  16.759  1.5259  1.2243 -0.7558
16421TIP3   OH270677   0.909   1.319  13.852 -0.1708 -0.4749 -0.1996
16421TIP3    H170678   0.988   1.331  13.800 -0.6241 -0.3547 -0.8734
16421TIP3    H270679   0.937   1.332  13.942  1.5659 -4.8243  0.0905
16422TIP3   OH270680   4.464   6.329  16.366 -0.2243  0.9625 -0.0616
16422TIP3    H170681   4.404   6.313  16.293 -0.5484 -1.3012  0.6142
16422TIP3    H270682   4.543   6.365  16.325 -0.5422  0.1305 -1.4979
16423TIP3   OH270683   1.784   3.545  14.812  0.1465  0.5655  0.2343
16423TIP3    H170684   1.785   3.451  14.793  2.0807  0.3729  1.0975
16423TIP3    H270685   1.707   3.556  14.869 -1.1774 -0.1322 -1.3165
16424TIP3   OH270686   0.278   6.244   4.814 -0.1697 -0.5864  0.0998
16424TIP3    H170687   0.209   6.261   4.749 -0.5921 -0.1337  0.6563
16424TIP3    H270688   0.261   6.307   4.884  0.0522 -1.3193  0.8275
16425TIP3   OH270689   0.481   1.486  15.039 -0.2310 -0.1178  0.5345
16425TIP3    H170690   0.417   1.557  15.045 -1.2537 -1.0550  1.2199
16425TIP3    H270691   0.490   1.470  14.945  0.0510  0.9331  0.3703
16426TIP3   OH270692   3.108   3.156  14.307  0.1252 -0.1714  0.2343
16426TIP3    H170693   3.095   3.147  14.213 -0.9059  1.3668  0.2079
16426TIP3    H270694   3.127   3.067  14.336 -1.6101 -1.0658 -1.1325
16427TIP3   OH270695   2.600   6.761  16.423  0.2928  0.4026 -0.4452
16427TIP3    H170696   2.653   6.807  16.358  1.0300 -1.0285 -0.8828
16427TIP3    H270697   2.663   6.714  16.478 -0.4556 -0.7757 -0.5541
16428TIP3   OH270698   3.920   5.491   3.033 -0.0825  0.7249 -0.5582
16428TIP3    H170699   3.900   5.551   2.962 -0.6845  1.0646 -0.1133
16428TIP3    H270700   3.836   5.449   3.054 -0.1227  1.2997  0.5436
16429TIP3   OH270701   1.545   1.976  15.541 -0.3897 -0.1192  0.2170
16429TIP3    H170702   1.515   1.996  15.452  0.0660  0.6794  0.2363
16429TIP3    H270703   1.607   1.904  15.530  0.0622  0.3255 -0.1747
16430TIP3   OH270704   2.396   2.091  10.849 -0.1584  0.3949 -0.1968
16430TIP3    H170705   2.336   2.110  10.921 -0.1459  0.3825 -0.1836
16430TIP3    H270706   2.483   2.098  10.887 -0.1241 -3.0297  0.7217
16431TIP3   OH270707   6.376   2.692  13.478 -0.2025 -0.3608  0.0287
16431TIP3    H170708   6.299   2.720  13.428  1.3533  0.4663 -2.0379
16431TIP3    H270709   6.417   2.625  13.424  1.0242 -0.1501  0.6558
16432TIP3   OH270710   6.134   5.598   0.723  0.8496  0.5082  0.5557
16432TIP3    H170711   6.075   5.524   0.725 -0.0793  0.9982 -2.5460
16432TIP3    H270712   6.222   5.560   0.731  0.2959 -0.5841  1.6863
16433TIP3   OH270713   2.299   3.015  15.455 -0.0827  0.4228 -0.0922
16433TIP3    H170714   2.375   2.968  15.419  0.5697  1.8182 -0.6309
16433TIP3    H270715   2.262   3.060  15.379 -0.2116  1.3994  0.5415
16434TIP3   OH270716   3.343   4.808  16.369 -0.2136 -0.2741 -0.0215
16434TIP3    H170717   3.393   4.874  16.417  2.4895 -1.5682 -0.8409
16434TIP3    H270718   3.358   4.727  16.417 -0.5157 -0.9147 -0.9876
16435TIP3   OH270719   6.354   3.386  12.479 -0.0426 -0.5580 -0.0392
16435TIP3    H170720   6.417   3.457  12.484 -0.5523  0.0211 -1.4737
16435TIP3    H270721   6.386   3.329  12.409 -0.4540 -0.9156  0.0532
16436TIP3   OH270722   1.809   0.188  11.556 -0.5275  0.3384 -0.6410
16436TIP3    H170723   1.738   0.242  11.588 -0.9786  1.0251 -2.6287
16436TIP3    H270724   1.772   0.143  11.480  0.3696 -1.4206 -0.0848
16437TIP3   OH270725   5.779   3.669  13.766 -0.0799 -0.6155 -0.2124
16437TIP3    H170726   5.746   3.679  13.855 -1.0189  0.5957 -0.6590
16437TIP3    H270727   5.831   3.589  13.768  2.2592  0.7881  2.1130
16438TIP3   OH270728   5.479   6.003  14.174  0.1593  0.4611  0.2670
16438TIP3    H170729   5.454   5.911  14.177  1.0988  0.2254  2.5694
16438TIP3    H270730   5.408   6.045  14.124 -0.1878 -1.4857 -0.9870
16439TIP3   OH270731   5.224   0.086  12.433 -0.6891 -0.6351 -0.0930
16439TIP3    H170732   5.214   0.045  12.347  0.6016 -2.1106  0.4227
16439TIP3    H270733   5.182   0.025  12.493  1.9987 -1.7385  0.7989
16440TIP3   OH270734   1.580   3.077   1.514 -0.2317  0.3597  0.0999
16440TIP3    H170735   1.576   2.989   1.477  1.2702 -0.1466  1.0344
16440TIP3    H270736   1.516   3.127   1.464 -1.2090 -1.2843 -0.3714
16441TIP3   OH270737   3.403   6.539  12.673  0.2241  0.4169  0.1437
16441TIP3    H170738   3.332   6.516  12.612 -0.0553  1.1461  0.1873
16441TIP3    H270739   3.409   6.634  12.668  0.2761  0.4774  1.1712
16442TIP3   OH270740   5.284   0.607   3.979 -0.0101  0.1160  0.4715
16442TIP3    H170741   5.206   0.574   3.934 -0.8812 -0.2986  2.1906
16442TIP3    H270742   5.323   0.529   4.018 -0.9485  0.7496  2.8710
16443TIP3   OH270743   3.569   2.363  12.182 -0.1995  0.4286 -0.2783
16443TIP3    H170744   3.483   2.377  12.222 -1.1042  0.6703 -2.1914
16443TIP3    H270745   3.592   2.274  12.206 -2.2100 -0.5994 -1.7639
16444TIP3   OH270746   1.079   0.291   5.199 -0.1427 -0.0961  0.3761
16444TIP3    H170747   1.000   0.343   5.214  0.1580  0.0645  1.4411
16444TIP3    H270748   1.045   0.207   5.167 -0.7132  0.1718  0.2530
16445TIP3   OH270749   2.709   5.453  13.806  0.1344 -0.1559  0.1623
16445TIP3    H170750   2.656   5.386  13.848  0.5185 -2.1457 -2.2690
16445TIP3    H270751   2.660   5.534  13.820 -2.4958 -1.5656 -0.1849
16446TIP3   OH270752   3.254   0.945  12.338  0.1190 -0.4375 -0.0868
16446TIP3    H170753   3.286   0.893  12.265 -0.1053 -0.7293  0.0227
16446TIP3    H270754   3.235   0.882  12.407 -0.0078 -0.1987  0.1015
16447TIP3   OH270755   2.105   3.270  15.257  0.3862  0.0791 -0.0726
16447TIP3    H170756   2.149   3.298  15.177 -0.9107  0.9905 -0.5149
16447TIP3    H270757   2.068   3.185  15.235  0.5265  0.0660 -0.2577
16448TIP3   OH270758   1.958   3.545   6.719 -0.1569 -0.2463 -0.1690
16448TIP3    H170759   1.944   3.458   6.755 -0.3193 -0.1060  0.1081
16448TIP3    H270760   2.034   3.579   6.766 -0.1862 -0.1784 -0.1699
16449TIP3   OH270761   1.638   5.163  16.833 -0.1368 -0.6665  0.6385
16449TIP3    H170762   1.727   5.171  16.799 -0.5802 -2.7112 -1.2595
16449TIP3    H270763   1.615   5.072  16.817 -2.6710 -0.1211  0.8228
16450TIP3   OH270764   6.011   4.448   4.183 -0.0208  0.0621  0.6928
16450TIP3    H170765   6.052   4.393   4.116 -0.8137 -0.1197  0.3398
16450TIP3    H270766   5.917   4.443   4.163 -0.5174 -1.7299  3.0927
16451TIP3   OH270767   4.385   5.427  16.368  0.0571  0.0455 -0.2411
16451TIP3    H170768   4.474   5.440  16.336 -0.5519  1.6526 -1.4252
16451TIP3    H270769   4.341   5.511  16.351 -1.5908 -0.6054  0.5982
16452TIP3   OH270770   2.692   1.576  14.862 -0.4024 -0.9185  0.0716
16452TIP3    H170771   2.603   1.554  14.890 -0.2165 -0.4314  1.1141
16452TIP3    H270772   2.691   1.670  14.847 -0.2968 -1.0594 -0.8429
16453TIP3   OH270773   5.280   6.049  13.746  0.2097  0.8384  0.2640
16453TIP3    H170774   5.225   6.019  13.673 -0.0513  0.5147  0.5951
16453TIP3    H270775   5.368   6.023  13.721  0.0561  0.2707  0.2931
16454TIP3   OH270776   0.706   5.091  11.579 -0.4065 -0.7407 -0.2042
16454TIP3    H170777   0.684   5.183  11.564 -1.8159 -0.8360  1.0783
16454TIP3    H270778   0.637   5.042  11.534  1.3519 -1.2966 -2.5338
16455TIP3   OH270779   3.136   0.926   4.669  0.2915  0.0727 -0.7346
16455TIP3    H170780   3.095   0.849   4.709  0.2268 -1.1020 -2.9029
16455TIP3    H270781   3.075   0.953   4.600  1.2997  0.7794 -1.3870
16456TIP3   OH270782   0.267   1.989  14.292  0.2278 -0.7327  0.1009
16456TIP3    H170783   0.251   1.939  14.212 -0.9238 -0.6625  0.2598
16456TIP3    H270784   0.357   1.970  14.316  0.8818 -0.0656 -1.6981
16457TIP3   OH270785   2.768   0.872   5.045  0.5498  0.6238 -0.2344
16457TIP3    H170786   2.686   0.828   5.021  1.0534 -0.5185  0.0947
16457TIP3    H270787   2.750   0.912   5.130  0.8702 -1.1962  0.7321
16458TIP3   OH270788   0.181   2.926   0.864  0.2061  0.4378 -0.4161
16458TIP3    H170789   0.136   2.850   0.901  1.9603  0.3098  1.7253
16458TIP3    H270790   0.115   2.995   0.862 -1.1519 -0.8350 -1.4314
16459TIP3   OH270791   0.450   5.816  15.371  0.1270  0.4707  0.3221
16459TIP3    H170792   0.443   5.800  15.277 -1.3136 -0.6778  0.5716
16459TIP3    H270793   0.458   5.911  15.379 -1.5319  0.7733 -0.9194
16460TIP3   OH270794   5.276   5.455  15.932 -0.2301  0.4065 -0.3271
16460TIP3    H170795   5.322   5.375  15.906 -0.0637  0.0193  1.0487
16460TIP3    H270796   5.198   5.457  15.877  0.9497  0.5870 -2.0520
16461TIP3   OH270797   5.252   4.343   3.492  0.9905 -0.4132  0.4744
16461TIP3    H170798   5.218   4.298   3.569 -0.2235  0.1872  0.3115
16461TIP3    H270799   5.189   4.324   3.423  1.9451 -0.7566 -0.3376
16462TIP3   OH270800   5.011   3.697   6.969 -0.0789 -0.7865  0.7561
16462TIP3    H170801   5.007   3.637   6.894 -1.9269  1.3242 -0.9870
16462TIP3    H270802   4.956   3.655   7.035  0.9915 -2.3435  0.7083
16463TIP3   OH270803   2.584   2.442  10.874 -0.0783 -0.2285  0.4543
16463TIP3    H170804   2.627   2.360  10.849 -1.2637 -0.5636 -0.5548
16463TIP3    H270805   2.643   2.480  10.940  2.4694 -0.0315 -1.7444
16464TIP3   OH270806   1.326   2.479   4.839  0.6027 -0.2105  0.2904
16464TIP3    H170807   1.413   2.506   4.810 -0.9166  3.4564 -1.4923
16464TIP3    H270808   1.290   2.432   4.764  0.1885  0.5566 -0.0068
16465TIP3   OH270809   4.639   0.719  13.721  0.0257 -0.1748 -0.2897
16465TIP3    H170810   4.635   0.624  13.715  1.4667 -0.2900  0.2449
16465TIP3    H270811   4.631   0.738  13.814 -0.7998  0.2739 -0.4418
16466TIP3   OH270812   2.672   4.391   5.471 -0.4491 -0.6079  0.7232
16466TIP3    H170813   2.609   4.388   5.544  0.2369 -2.7340  1.2985
16466TIP3    H270814   2.643   4.322   5.412 -1.4395  1.5703 -1.4998
16467TIP3   OH270815   6.354   2.598  11.334  0.4007  0.1172  0.0594
16467TIP3    H170816   6.327   2.621  11.245 -1.5562 -0.3911  0.4918
16467TIP3    H270817   6.446   2.623  11.338  0.6313 -0.1787 -2.2245
16468TIP3   OH270818   0.721   3.130   1.794 -0.0704 -0.0921 -0.7680
16468TIP3    H170819   0.633   3.167   1.802  0.3889  0.8154  0.4526
16468TIP3    H270820   0.716   3.073   1.717 -2.5525 -2.4251  0.9010
16469TIP3   OH270821   5.457   4.337  11.696  0.0823  0.3445 -0.0111
16469TIP3    H170822   5.492   4.297  11.616 -0.0450 -0.2767  0.2339
16469TIP3    H270823   5.509   4.416  11.708  1.1280 -0.3388  0.1105
16470TIP3   OH270824   1.134   6.475   4.070  0.3920 -0.9681  0.1002
16470TIP3    H170825   1.174   6.391   4.093  1.6516 -0.2884  0.5048
16470TIP3    H270826   1.174   6.538   4.130 -0.8532 -0.1299  0.0941
16471TIP3   OH270827   4.004   2.447   3.864 -0.2244 -0.2007  0.9680
16471TIP3    H170828   3.982   2.493   3.783 -0.4953  0.4946  1.4225
16471TIP3    H270829   3.940   2.377   3.870 -0.9820  0.4953  1.1914
16472TIP3   OH270830   4.915   2.160  12.410  0.3587 -0.1991  0.4229
16472TIP3    H170831   4.851   2.143  12.479  0.3286 -1.2502  0.1485
16472TIP3    H270832   4.935   2.253  12.419 -0.5114 -0.0595  1.1028
16473TIP3   OH270833   1.339   1.104  13.767 -0.6208  0.3290  0.1460
16473TIP3    H170834   1.264   1.163  13.771 -1.5019 -0.3644 -3.0659
16473TIP3    H270835   1.301   1.018  13.751  0.8257 -0.0678 -1.4704
16474TIP3   OH270836   0.055   1.628  13.710  0.4890  0.0042 -0.3095
16474TIP3    H170837   0.085   1.570  13.641  1.6165 -0.9112  0.8900
16474TIP3    H270838  -0.035   1.650  13.687  0.8628 -0.2197 -2.0726
16475TIP3   OH270839   2.460   0.104  11.558 -0.3851 -0.1704 -0.3144
16475TIP3    H170840   2.548   0.142  11.558 -0.0244 -0.8200  2.2771
16475TIP3    H270841   2.466   0.028  11.501  0.5005  0.2908 -0.8410
16476TIP3   OH270842   4.706   0.428  13.333 -0.5071  0.2426  0.1650
16476TIP3    H170843   4.672   0.394  13.416 -1.4603  0.1463 -0.2552
16476TIP3    H270844   4.638   0.488  13.303 -1.1252 -1.2487 -1.5553
16477TIP3   OH270845   3.690   2.487  16.400  0.4608 -0.3655  0.0844
16477TIP3    H170846   3.780   2.465  16.425  0.1070  0.4832  2.3240
16477TIP3    H270847   3.686   2.582  16.409 -1.0779 -0.5207  1.7079
16478TIP3   OH270848   2.300   0.518  12.268 -0.5841  0.0987 -0.2379
16478TIP3    H170849   2.368   0.451  12.265 -0.3084  0.3316 -3.8978
16478TIP3    H270850   2.330   0.580  12.334  2.7053  0.0713 -1.5281
16479TIP3   OH270851   1.279   0.842  16.700  0.7586 -0.2938 -0.3324
16479TIP3    H170852   1.236   0.829  16.615  2.2840  0.4780 -1.2614
16479TIP3    H270853   1.328   0.762  16.715  2.0389  0.3130 -1.1445
16480TIP3   OH270854   1.235   4.572  13.135  0.2039 -0.7354  0.6105
16480TIP3    H170855   1.221   4.480  13.155 -1.8230 -0.4604  0.6899
16480TIP3    H270856   1.206   4.581  13.044  2.9765 -0.6678 -0.3352
16481TIP3   OH270857   6.005   5.943  11.449 -0.6534  0.1334  0.0134
16481TIP3    H170858   6.037   5.983  11.368  1.8886 -1.9719 -0.1515
16481TIP3    H270859   5.946   5.873  11.420 -0.1009 -0.3250 -0.0149
16482TIP3   OH270860   5.959   1.239  15.176 -0.1002  0.5309 -0.2893
16482TIP3    H170861   5.878   1.202  15.142  0.3835 -1.1927  0.3178
16482TIP3    H270862   5.993   1.293  15.105 -2.0549  1.7766 -0.3317
16483TIP3   OH270863   2.701   0.717  13.547 -0.3725  0.1051 -0.0603
16483TIP3    H170864   2.783   0.673  13.523 -1.4254 -1.0768 -1.6918
16483TIP3    H270865   2.700   0.796  13.492 -0.5765 -0.1654 -0.4484
16484TIP3   OH270866   5.609   4.889   4.287  0.3707  0.0791  0.0119
16484TIP3    H170867   5.670   4.955   4.255  0.4094  0.4801  0.8904
16484TIP3    H270868   5.620   4.890   4.382  0.0477 -0.8769  0.0665
16485TIP3   OH270869   6.082   0.025  11.572 -0.0485  0.4665 -0.4848
16485TIP3    H170870   6.051  -0.066  11.572 -0.6976  0.6544 -2.0736
16485TIP3    H270871   6.141   0.029  11.497 -1.4475  1.7899 -1.5761
16486TIP3   OH270872   4.856   4.628  12.418  0.3834  0.2376 -0.0229
16486TIP3    H170873   4.808   4.705  12.386 -1.0946  0.3844  2.2710
16486TIP3    H270874   4.946   4.659  12.429  0.3754  0.8611 -1.5668
16487TIP3   OH270875   0.671   4.778   1.985  0.7454 -0.1647 -1.1132
16487TIP3    H170876   0.661   4.847   1.919  0.4854  0.5875 -0.3003
16487TIP3    H270877   0.581   4.756   2.010  0.8685  0.3355 -0.2165
16488TIP3   OH270878   4.589   6.602   3.546  0.0619 -0.1951  0.6287
16488TIP3    H170879   4.497   6.575   3.555 -0.9640  3.2528  1.8535
16488TIP3    H270880   4.585   6.687   3.503  2.9483 -1.0704 -1.6724
16489TIP3   OH270881   2.139   3.182   4.768 -0.5104  0.0007  0.1977
16489TIP3    H170882   2.182   3.249   4.822 -0.6445 -0.2565  0.6356
16489TIP3    H270883   2.059   3.224   4.738 -1.2896 -0.3977  1.6132
16490TIP3   OH270884   2.408   0.089   0.801  0.1843 -0.2650 -0.9975
16490TIP3    H170885   2.349   0.115   0.730  0.7659 -0.2321 -1.4789
16490TIP3    H270886   2.360   0.112   0.881 -0.3002  0.1047 -1.3820
16491TIP3   OH270887   3.283   1.667   2.158  0.3222  0.0644  0.4385
16491TIP3    H170888   3.274   1.702   2.247 -0.1225 -0.2855  0.5387
16491TIP3    H270889   3.303   1.574   2.171  1.4618  0.2669  0.1774
16492TIP3   OH270890   3.981   4.858   4.199  0.0450  0.0495 -0.1560
16492TIP3    H170891   4.069   4.825   4.179 -0.6498 -2.0194 -0.1024
16492TIP3    H270892   3.923   4.807   4.142 -1.1811  0.8872  0.3019
16493TIP3   OH270893   6.546   4.022   2.719 -0.6453 -0.3276  0.0047
16493TIP3    H170894   6.464   3.977   2.741  0.0842 -1.3798  0.6314
16493TIP3    H270895   6.592   3.962   2.660 -0.1669  0.1104 -0.0778
16494TIP3   OH270896   4.895   5.000  16.154 -0.2320 -0.3767  0.0424
16494TIP3    H170897   4.851   5.066  16.100  1.1929 -0.6529 -1.5687
16494TIP3    H270898   4.987   5.026  16.152 -0.0126 -0.9844  1.5397
16495TIP3   OH270899   1.323   1.766   2.057 -0.1456  0.1657  0.2864
16495TIP3    H170900   1.253   1.794   2.116  1.1807 -0.5428  2.3404
16495TIP3    H270901   1.370   1.846   2.036 -1.1810  0.5602 -0.6362
16496TIP3   OH270902   0.792   1.417   6.032 -0.0308  0.0884  0.3587
16496TIP3    H170903   0.765   1.351   5.969 -0.0115  1.0042 -0.6530
16496TIP3    H270904   0.746   1.497   6.004 -0.5285  0.3785  1.8899
16497TIP3   OH270905   4.624   1.728  12.163 -0.1636 -0.0865 -0.5469
16497TIP3    H170906   4.654   1.654  12.217 -2.0273 -0.6354 -0.1995
16497TIP3    H270907   4.695   1.792  12.169  1.3466 -1.6906 -0.5605
16498TIP3   OH270908   0.245   1.444   2.879 -0.1888  0.1081 -0.5104
16498TIP3    H170909   0.201   1.369   2.838  1.0413 -0.0103 -1.6969
16498TIP3    H270910   0.326   1.455   2.829  1.0505  0.4563  1.4485
16499TIP3   OH270911   4.189   3.114  16.184 -0.2311 -0.3847 -0.2558
16499TIP3    H170912   4.253   3.065  16.236 -0.8256 -1.1235 -0.2008
16499TIP3    H270913   4.144   3.048  16.132 -0.5920  0.1888 -0.6883
16500TIP3   OH270914   6.259   3.488   2.126  0.1028 -0.2823 -0.1845
16500TIP3    H170915   6.236   3.470   2.035 -0.2569  0.1128 -0.1722
16500TIP3    H270916   6.180   3.526   2.164  0.5208  0.3608  0.0632
16501TIP3   OH270917   0.311   2.155   1.109 -0.2299 -0.0770  0.5087
16501TIP3    H170918   0.306   2.077   1.165  1.4077 -1.3618 -1.0122
16501TIP3    H270919   0.224   2.162   1.069 -0.2971 -1.3557  0.4000
16502TIP3   OH270920   2.170   0.208   5.481  0.2138  0.1727 -0.0327
16502TIP3    H170921   2.199   0.281   5.534  0.0990  0.3365 -0.1918
16502TIP3    H270922   2.103   0.164   5.533  0.4423  0.0484  0.1553
16503TIP3   OH270923   1.208   3.566   5.188  0.4898  0.1077 -0.2646
16503TIP3    H170924   1.292   3.521   5.177 -0.3748 -1.5587 -0.2937
16503TIP3    H270925   1.167   3.522   5.262 -0.9826 -0.0909 -1.1656
16504TIP3   OH270926   3.524   4.013   6.278  0.1280  0.0180  0.3899
16504TIP3    H170927   3.512   4.066   6.357  0.0299  1.2077 -0.3934
16504TIP3    H270928   3.451   3.951   6.279  0.3470 -0.2525  1.4187
16505TIP3   OH270929   0.482   6.107  11.173  0.3896  0.1455 -0.3063
16505TIP3    H170930   0.484   6.037  11.238  0.9731 -0.8447 -1.3641
16505TIP3    H270931   0.394   6.101  11.135  0.1563  0.5228  0.1720
16506TIP3   OH270932   1.943   4.596   5.009 -0.0600  0.6210  0.2602
16506TIP3    H170933   1.872   4.611   5.070 -0.3999 -0.9775  0.2915
16506TIP3    H270934   2.021   4.590   5.064  0.0041  1.6534  0.2929
16507TIP3   OH270935   6.499   4.538   2.071  0.4974 -0.8544 -0.2632
16507TIP3    H170936   6.429   4.601   2.052  2.0813  0.6295 -1.4750
16507TIP3    H270937   6.479   4.463   2.016  0.3265 -0.0592 -1.3271
16508TIP3   OH270938   6.673   0.961   5.653 -0.3871  0.3008 -0.0663
16508TIP3    H170939   6.686   1.004   5.738 -0.2770 -1.9105  1.1133
16508TIP3    H270940   6.600   0.901   5.667  0.1035 -0.6469 -1.3102
16509TIP3   OH270941   6.333   0.479   0.156 -0.0962  0.3784 -0.5936
16509TIP3    H170942   6.241   0.503   0.155 -0.7719 -1.7870  0.9817
16509TIP3    H270943   6.350   0.444   0.069 -0.7362  0.8757 -0.9260
16510TIP3   OH270944   3.029   1.789   3.424 -0.2228  0.1935 -0.7363
16510TIP3    H170945   2.961   1.723   3.415 -0.1363 -0.2609  1.3937
16510TIP3    H270946   3.096   1.763   3.361 -2.2800  1.1287 -3.4760
16511TIP3   OH270947   2.772   3.615  17.200 -0.4417  0.2545 -0.0494
16511TIP3    H170948   2.692   3.610  17.252  0.2750  0.2538  1.0905
16511TIP3    H270949   2.813   3.529  17.211 -0.4996  0.0904 -1.0105
16512TIP3   OH270950   2.160   0.364  15.245 -0.1008 -0.1313 -0.0040
16512TIP3    H170951   2.117   0.407  15.172  0.9991  0.7924 -0.1370
16512TIP3    H270952   2.122   0.405  15.323  1.6168  1.8781 -0.1306
16513TIP3   OH270953   1.481   5.897  12.789  0.1279  0.0769 -0.0679
16513TIP3    H170954   1.428   5.908  12.868  0.3476  2.5709 -0.1826
16513TIP3    H270955   1.570   5.920  12.817  0.6174 -1.1451 -0.5703
16514TIP3   OH270956   4.331   0.348   0.426  0.0633  0.0453  0.1096
16514TIP3    H170957   4.286   0.280   0.476 -0.6872  0.7001  0.3413
16514TIP3    H270958   4.384   0.395   0.490 -1.4483  1.3441  0.4734
16515TIP3   OH270959   6.510   6.055  13.479 -0.0173  0.1929 -0.0716
16515TIP3    H170960   6.602   6.060  13.452  0.4662  0.4100  1.5050
16515TIP3    H270961   6.512   6.064  13.574 -1.5465 -1.2534  0.1561
16516TIP3   OH270962   4.155   0.373  15.533  0.2625  0.5097  0.2457
16516TIP3    H170963   4.226   0.363  15.597 -0.0257  0.2822  0.5354
16516TIP3    H270964   4.078   0.339  15.578 -0.1382  1.2387  0.1195
16517TIP3   OH270965   4.939   6.566  13.857 -0.2962  0.5853 -0.2496
16517TIP3    H170966   4.962   6.656  13.882 -3.1809  1.2992  0.2059
16517TIP3    H270967   4.863   6.577  13.799 -1.6228 -1.5921  0.9636
16518TIP3   OH270968   5.455   4.515  15.559  0.4814 -0.8582 -0.0013
16518TIP3    H170969   5.433   4.422  15.566 -1.2538 -0.3725  1.8433
16518TIP3    H270970   5.384   4.553  15.508 -0.2987 -0.1228  1.5774
16519TIP3   OH270971   6.559   1.249   5.199  0.1284  0.2900  0.3849
16519TIP3    H170972   6.622   1.179   5.181  0.0754  0.3241  0.0475
16519TIP3    H270973   6.585   1.284   5.284  0.3692  0.0916  0.3949
16520TIP3   OH270974   4.014   2.595   4.780 -0.0086  0.0306  0.6517
16520TIP3    H170975   4.033   2.514   4.733 -1.6114 -0.0978  0.1622
16520TIP3    H270976   4.032   2.665   4.717 -1.1593 -0.0951  0.1560
16521TIP3   OH270977   6.517   0.561  16.084  0.8325  0.0878 -0.0105
16521TIP3    H170978   6.592   0.619  16.090  0.7789  0.1016  0.5621
16521TIP3    H270979   6.541   0.497  16.016  0.2532  1.7014 -1.8283
16522TIP3   OH270980   5.284   1.268  12.805 -0.1619 -0.3314  0.5525
16522TIP3    H170981   5.313   1.344  12.753 -0.9927 -0.3229  0.0921
16522TIP3    H270982   5.295   1.296  12.895  0.5046 -0.0367  0.3910
16523TIP3   OH270983   3.128   5.302  16.735  0.0321  0.1815  0.4490
16523TIP3    H170984   3.033   5.294  16.736 -0.2312  2.3550  2.6790
16523TIP3    H270985   3.153   5.313  16.827  2.5781 -1.2708  0.0454
16524TIP3   OH270986   5.721   3.752   3.107  0.4147  0.2660 -0.0294
16524TIP3    H170987   5.656   3.682   3.109 -1.3955  1.7138 -1.9370
16524TIP3    H270988   5.805   3.708   3.101 -0.4637 -1.7042  1.3684
16525TIP3   OH270989   1.239   1.760   1.406  0.2511 -0.3584 -0.6040
16525TIP3    H170990   1.170   1.771   1.471  1.4044  1.9958  0.3426
16525TIP3    H270991   1.320   1.767   1.456  1.2197  2.8184 -2.3228
16526TIP3   OH270992   4.054   0.908   2.385  0.1968 -0.2110  0.1650
16526TIP3    H170993   4.070   0.837   2.447 -1.5897 -1.3211 -0.5632
16526TIP3    H270994   4.031   0.863   2.304  0.6117  1.2241 -0.7750
16527TIP3   OH270995   1.105   1.578   4.040 -0.3939 -0.4417 -0.3712
16527TIP3    H170996   1.090   1.485   4.056  0.0165 -0.2741  1.1651
16527TIP3    H270997   1.027   1.608   3.993 -0.5719 -1.5323 -0.7872
16528TIP3   OH270998   2.579   1.805  13.885  0.1392  0.0724 -0.0831
16528TIP3    H170999   2.492   1.804  13.845  0.4914  1.1127 -0.9132
16528TIP3    H271000   2.591   1.895  13.914  0.7097 -0.2036  0.5704
16529TIP3   OH271001   2.565   2.949   6.546  0.0136  0.2071 -0.0289
16529TIP3    H171002   2.594   2.894   6.473  0.5883  0.3268  0.1028
16529TIP3    H271003   2.497   2.897   6.589  0.5059 -0.3870  0.0549
16530TIP3   OH271004   0.077   4.974   2.574  0.0906  0.0031 -0.2891
16530TIP3    H171005   0.014   5.037   2.609 -0.0404 -0.7331  0.8710
16530TIP3    H271006   0.137   4.957   2.647 -0.1082 -1.4909 -0.4340
16531TIP3   OH271007   2.490   0.172   4.386 -0.0648 -0.0502 -0.2265
16531TIP3    H171008   2.578   0.211   4.378 -0.5115  0.9057 -0.7230
16531TIP3    H271009   2.498   0.107   4.456  1.2463 -0.5860 -0.8464
16532TIP3   OH271010   5.944   6.289   6.767  0.0728  0.0077 -0.1565
16532TIP3    H171011   6.039   6.298   6.775  0.1906 -1.5937  0.9131
16532TIP3    H271012   5.921   6.342   6.691  1.8314  0.3571 -0.4998
16533TIP3   OH271013   1.525   5.885   3.669  0.4506  0.4759  0.7586
16533TIP3    H171014   1.505   5.879   3.576 -0.5570  0.3509  0.9702
16533TIP3    H271015   1.528   5.979   3.687 -0.3044  0.5056  0.7787
16534TIP3   OH271016   6.232   4.149  15.682 -0.2498 -0.6393 -0.1773
16534TIP3    H171017   6.284   4.174  15.605 -2.6322 -1.6467 -2.2548
16534TIP3    H271018   6.289   4.168  15.757  2.3857 -0.0451 -2.1863
16535TIP3   OH271019   4.222   3.476  16.394  0.5515 -0.1663  0.5974
16535TIP3    H171020   4.257   3.539  16.457 -1.4027  1.8638 -0.1579
16535TIP3    H271021   4.128   3.472  16.414  0.3637 -1.6061 -0.4252
16536TIP3   OH271022   5.985   5.524  11.930 -0.1920 -0.1314  0.2470
16536TIP3    H171023   5.952   5.610  11.901  0.1203 -0.3304 -0.7440
16536TIP3    H271024   5.906   5.472  11.943 -0.3358 -0.4058 -1.4741
16537TIP3   OH271025   0.674   4.563   6.527  0.2039 -0.1777 -0.2502
16537TIP3    H171026   0.682   4.651   6.491  0.3520  0.7378  1.8643
16537TIP3    H271027   0.746   4.514   6.488  0.2320  0.6840 -1.3177
16538TIP3   OH271028   2.459   5.051   0.754  0.3366 -0.5972 -0.1750
16538TIP3    H171029   2.544   5.090   0.775  0.0611  0.0373 -0.2026
16538TIP3    H271030   2.437   4.997   0.830  0.0417  0.4906  0.5409
16539TIP3   OH271031   5.261   5.596  16.389  0.2380 -0.1762 -1.0456
16539TIP3    H171032   5.172   5.562  16.385 -0.1704  0.7832 -0.5389
16539TIP3    H271033   5.252   5.681  16.432  1.6522 -0.9428  0.9460
16540TIP3   OH271034   3.948   1.728  10.647 -0.3534 -0.1127 -0.2273
16540TIP3    H171035   3.862   1.749  10.610 -1.6806 -1.5146  1.8579
16540TIP3    H271036   3.941   1.636  10.672  2.2934 -0.6799 -1.2792
16541TIP3   OH271037   1.769   1.169  16.135  0.1452 -0.2939  0.0956
16541TIP3    H171038   1.683   1.206  16.157  0.0171 -0.6512  0.1937
16541TIP3    H271039   1.831   1.231  16.174 -0.0288  0.7361 -1.1715
16542TIP3   OH271040   2.728   5.806   0.020  0.3006  0.3752  0.2642
16542TIP3    H171041   2.685   5.877  -0.028  0.3819  0.4217  0.2588
16542TIP3    H271042   2.787   5.850   0.081  0.0714  0.3185  0.5260
16543TIP3   OH271043   1.704   0.951   1.995 -0.8853 -0.3263 -0.5100
16543TIP3    H171044   1.641   0.879   2.001  0.3872 -1.5578 -1.3292
16543TIP3    H271045   1.787   0.908   1.972 -0.2031  1.4622 -1.5520
16544TIP3   OH271046   4.188   0.326   3.002 -0.1550 -0.2125  0.2296
16544TIP3    H171047   4.197   0.408   2.953 -0.0455 -0.4748 -0.1850
16544TIP3    H271048   4.147   0.353   3.084  0.5419  0.3673  0.4011
16545TIP3   OH271049   4.199   2.503  12.981 -0.6041 -0.3418 -0.6671
16545TIP3    H171050   4.226   2.441  12.913 -0.6458 -1.2381  0.1151
16545TIP3    H271051   4.223   2.588  12.946 -0.5162 -0.7956 -1.7564
16546TIP3   OH271052   5.878   0.268  16.769  0.1211 -0.2222 -0.0503
16546TIP3    H171053   5.788   0.290  16.795  0.2421 -0.9199  1.0604
16546TIP3    H271054   5.918   0.352  16.747 -0.3594  0.2929  0.9510
16547TIP3   OH271055   0.425   5.286  15.692  0.0261 -0.5600  0.5059
16547TIP3    H171056   0.520   5.298  15.698  0.0283 -1.1449  1.8031
16547TIP3    H271057   0.389   5.375  15.697  0.4452 -0.4309  1.3945
16548TIP3   OH271058   5.985   3.667  12.852 -0.4221 -0.4657  0.7109
16548TIP3    H171059   6.013   3.736  12.913 -0.1923  0.2218 -0.1510
16548TIP3    H271060   6.034   3.590  12.881  1.1839  0.3189  0.2479
16549TIP3   OH271061   5.095   1.408  14.204  0.5137  0.4570 -0.3507
16549TIP3    H171062   5.007   1.430  14.174  0.1226  1.5003  1.4190
16549TIP3    H271063   5.153   1.469  14.157  0.2203  0.2782 -0.9504
16550TIP3   OH271064   4.244   6.131   0.149 -0.1219  0.0517  0.1435
16550TIP3    H171065   4.166   6.089   0.115  0.1222 -0.7756  0.5808
16550TIP3    H271066   4.212   6.193   0.214 -0.3615 -1.2077  1.2650
16551TIP3   OH271067   3.492   3.495   2.814 -0.2270 -0.1708  0.6766
16551TIP3    H171068   3.415   3.552   2.803 -0.4253 -0.6772 -0.8799
16551TIP3    H271069   3.455   3.408   2.831  0.0754  0.2122  3.8999
16552TIP3   OH271070   2.746   1.745  14.567  0.3126  0.1242 -0.0567
16552TIP3    H171071   2.672   1.684  14.571  0.9913 -0.6522  1.4974
16552TIP3    H271072   2.718   1.812  14.505  0.1497 -2.5362 -3.1336
16553TIP3   OH271073   0.061   6.488   0.051  0.2354 -0.1522 -0.3108
16553TIP3    H171074  -0.024   6.527   0.030 -0.1811 -1.7778 -1.8467
16553TIP3    H271075   0.039   6.409   0.100  0.9219 -0.0846  0.1149
16554TIP3   OH271076   3.820   6.189  14.015 -0.7611 -0.1214  0.0733
16554TIP3    H171077   3.786   6.266  14.060 -0.1701  0.3533 -0.2676
16554TIP3    H271078   3.914   6.190  14.034 -1.0211 -1.8707  1.6772
16555TIP3   OH271079   4.238   4.251   3.379  0.4974  0.0537  0.1022
16555TIP3    H171080   4.207   4.161   3.373  2.1032 -0.6299  1.2950
16555TIP3    H271081   4.174   4.302   3.329 -0.8909 -1.6241  0.0783
16556TIP3   OH271082   1.338   4.871   2.335  0.2760  0.2187  0.1882
16556TIP3    H171083   1.248   4.846   2.315  0.4009  0.0280 -0.1477
16556TIP3    H271084   1.330   4.936   2.405 -0.0589 -0.7145  1.0452
16557TIP3   OH271085   5.995   3.842   4.958 -0.1458  0.8549 -0.1685
16557TIP3    H171086   6.047   3.776   5.004  0.0119  0.3173 -1.0855
16557TIP3    H271087   5.925   3.792   4.915 -0.9652  1.4768  0.4021
16558TIP3   OH271088   4.824   3.173   0.167  0.2095 -0.1694 -0.4904
16558TIP3    H171089   4.902   3.146   0.118 -0.1876 -0.9887 -0.6923
16558TIP3    H271090   4.772   3.093   0.174 -1.7556  0.8382 -2.4063
16559TIP3   OH271091   3.135   4.858   3.682 -0.2381 -0.0588 -0.4072
16559TIP3    H171092   3.077   4.869   3.758  1.0279  0.2425  0.5515
16559TIP3    H271093   3.138   4.763   3.669 -1.7308 -0.0288 -1.1188
16560TIP3   OH271094   0.537   4.349  13.957  0.2497 -0.1537  0.0764
16560TIP3    H171095   0.622   4.353  14.001  0.5183  0.0386 -0.4483
16560TIP3    H271096   0.531   4.431  13.909 -1.3958  1.0560  2.1768
16561TIP3   OH271097   2.920   3.665   4.450 -0.8691  0.7031  0.3234
16561TIP3    H171098   3.003   3.618   4.440 -1.3490 -0.5218  1.7348
16561TIP3    H271099   2.883   3.669   4.362  0.2732  0.5135 -0.1823
16562TIP3   OH271100   0.934   1.213  13.028  0.2623  0.4722 -0.4616
16562TIP3    H171101   0.989   1.280  12.988  1.9861 -0.7906 -0.3737
16562TIP3    H271102   0.992   1.136  13.034 -1.8558 -1.3221 -1.4071
16563TIP3   OH271103   6.086   6.709   2.514  0.2686 -0.5059 -0.0010
16563TIP3    H171104   5.993   6.715   2.492 -0.1484 -1.9265  1.2075
16563TIP3    H271105   6.102   6.782   2.573 -1.0418 -2.2589  2.7252
16564TIP3   OH271106   4.803   1.359  16.705 -0.0883 -0.4289  0.2294
16564TIP3    H171107   4.855   1.439  16.699  2.3188 -1.9438 -0.6170
16564TIP3    H271108   4.713   1.390  16.714  0.9112  2.3461  1.9168
16565TIP3   OH271109   3.503   4.189   5.375  0.3270  0.1835  0.3184
16565TIP3    H171110   3.530   4.119   5.315  2.3093 -0.3647  1.7362
16565TIP3    H271111   3.452   4.145   5.442  1.1102  0.1517  0.9119
16566TIP3   OH271112   4.338   2.193  11.720 -0.1433 -0.4284  0.1948
16566TIP3    H171113   4.251   2.184  11.758 -0.0445  0.1671  0.5664
16566TIP3    H271114   4.329   2.155  11.632 -0.2118 -2.3884  0.9948
16567TIP3   OH271115   2.659   1.593  15.712  0.4060  0.0377  0.2271
16567TIP3    H171116   2.746   1.597  15.672 -0.3523  0.6522 -1.4721
16567TIP3    H271117   2.641   1.684  15.736 -0.3016  0.1495 -0.6884
16568TIP3   OH271118   3.685   6.774  11.984 -0.4093  0.6039 -0.2207
16568TIP3    H171119   3.706   6.865  11.960  0.0627  0.2668 -1.1445
16568TIP3    H271120   3.649   6.736  11.903 -3.8380  0.8876  1.0050
16569TIP3   OH271121   4.035   4.415  11.297 -0.5041  0.3119  0.1637
16569TIP3    H171122   4.008   4.412  11.206 -0.2090  0.6982  0.0618
16569TIP3    H271123   3.969   4.363  11.344  0.3815 -1.5033 -0.5091
16570TIP3   OH271124   0.998   1.035  15.160 -0.3505 -0.5320  0.4110
16570TIP3    H171125   0.967   1.022  15.249 -0.9941 -1.9013  0.0268
16570TIP3    H271126   1.092   1.019  15.164 -0.2167  0.3816  1.0094
16571TIP3   OH271127   2.119   1.445   2.348 -0.3321  0.4116 -0.0054
16571TIP3    H171128   2.147   1.536   2.358  0.3228  0.2660 -0.4829
16571TIP3    H271129   2.194   1.401   2.308 -0.8615 -0.2092 -0.3290
16572TIP3   OH271130   5.376   5.041   3.160  0.0228  0.2832 -0.2529
16572TIP3    H171131   5.348   4.951   3.177 -0.8586  0.6999  0.6029
16572TIP3    H271132   5.375   5.083   3.246 -1.1776  1.5431 -0.8446
16573TIP3   OH271133   3.040   4.908   6.122  0.5201 -0.6632  0.4111
16573TIP3    H171134   2.949   4.879   6.127  0.9682 -1.9458  2.9060
16573TIP3    H271135   3.089   4.831   6.095  1.0877 -0.6475  1.3444
16574TIP3   OH271136   1.541   2.386  14.308 -0.0079 -0.2581 -0.1693
16574TIP3    H171137   1.553   2.479  14.290 -1.1811 -0.0492  0.0072
16574TIP3    H271138   1.488   2.384  14.388  0.7221 -1.0999  0.3178
16575TIP3   OH271139   1.175   5.835   5.997 -0.1208 -0.1471  0.1956
16575TIP3    H171140   1.115   5.903   5.967 -0.0952 -0.5657 -0.8481
16575TIP3    H271141   1.189   5.855   6.089  0.1056  1.4314 -0.1478
16576TIP3   OH271142   5.115   3.870  13.465  0.0344  0.5682 -0.5105
16576TIP3    H171143   5.082   3.784  13.437  0.9221 -0.0311  0.2186
16576TIP3    H271144   5.097   3.872  13.559  2.6637 -0.0960  0.0764
16577TIP3   OH271145   4.706   5.221  12.245  0.4539 -0.2151  0.3526
16577TIP3    H171146   4.747   5.202  12.161 -0.0247 -0.1426  0.0983
16577TIP3    H271147   4.638   5.154  12.254 -0.3924  0.5825  0.0463
16578TIP3   OH271148   5.403   1.396  15.220  0.2047  0.0628  0.5677
16578TIP3    H171149   5.315   1.360  15.226 -0.3679  1.5781  1.8277
16578TIP3    H271150   5.405   1.442  15.136 -0.2126  0.0858  0.5705
16579TIP3   OH271151   4.480   2.329  12.224  0.3992 -0.1831 -0.1008
16579TIP3    H171152   4.523   2.415  12.224 -0.2837  0.1643  0.5592
16579TIP3    H271153   4.466   2.309  12.316 -0.4373 -0.4998 -0.2912
16580TIP3   OH271154   0.889   3.771  12.944 -0.2923 -0.0560  0.6887
16580TIP3    H171155   0.890   3.676  12.952  2.1267 -0.2160 -0.3959
16580TIP3    H271156   0.979   3.797  12.967 -0.2125  1.6992 -1.3212
16581TIP3   OH271157   3.029   5.794  11.929 -0.4185 -0.6505 -0.6719
16581TIP3    H171158   3.122   5.795  11.951 -0.3055 -1.5810 -1.0529
16581TIP3    H271159   3.019   5.716  11.875 -1.5734 -0.9947  0.0207
16582TIP3   OH271160   1.061   4.454   0.567  0.0594  0.3102 -0.4613
16582TIP3    H171161   1.054   4.539   0.524 -2.0171  0.2407 -0.3359
16582TIP3    H271162   1.147   4.456   0.609  0.6989  1.7176 -1.7419
16583TIP3   OH271163   5.053   6.111   2.720  0.1858  0.6266  0.1654
16583TIP3    H171164   4.993   6.037   2.707 -1.4033  1.9434 -0.4122
16583TIP3    H271165   5.114   6.081   2.788 -1.2427 -0.7328  0.9238
16584TIP3   OH271166   3.428   1.122  12.889  0.3922 -0.1241  0.6639
16584TIP3    H171167   3.395   1.202  12.930  1.9903  0.7936  0.2639
16584TIP3    H271168   3.435   1.060  12.962 -2.6841 -0.6236  0.6769
16585TIP3   OH271169   5.499   0.935   1.745 -0.3018 -0.5269  0.2045
16585TIP3    H171170   5.409   0.946   1.715 -0.7217 -1.6967  0.9512
16585TIP3    H271171   5.520   1.017   1.790 -0.9632 -0.2067 -0.0672
16586TIP3   OH271172   5.508   2.205  16.641 -0.4042 -0.1481  0.1602
16586TIP3    H171173   5.527   2.112  16.633 -0.4422 -0.1815  0.4446
16586TIP3    H271174   5.424   2.209  16.686 -0.7180  0.0133 -0.4369
16587TIP3   OH271175   2.146   1.688  13.960  0.2780  0.3527  0.6360
16587TIP3    H171176   2.119   1.729  13.878  1.0216  0.9441  0.6784
16587TIP3    H271177   2.118   1.750  14.028  0.0305  0.0555  0.8094
16588TIP3   OH271178   0.885   0.818  11.225  0.1195  0.2517  0.0476
16588TIP3    H171179   0.972   0.858  11.224 -0.0276  0.6587 -2.2490
16588TIP3    H271180   0.825   0.892  11.211 -0.4991 -0.2111  0.2198
16589TIP3   OH271181   2.972   3.548  16.774 -0.0322  0.1339 -0.0706
16589TIP3    H171182   2.932   3.486  16.713 -0.0113  0.7848 -0.7722
16589TIP3    H271183   3.022   3.607  16.717  3.3366 -1.5813  0.7937
16590TIP3   OH271184   4.548   6.067   3.645 -0.5127  0.2921  0.0120
16590TIP3    H171185   4.480   6.135   3.651 -0.4114  0.6489 -2.0495
16590TIP3    H271186   4.630   6.114   3.662 -0.5111  0.5338 -0.6419
16591TIP3   OH271187   1.677   2.367   1.214  0.0018 -0.0023 -0.4471
16591TIP3    H171188   1.705   2.284   1.252  1.9893  0.4765 -0.7812
16591TIP3    H271189   1.738   2.384   1.143 -0.0916  1.9360 -0.1342
16592TIP3   OH271190   2.709   0.370  13.323 -0.3164  0.1226 -0.0672
16592TIP3    H171191   2.646   0.387  13.252 -0.9968 -1.2826  0.1636
16592TIP3    H271192   2.794   0.387  13.283 -0.6963 -0.4172 -1.1816
16593TIP3   OH271193   0.570   0.535  12.961 -0.2468 -0.0030 -0.2930
16593TIP3    H171194   0.484   0.541  12.919 -0.1518 -1.1659 -0.7080
16593TIP3    H271195   0.559   0.466  13.027 -0.0272  0.8812  0.6856
16594TIP3   OH271196   0.314   2.347   0.638 -0.8470 -0.8368 -0.2484
16594TIP3    H171197   0.221   2.340   0.662 -0.5911 -1.2783  0.6351
16594TIP3    H271198   0.316   2.327   0.545 -1.8749  0.9725 -0.7204
16595TIP3   OH271199   0.806   1.049   1.565  0.0241 -0.0086  0.2983
16595TIP3    H171200   0.765   0.962   1.568 -2.2157  0.9576  0.0354
16595TIP3    H271201   0.899   1.033   1.582  0.1274 -2.7254 -2.0600
16596TIP3   OH271202   1.266   1.126   2.169  0.3050  0.3976  0.0588
16596TIP3    H171203   1.308   1.198   2.123 -0.8314  1.2496  0.3016
16596TIP3    H271204   1.284   1.143   2.261 -0.6036  0.8215  0.1714
16597TIP3   OH271205   2.083   5.841  11.971 -0.5738  0.4714 -0.2983
16597TIP3    H171206   2.145   5.787  11.920  0.0753 -0.4218  1.3587
16597TIP3    H271207   2.125   5.850  12.057 -2.2778  0.7363  0.5392
16598TIP3   OH271208   2.427   0.715   4.466  0.0345 -0.1273 -0.1978
16598TIP3    H171209   2.504   0.667   4.495 -0.6381 -0.3938  1.2488
16598TIP3    H271210   2.361   0.697   4.533 -1.4643 -0.3410 -1.6683
16599TIP3   OH271211   3.311   1.313  12.711 -0.3441  0.0449  0.5409
16599TIP3    H171212   3.316   1.233  12.762  0.0537  0.0378  0.4992
16599TIP3    H271213   3.375   1.300  12.641 -1.3146 -0.1995 -0.3199
16600TIP3   OH271214   4.128   4.614   1.965 -0.3280  0.0183 -0.1739
16600TIP3    H171215   4.089   4.606   2.053 -2.8526  0.2931 -1.1710
16600TIP3    H271216   4.201   4.553   1.966  0.0218  0.3493  2.2622
16601TIP3   OH271217   6.762   2.554  10.424 -0.1293 -0.1961 -0.2099
16601TIP3    H171218   6.712   2.483  10.384  0.9947 -1.1954  0.0777
16601TIP3    H271219   6.712   2.633  10.405  0.6678 -0.4543 -4.2708
16602TIP3   OH271220   5.351   5.119  12.917 -0.3655  0.5497  0.0664
16602TIP3    H171221   5.403   5.193  12.948 -0.6945  0.8873 -0.1903
16602TIP3    H271222   5.389   5.097  12.832 -0.4699  0.6220  0.0014
16603TIP3   OH271223   1.815   6.485   2.710 -0.1449  0.3357 -0.3059
16603TIP3    H171224   1.746   6.449   2.766 -0.1418  1.0299  0.1422
16603TIP3    H271225   1.895   6.439   2.737 -0.3771 -0.2849 -0.6529
16604TIP3   OH271226   2.866   3.236  15.976 -0.1624 -0.1776 -0.3166
16604TIP3    H171227   2.820   3.197  15.901 -0.3757  0.6339 -0.6220
16604TIP3    H271228   2.911   3.312  15.939  2.9375 -1.9139 -0.4213
16605TIP3   OH271229   1.451   2.699  11.251  0.2613 -0.1189  0.2401
16605TIP3    H171230   1.429   2.634  11.318  0.3799  0.8737  1.2640
16605TIP3    H271231   1.384   2.688  11.184 -0.1518 -0.7881  0.7530
16606TIP3   OH271232   6.421   5.434  13.797 -0.3710 -0.6685 -0.1808
16606TIP3    H171233   6.379   5.508  13.841 -0.1068 -0.1976 -0.7152
16606TIP3    H271234   6.513   5.438  13.826 -0.1856 -0.3297 -0.8063
16607TIP3   OH271235   2.157   0.504   0.823 -0.0748  0.5534 -0.4256
16607TIP3    H171236   2.151   0.443   0.750 -0.1111  0.8599 -0.6828
16607TIP3    H271237   2.242   0.546   0.813 -0.3287  1.0268 -0.6425
16608TIP3   OH271238   6.751   2.718   3.507  0.2282 -0.1311 -0.3350
16608TIP3    H171239   6.801   2.772   3.569 -0.2641 -0.0098 -0.0393
16608TIP3    H271240   6.815   2.692   3.441  0.6944 -0.0239  0.0706
16609TIP3   OH271241   4.387   5.197   1.328  0.0541 -0.1608 -0.5381
16609TIP3    H171242   4.346   5.244   1.255  0.8233  0.3101 -0.6840
16609TIP3    H271243   4.384   5.259   1.401  0.1193 -0.2799 -0.4341
16610TIP3   OH271244   5.814   1.776  13.680 -0.0806  0.4178  0.0110
16610TIP3    H171245   5.734   1.828  13.672 -2.5853 -3.1119 -0.1839
16610TIP3    H271246   5.847   1.768  13.591 -0.0645  1.0351 -0.0432
16611TIP3   OH271247   3.999   3.291   2.835  0.4809 -0.5911 -0.0645
16611TIP3    H171248   3.908   3.309   2.809  0.4743 -0.9663 -0.3130
16611TIP3    H271249   4.050   3.353   2.783  0.4196 -0.9058 -0.5090
16612TIP3   OH271250   4.412   3.184  17.059  0.1755 -0.6051  0.1861
16612TIP3    H171251   4.448   3.256  17.008  0.6397 -1.9583 -1.5012
16612TIP3    H271252   4.319   3.205  17.067 -0.1563 -0.8355 -2.2314
16613TIP3   OH271253   4.786   4.206   4.666 -0.2726  0.0618  0.4817
16613TIP3    H171254   4.711   4.149   4.678 -0.3126  0.1488  0.6349
16613TIP3    H271255   4.753   4.279   4.613 -0.0054 -0.5189 -0.5251
16614TIP3   OH271256   1.705   1.400   5.833  0.1466  0.0801  0.0960
16614TIP3    H171257   1.657   1.436   5.907 -0.5259 -0.5520 -0.0233
16614TIP3    H271258   1.759   1.473   5.802 -1.7997  1.3107 -0.6650
16615TIP3   OH271259   4.560   1.035  16.110 -0.0616 -0.3082  0.1930
16615TIP3    H171260   4.506   0.988  16.047  0.1652 -1.7541  1.0316
16615TIP3    H271261   4.599   1.107  16.060  0.9192 -1.9854 -1.5898
16616TIP3   OH271262   0.474   4.115   5.876 -0.1385 -0.1662  0.0029
16616TIP3    H171263   0.464   4.117   5.781 -1.4872  1.4892  0.1269
16616TIP3    H271264   0.399   4.164   5.909  2.7033  3.5435  1.6868
16617TIP3   OH271265   3.392   6.648  15.804  0.0411  0.0052  0.1285
16617TIP3    H171266   3.451   6.659  15.730 -0.8672 -0.5112 -0.7115
16617TIP3    H271267   3.315   6.700  15.782 -0.6559 -0.9475  0.2164
16618TIP3   OH271268   6.229   4.347   1.733  0.3860 -0.1485  0.2284
16618TIP3    H171269   6.285   4.339   1.811 -1.8698 -1.6613  1.8321
16618TIP3    H271270   6.220   4.257   1.701 -0.9252  0.0772 -0.0909
16619TIP3   OH271271   6.393   0.703   6.423 -0.2126 -0.1789 -0.2704
16619TIP3    H171272   6.314   0.751   6.450 -0.3160  0.0570 -0.9585
16619TIP3    H271273   6.396   0.627   6.482 -0.1639  0.5479  0.6921
16620TIP3   OH271274   3.995   3.058   2.596 -0.1633  0.4767 -0.1081
16620TIP3    H171275   3.912   3.106   2.605 -0.4477  0.3364 -1.6351
16620TIP3    H271276   4.061   3.118   2.631 -1.0353 -0.0646  2.7129
16621TIP3   OH271277   6.064   4.043  15.423  0.0668  0.1879  0.1974
16621TIP3    H171278   6.060   4.136  15.445  2.0158  0.1551  0.8143
16621TIP3    H271279   6.121   4.038  15.347 -3.0562 -0.1912 -2.3375
16622TIP3   OH271280   4.252   5.940  11.912  0.2159  0.7003 -0.4741
16622TIP3    H171281   4.292   6.026  11.900 -0.1753  1.2184  1.6253
16622TIP3    H271282   4.313   5.892  11.968  1.6502 -1.3630 -3.4828
16623TIP3   OH271283   1.656   3.425   1.202 -0.0408  0.1492  0.0682
16623TIP3    H171284   1.571   3.463   1.181 -0.5166 -0.5281  0.7117
16623TIP3    H271285   1.716   3.461   1.136 -0.5736  1.5411  0.3201
16624TIP3   OH271286   5.470   4.254   2.189 -0.3326  0.0763  0.3420
16624TIP3    H171287   5.559   4.218   2.190 -0.9960 -1.6968  0.0996
16624TIP3    H271288   5.442   4.251   2.280  0.1072  1.3813  0.5403
16625TIP3   OH271289   4.873   6.544  16.542 -0.7848 -0.1525 -0.6273
16625TIP3    H171290   4.863   6.569  16.633 -1.2852 -0.8661 -0.4803
16625TIP3    H271291   4.847   6.622  16.493  1.1444  0.8444 -0.1793
16626TIP3   OH271292   4.814   1.865   1.403 -0.1755 -0.2272 -0.3200
16626TIP3    H171293   4.821   1.789   1.346  1.5067 -0.9574  0.7827
16626TIP3    H271294   4.788   1.829   1.488  2.8048  0.0212  0.8364
16627TIP3   OH271295   4.821   0.536   2.162  0.1374 -0.4375 -0.3105
16627TIP3    H171296   4.747   0.476   2.173 -1.9039  1.1805 -3.7199
16627TIP3    H271297   4.859   0.512   2.078  0.4069  1.8604 -0.9005
16628TIP3   OH271298   4.027   5.580  10.926 -0.2985 -0.2580  0.2498
16628TIP3    H171299   4.093   5.594  10.858  0.7022  1.4913  1.4998
16628TIP3    H271300   3.998   5.668  10.949 -1.3132 -0.8712  1.4259
16629TIP3   OH271301   0.967   1.674  12.352  0.1777 -0.0822 -0.1512
16629TIP3    H171302   1.029   1.681  12.424  0.9977  0.5330 -0.8986
16629TIP3    H271303   1.017   1.699  12.274 -0.8464 -0.1564 -0.8538
16630TIP3   OH271304   2.459   5.967  14.362 -0.3425  0.0690 -0.1522
16630TIP3    H171305   2.497   5.881  14.380 -0.5149  0.0010 -0.1139
16630TIP3    H271306   2.373   5.948  14.323 -0.1926  0.2175 -0.5598
16631TIP3   OH271307   2.818   2.039  17.038  0.2338  0.1957 -0.3920
16631TIP3    H171308   2.741   1.983  17.034 -0.2418  0.7752  0.3576
16631TIP3    H271309   2.821   2.069  17.128  1.2941  0.2492 -0.4383
16632TIP3   OH271310   3.775   3.270  15.911  0.1808  0.1319  0.3566
16632TIP3    H171311   3.756   3.322  15.834 -1.4577 -0.0823  0.5785
16632TIP3    H271312   3.868   3.284  15.928  1.1545 -1.4139 -2.8483
16633TIP3   OH271313   3.012   0.091   6.355  0.2893  0.0396 -0.6427
16633TIP3    H171314   3.064   0.120   6.430  0.6256  0.6568 -1.1110
16633TIP3    H271315   2.988   0.172   6.310 -1.5332 -0.1782 -0.1380
16634TIP3   OH271316   1.169   1.581   2.967 -0.9819 -0.2527 -0.8566
16634TIP3    H171317   1.197   1.664   3.005 -0.8496  0.5916 -2.7047
16634TIP3    H271318   1.182   1.592   2.873 -1.2484 -2.2691 -1.1699
16635TIP3   OH271319   2.670   1.654   5.421  0.0345 -0.4294 -0.1833
16635TIP3    H171320   2.647   1.562   5.432 -2.1579  0.1840  0.8875
16635TIP3    H271321   2.613   1.685   5.350 -0.4705  0.4895  0.6005
16636TIP3   OH271322   3.794   3.371  11.684  0.0061  1.0646  0.5531
16636TIP3    H171323   3.735   3.423  11.630 -0.7113  1.2108  1.4547
16636TIP3    H271324   3.737   3.330  11.749  0.8118  0.6674  1.0203
16637TIP3   OH271325   1.929   3.908  14.224  0.4855 -0.1467 -0.2175
16637TIP3    H171326   1.884   3.941  14.146 -0.9061  2.1308  1.4092
16637TIP3    H271327   2.019   3.939  14.215  0.3534  0.0280 -0.9657
16638TIP3   OH271328   0.060   0.021   1.607 -0.1448  0.3028 -0.1699
16638TIP3    H171329   0.024  -0.066   1.591  0.7510 -0.1073  0.0074
16638TIP3    H271330  -0.015   0.080   1.598 -0.9028 -0.5553  0.4203
16639TIP3   OH271331   4.710   2.404   4.631 -0.1416 -0.8579  0.3932
16639TIP3    H171332   4.666   2.472   4.682  0.7572  0.2604 -0.2805
16639TIP3    H271333   4.639   2.345   4.604 -0.9265 -0.2473  1.0520
16640TIP3   OH271334   0.692   0.563   2.909  0.5346  0.3025 -0.0717
16640TIP3    H171335   0.773   0.594   2.947  0.2161 -1.0446  1.8697
16640TIP3    H271336   0.712   0.475   2.877  0.2548  0.6168 -1.1644
16641TIP3   OH271337   3.139   1.684  11.943 -0.3359  0.7919  0.1073
16641TIP3    H171338   3.222   1.684  11.990  0.2796  0.5640 -0.9373
16641TIP3    H271339   3.123   1.776  11.923 -0.4165  0.8519  0.4398
16642TIP3   OH271340   6.770   2.939  13.560 -0.1750  0.8585  0.5730
16642TIP3    H171341   6.745   2.852  13.589  0.6135  1.1822  2.3515
16642TIP3    H271342   6.693   2.972  13.514 -0.5215 -0.7112 -0.0147
16643TIP3   OH271343   6.466   3.520  11.686  0.6062  0.1599 -0.2008
16643TIP3    H171344   6.552   3.499  11.648  0.2064 -0.2540 -0.9108
16643TIP3    H271345   6.409   3.448  11.657  0.1120  0.2218  0.5934
16644TIP3   OH271346   2.843   6.642  13.632  0.0022 -0.5420 -0.4047
16644TIP3    H171347   2.832   6.550  13.609  1.1255 -0.4844 -1.2516
16644TIP3    H271348   2.908   6.642  13.703 -0.0849 -0.4083 -0.3234
16645TIP3   OH271349   0.043   3.151   5.817 -0.2040 -0.0870  0.4907
16645TIP3    H171350  -0.046   3.185   5.808  0.4355  1.3341 -0.6962
16645TIP3    H271351   0.032   3.073   5.872 -2.3113 -0.5248 -0.4280
16646TIP3   OH271352   5.392   6.052   5.809  0.0287  0.3121 -0.0663
16646TIP3    H171353   5.311   6.083   5.849 -0.9847 -0.9409 -1.0439
16646TIP3    H271354   5.375   5.959   5.790  1.6844  0.0252 -0.3217
16647TIP3   OH271355   6.009   2.196  16.695 -0.0391 -0.1477 -0.3719
16647TIP3    H171356   6.010   2.102  16.675 -0.6464 -0.0278 -1.0430
16647TIP3    H271357   6.050   2.203  16.781  0.9108 -0.9175 -0.7384
16648TIP3   OH271358   4.607   3.749   4.784  0.1061  0.3242 -0.7441
16648TIP3    H171359   4.641   3.677   4.838 -0.2928 -0.1427 -1.1077
16648TIP3    H271360   4.529   3.712   4.741 -0.4159  1.1348 -0.5244
16649TIP3   OH271361   6.370   1.170   3.445 -0.3878  0.1693 -0.1289
16649TIP3    H171362   6.293   1.199   3.494 -0.1812 -0.4917  0.5998
16649TIP3    H271363   6.427   1.247   3.441 -1.6719  1.1185 -1.9245
16650TIP3   OH271364   3.313   2.227  16.322 -0.2336 -0.2293 -0.3536
16650TIP3    H171365   3.394   2.266  16.289 -0.5357 -0.2991 -1.1997
16650TIP3    H271366   3.247   2.249  16.257 -0.5372 -1.6695 -0.5681
16651TIP3   OH271367   1.444   3.353  14.896 -0.3396  0.3498  0.3357
16651TIP3    H171368   1.504   3.419  14.930 -0.2687  0.0212  0.8557
16651TIP3    H271369   1.433   3.291  14.968 -1.1601  0.3060  0.1857
16652TIP3   OH271370   6.617   2.082  15.108  0.1498  0.2449  0.5630
16652TIP3    H171371   6.533   2.106  15.069 -0.0429 -1.3153 -0.0855
16652TIP3    H271372   6.641   2.000  15.063  2.7064  1.3483 -0.2754
16653TIP3   OH271373   6.740   4.281   3.961 -0.0274  0.2109  0.2598
16653TIP3    H171374   6.692   4.358   3.930  1.9332  0.0938 -3.8476
16653TIP3    H271375   6.711   4.210   3.903 -1.8416 -2.3662  3.9625
16654TIP3   OH271376   2.101   1.386  15.621 -0.2511 -0.1177  0.2702
16654TIP3    H171377   2.144   1.322  15.564  0.4535 -0.5815  1.2777
16654TIP3    H271378   2.009   1.360  15.622 -0.1496 -0.5048 -0.1261
16655TIP3   OH271379   5.802   2.571  16.080  0.5444  0.3272 -0.1889
16655TIP3    H171380   5.776   2.544  16.168  0.4260  0.4959 -0.1711
16655TIP3    H271381   5.823   2.664  16.089 -0.7094  0.6649 -0.5994
16656TIP3   OH271382   3.445   5.424  16.463  0.2285  0.5588 -0.0505
16656TIP3    H171383   3.522   5.415  16.520 -0.4151 -0.4822  0.7034
16656TIP3    H271384   3.406   5.507  16.489  1.7248  1.7081 -1.2823
16657TIP3   OH271385   4.067   4.852  14.473 -0.5713  0.4066  0.0541
16657TIP3    H171386   4.142   4.905  14.501 -1.4801  1.3592  0.7525
16657TIP3    H271387   3.993   4.887  14.523 -1.3649 -0.9406 -0.1486
16658TIP3   OH271388   5.415   4.551   5.304  0.1383 -0.5035  0.4647
16658TIP3    H171389   5.374   4.509   5.379  0.3490 -1.7151 -0.0695
16658TIP3    H271390   5.466   4.482   5.262  2.6790  0.8829  1.0164
16659TIP3   OH271391   5.718   0.986  13.666 -0.2199 -0.3056 -0.5474
16659TIP3    H171392   5.749   0.901  13.637  0.0781 -0.3236 -0.1797
16659TIP3    H271393   5.771   1.007  13.743  1.1823  1.1555 -1.8263
16660TIP3   OH271394   1.783   5.536   1.761  0.3255  0.3729  0.2412
16660TIP3    H171395   1.692   5.508   1.767  0.0872  0.9015 -0.6909
16660TIP3    H271396   1.834   5.455   1.771 -0.2597  0.0128  0.3313
16661TIP3   OH271397   6.008   2.336   5.030 -0.2699 -0.3053  0.4155
16661TIP3    H171398   5.967   2.365   4.949  0.4126 -2.4204 -0.7618
16661TIP3    H271399   5.943   2.281   5.072  0.1451 -0.9655  0.2078
16662TIP3   OH271400   0.164   4.052   6.201  0.0251 -0.4253  0.0056
16662TIP3    H171401   0.121   4.120   6.252 -0.4936  0.0182 -0.9983
16662TIP3    H271402   0.125   3.970   6.233 -3.5122  0.0462 -2.4776
16663TIP3   OH271403   0.781   0.828  17.115 -0.5656  0.1237  0.0884
16663TIP3    H171404   0.845   0.767  17.152 -0.3949  0.5566  0.5249
16663TIP3    H271405   0.823   0.914  17.122  0.2173  0.0728 -2.7456
16664TIP3   OH271406   3.082   1.911   4.073  0.4864 -0.5364  0.7603
16664TIP3    H171407   3.074   1.959   3.990  1.4185 -2.6003 -0.6218
16664TIP3    H271408   2.995   1.873   4.087  0.8649 -1.9672 -0.4984
16665TIP3   OH271409   6.260   2.962   5.599 -0.3886 -0.7627 -0.3028
16665TIP3    H171410   6.283   3.054   5.593 -1.4470 -0.5199 -1.0338
16665TIP3    H271411   6.284   2.936   5.687  0.6334  0.0051 -0.3472
16666TIP3   OH271412   1.432   5.496   0.082 -0.6541  0.2719 -0.5616
16666TIP3    H171413   1.515   5.449   0.093  0.7161  1.9522 -2.8421
16666TIP3    H271414   1.435   5.564   0.150 -0.6869 -0.3235  0.0498
16667TIP3   OH271415   2.440   1.979  16.225 -0.0974 -0.0871 -0.0163
16667TIP3    H171416   2.497   2.054  16.239  0.6358 -0.9083  1.7514
16667TIP3    H271417   2.369   1.990  16.288 -0.5695 -0.3313 -0.4955
16668TIP3   OH271418   4.131   1.682  11.237 -0.1428  0.1973 -0.1235
16668TIP3    H171419   4.044   1.718  11.225 -0.3285 -0.1351  0.1994
16668TIP3    H271420   4.190   1.755  11.219 -0.4484  0.1745 -1.3093
16669TIP3   OH271421   6.387   6.222   3.961 -1.0568  0.6293  0.1140
16669TIP3    H171422   6.359   6.210   4.051 -2.3910 -0.3349 -0.4019
16669TIP3    H271423   6.332   6.162   3.910  2.1559 -1.7062 -0.9514
16670TIP3   OH271424   6.209   4.000  16.854 -0.3468 -0.5818  0.1386
16670TIP3    H171425   6.183   3.941  16.924  1.0459 -0.7025  0.5816
16670TIP3    H271426   6.274   3.950  16.804  1.6974  0.9201  1.1767
16671TIP3   OH271427   2.302   5.464  14.016  0.4222  0.2262  0.3636
16671TIP3    H171428   2.249   5.398  14.060  0.9582 -0.5722 -0.1386
16671TIP3    H271429   2.299   5.439  13.923 -0.7168  1.8895 -0.0824
16672TIP3   OH271430   6.419   3.605  14.361 -0.7380  0.4636 -0.0255
16672TIP3    H171431   6.396   3.697  14.367 -0.0819  0.5429  2.1664
16672TIP3    H271432   6.431   3.577  14.452  1.0752 -1.2539 -0.7027
16673TIP3   OH271433   2.933   0.589  15.930 -0.3511 -0.5361 -0.3014
16673TIP3    H171434   2.911   0.586  16.023 -1.1111 -0.4239 -0.4674
16673TIP3    H271435   2.850   0.610  15.887  0.0269 -0.4332 -0.9914
16674TIP3   OH271436   0.957   6.167  11.788 -0.4904  0.4766 -0.1348
16674TIP3    H171437   0.899   6.233  11.751 -0.5000  0.8881  0.5967
16674TIP3    H271438   1.003   6.131  11.713 -0.3694  1.4220 -0.5275
16675TIP3   OH271439   4.396   0.888  15.148 -0.1875  0.3839  0.0011
16675TIP3    H171440   4.468   0.935  15.190 -0.0648 -0.1405  0.3916
16675TIP3    H271441   4.426   0.875  15.057  0.8910 -1.1335  0.5252
16676TIP3   OH271442   4.502   5.867  15.624 -0.3209 -0.1907  0.0297
16676TIP3    H171443   4.569   5.935  15.632  0.1558 -0.6474  0.0248
16676TIP3    H271444   4.448   5.877  15.702  1.1735 -1.2915  1.2816
16677TIP3   OH271445   3.000   2.889   0.497  0.0657  0.3590  0.6409
16677TIP3    H171446   2.997   2.867   0.404  2.3188 -2.6888  1.1416
16677TIP3    H271447   3.072   2.951   0.505  1.1765 -0.8714  0.5218
16678TIP3   OH271448   2.001   1.732  12.722  0.5407 -0.6352 -0.2940
16678TIP3    H171449   2.089   1.762  12.741  0.9016  0.6190 -3.3702
16678TIP3    H271450   2.014   1.648  12.677  0.0371 -1.1432  0.4760
16679TIP3   OH271451   6.778   5.388   2.664  0.0799 -0.0686 -0.4092
16679TIP3    H171452   6.799   5.464   2.719 -1.2937  0.0614 -0.0141
16679TIP3    H271453   6.713   5.422   2.602 -0.3989 -0.8730 -0.3583
16680TIP3   OH271454   5.047   3.221  16.914  0.2428  0.0881 -0.0193
16680TIP3    H171455   5.077   3.226  16.823 -0.4508 -1.3356 -0.3516
16680TIP3    H271456   4.955   3.194  16.908 -0.2917  1.5069  1.0719
16681TIP3   OH271457   1.237   1.107  10.871  0.2238 -0.3428 -0.4054
16681TIP3    H171458   1.315   1.159  10.853  0.5102 -0.7555 -0.3809
16681TIP3    H271459   1.192   1.154  10.942  0.2410  0.1050 -0.6865
16682TIP3   OH271460   3.900   0.155  12.271 -0.1498 -0.2239 -0.1217
16682TIP3    H171461   3.872   0.246  12.272  0.6710  0.0636  1.5625
16682TIP3    H271462   3.844   0.112  12.335  0.2146 -0.6420 -0.0730
16683TIP3   OH271463   3.932   2.248  13.354 -0.0574  0.0988 -0.2323
16683TIP3    H171464   3.998   2.299  13.307  1.2018 -1.2168  0.0655
16683TIP3    H271465   3.902   2.307  13.424  0.1993  0.9917 -0.8509
16684TIP3   OH271466   2.916   3.626   0.966  0.0956  0.1906  0.1066
16684TIP3    H171467   3.010   3.639   0.956 -0.0186  1.2780  0.3836
16684TIP3    H271468   2.876   3.694   0.913 -0.5899 -1.8419 -2.1745
16685TIP3   OH271469   4.110   0.394  15.085  0.0589  0.2360  0.0399
16685TIP3    H171470   4.194   0.412  15.044  0.0178  0.0616 -0.1250
16685TIP3    H271471   4.126   0.318  15.141 -0.5300 -1.3789 -1.8492
16686TIP3   OH271472   6.450   0.026  17.243  0.2323  0.2669 -0.4526
16686TIP3    H171473   6.411  -0.019  17.168  0.3473 -0.3231 -0.1623
16686TIP3    H271474   6.375   0.051  17.297  0.0957  1.3805 -1.1363
16687TIP3   OH271475   4.477   2.854   5.386 -0.3538 -0.5739  0.2355
16687TIP3    H171476   4.519   2.776   5.349 -0.2090  0.3457 -1.6720
16687TIP3    H271477   4.490   2.922   5.320 -2.8931  0.3568  0.5758
16688TIP3   OH271478   4.356   5.791  17.242 -0.6825  0.6363  0.2249
16688TIP3    H171479   4.321   5.843  17.169 -1.6278  1.3167  1.1313
16688TIP3    H271480   4.450   5.788  17.226 -0.9139  0.3684 -1.2679
16689TIP3   OH271481   1.795   0.888  12.317  0.8887 -0.2131  0.8048
16689TIP3    H171482   1.808   0.853  12.229  0.8884 -0.5736  0.9461
16689TIP3    H271483   1.806   0.812  12.375 -0.0647 -0.1815  1.0506
16690TIP3   OH271484   3.004   5.267   1.047 -0.2090 -0.2530 -0.7055
16690TIP3    H171485   3.069   5.338   1.047 -0.3241 -0.1184  0.6963
16690TIP3    H271486   2.937   5.296   0.985 -0.3530  0.9731 -0.0067
16691TIP3   OH271487   3.150   2.517   1.025  0.2534 -0.5233 -0.1981
16691TIP3    H171488   3.193   2.519   0.940  0.4508 -1.7002 -0.1382
16691TIP3    H271489   3.074   2.460   1.013 -0.3906  0.2509  0.1127
16692TIP3   OH271490   0.783   3.238   2.235 -0.4391  0.0230  0.0036
16692TIP3    H171491   0.780   3.265   2.327 -0.0002 -1.9875  0.6639
16692TIP3    H271492   0.699   3.268   2.199 -0.5240  1.0359  0.9781
16693TIP3   OH271493   4.423   6.282  11.448  0.0847  0.3372  0.1731
16693TIP3    H171494   4.333   6.304  11.475 -0.3995  1.4891 -2.0925
16693TIP3    H271495   4.448   6.210  11.505 -2.2485  0.0481  0.9565
16694TIP3   OH271496   1.706   3.458  13.786  0.0718  0.1972  0.4601
16694TIP3    H171497   1.736   3.539  13.827  1.4711  0.6496 -1.3088
16694TIP3    H271498   1.612   3.456  13.803  0.0040  2.1866  0.6063
16695TIP3   OH271499   6.624   0.561   1.910  0.4255  0.4205 -0.6893
16695TIP3    H171500   6.531   0.573   1.888  0.3060  1.2025  0.1535
16695TIP3    H271501   6.653   0.649   1.936  0.8608 -0.2050  1.0384
16696TIP3   OH271502   1.795   3.428  15.238  0.0867 -0.3175 -0.3491
16696TIP3    H171503   1.702   3.426  15.217 -0.0718  1.9557 -0.1073
16696TIP3    H271504   1.805   3.365  15.310 -1.4620  0.1203  0.2937
16697TIP3   OH271505   2.693   5.841  12.109 -0.1194 -0.1551 -0.1194
16697TIP3    H171506   2.669   5.783  12.037 -0.3239 -0.3336  0.0925
16697TIP3    H271507   2.709   5.926  12.067  1.9567 -0.7671 -0.6949
16698TIP3   OH271508   6.142   2.558  14.210 -0.0434 -0.0870 -0.4000
16698TIP3    H171509   6.187   2.625  14.260 -0.9491 -0.0979  0.4595
16698TIP3    H271510   6.152   2.478  14.262 -2.5656  0.2761  0.7870
16699TIP3   OH271511   0.143   4.316   2.870  0.3719 -0.2658 -0.0597
16699TIP3    H171512   0.136   4.395   2.923  2.9475  0.0753 -0.1035
16699TIP3    H271513   0.216   4.267   2.909  0.0494 -1.7119 -1.1686
16700TIP3   OH271514   1.064   2.588   1.130 -0.4128  0.1126 -0.3079
16700TIP3    H171515   1.134   2.526   1.153  0.3124  0.4090 -1.6146
16700TIP3    H271516   1.033   2.557   1.045 -0.9325  0.7942 -0.3699
16701TIP3   OH271517   2.485   3.376   1.021  0.2056  0.4202  0.3075
16701TIP3    H171518   2.537   3.357   0.943 -2.1001  1.4677 -1.6276
16701TIP3    H271519   2.438   3.295   1.039 -0.2500  0.5561 -0.2378
16702TIP3   OH271520   3.362   4.154   1.704 -0.6249 -0.1639 -0.2290
16702TIP3    H171521   3.453   4.124   1.708 -0.7742 -0.6218 -0.3029
16702TIP3    H271522   3.362   4.218   1.633  0.0877  1.4061  1.0846
16703TIP3   OH271523   5.416   1.236   3.211  0.0702  0.0765  0.5017
16703TIP3    H171524   5.416   1.149   3.248 -1.2437  0.5810  1.7984
16703TIP3    H271525   5.462   1.290   3.275 -0.7852  0.6571  0.6499
16704TIP3   OH271526   3.399   0.059   1.330  0.4634  0.0333  0.2620
16704TIP3    H171527   3.485   0.082   1.294  0.2897  3.2632  1.5655
16704TIP3    H271528   3.336   0.099   1.271 -0.0029  0.5156  1.0602
16705TIP3   OH271529   6.682   3.529  14.304  0.0580  0.7165 -0.2860
16705TIP3    H171530   6.721   3.538  14.390  1.4473  0.7542 -0.8899
16705TIP3    H271531   6.589   3.546  14.317  0.4848  2.2803  0.9206
16706TIP3   OH271532   2.746   6.710  17.199 -0.3025  0.0110  0.2986
16706TIP3    H171533   2.727   6.792  17.151  0.7587  0.8722  1.3025
16706TIP3    H271534   2.738   6.734  17.291 -1.6669 -1.4709  0.6004
16707TIP3   OH271535   4.179   1.004   0.842 -0.0742  0.0672  0.0146
16707TIP3    H171536   4.171   1.074   0.907 -1.3446  0.4009 -0.4763
16707TIP3    H271537   4.096   1.006   0.794  0.3574 -0.9793 -0.8124
16708TIP3   OH271538   5.723   1.561   2.440  0.3297  0.1798  0.5489
16708TIP3    H171539   5.735   1.510   2.360 -0.1575 -0.6781  1.0108
16708TIP3    H271540   5.646   1.615   2.423  0.8466  0.7806  0.0590
16709TIP3   OH271541   3.794   2.734  15.435 -0.3254  0.3953 -0.0361
16709TIP3    H171542   3.704   2.761  15.448 -0.1518  0.5622  0.8368
16709TIP3    H271543   3.838   2.753  15.518 -0.1214 -2.3006  0.5494
16710TIP3   OH271544   0.289   6.163  10.522 -0.2636 -0.2681  0.4497
16710TIP3    H171545   0.299   6.165  10.617  1.1732  0.6058  0.3183
16710TIP3    H271546   0.326   6.246  10.492 -1.9371  0.0796 -0.7897
16711TIP3   OH271547   5.780   0.657  15.584  0.1232  0.0808 -1.5377
16711TIP3    H171548   5.764   0.628  15.494 -3.0062 -2.6670 -0.3167
16711TIP3    H271549   5.693   0.674  15.619  1.0027 -1.2508  1.6234
16712TIP3   OH271550   1.238   1.435   6.200 -0.9482 -0.4804 -0.3432
16712TIP3    H171551   1.168   1.427   6.135 -0.7941  1.5478 -0.8221
16712TIP3    H271552   1.312   1.387   6.161 -1.3714 -0.7296 -0.8631
16713TIP3   OH271553   1.966   2.160  14.247  0.1285  0.1070 -0.7128
16713TIP3    H171554   1.947   2.249  14.276  1.0684  0.0256  0.1983
16713TIP3    H271555   2.060   2.160  14.230 -0.3679  0.2042 -4.0632
16714TIP3   OH271556   3.951   6.001  14.757  0.7162 -0.1843 -0.3441
16714TIP3    H171557   3.918   6.003  14.847 -1.5664 -0.6041 -1.1145
16714TIP3    H271558   4.028   5.944  14.761  0.6919 -0.1420  1.3410
16715TIP3   OH271559   4.100   6.739  15.724 -0.2659 -0.2938 -0.1040
16715TIP3    H171560   4.167   6.678  15.694  0.1937  0.7160 -1.2166
16715TIP3    H271561   4.137   6.782  15.801 -0.7123 -1.5959  0.8703
16716TIP3   OH271562   0.147   5.950   3.002  0.1343  0.2485  0.3567
16716TIP3    H171563   0.088   5.877   3.021 -1.7060  1.8448  1.1143
16716TIP3    H271564   0.191   5.966   3.086  0.3607  0.1695  0.2535
16717TIP3   OH271565   6.044   4.159   0.244  0.2589  0.6190  0.0370
16717TIP3    H171566   6.088   4.111   0.314 -1.5684 -1.8967 -0.3889
16717TIP3    H271567   6.109   4.163   0.174  1.7593  2.2859  1.4384
16718TIP3   OH271568   3.031   5.653   2.013  0.3572 -0.2132 -0.0663
16718TIP3    H171569   3.088   5.621   1.942  1.7350  3.7292 -0.9855
16718TIP3    H271570   3.070   5.619   2.093  1.7759 -0.6638 -0.9247
16719TIP3   OH271571   2.134   0.148  11.297 -0.5595  0.1597 -0.6497
16719TIP3    H171572   2.105   0.238  11.283 -3.1377 -0.6369 -0.8659
16719TIP3    H271573   2.108   0.128  11.387  1.0505 -0.0495 -0.1895
16720TIP3   OH271574   0.798   3.568   5.791 -0.1981 -0.6240 -0.4574
16720TIP3    H171575   0.831   3.644   5.840 -0.5198  0.6354 -2.1094
16720TIP3    H271576   0.827   3.493   5.842  1.7474  0.5354  0.2760
16721TIP3   OH271577   0.866   3.958  15.055 -0.1947 -0.0191  0.3738
16721TIP3    H171578   0.791   3.985  15.002 -0.3316 -1.3602 -0.1378
16721TIP3    H271579   0.894   4.039  15.099 -0.2237  1.0641 -1.5247
16722TIP3   OH271580   2.320   4.204  16.212  0.1476 -0.0488 -0.0172
16722TIP3    H171581   2.321   4.124  16.160  0.0706  0.1632 -0.3485
16722TIP3    H271582   2.387   4.191  16.279 -1.7474 -1.5957  1.7507
16723TIP3   OH271583   5.171   6.716  11.507 -0.3875 -0.1011 -0.1472
16723TIP3    H171584   5.077   6.705  11.519 -0.1608 -0.9176  1.1106
16723TIP3    H271585   5.205   6.627  11.497  0.6891 -0.2880  3.5019
16724TIP3   OH271586   6.050   1.619   4.880 -0.2110 -0.5348 -0.5286
16724TIP3    H171587   6.058   1.523   4.873 -1.6613 -0.9897  2.5855
16724TIP3    H271588   5.966   1.633   4.922  0.7536  2.0364  0.7447
16725TIP3   OH271589   2.960   4.238  16.985  0.4409 -0.4935  0.0424
16725TIP3    H171590   2.874   4.278  16.995 -0.4091 -2.4215  0.9184
16725TIP3    H271591   2.950   4.179  16.910  1.4219  0.2881 -0.7214
16726TIP3   OH271592   1.010   0.562   3.874  0.2630 -0.1454  0.2837
16726TIP3    H171593   1.042   0.563   3.783  0.6915  0.2606  0.4345
16726TIP3    H271594   1.028   0.650   3.906 -0.8836  0.0525  0.4281
16727TIP3   OH271595   6.077   5.690   1.350 -0.1622  0.0556 -0.1808
16727TIP3    H171596   6.089   5.644   1.432  0.5410  0.1053 -0.2492
16727TIP3    H271597   6.095   5.782   1.371  0.1445  0.0523 -0.4073
16728TIP3   OH271598   1.979   6.092  15.751  0.3414  0.1949 -0.1885
16728TIP3    H171599   2.040   6.166  15.755 -0.2658  0.8462 -1.8642
16728TIP3    H271600   1.984   6.063  15.659  1.1638 -2.3823  0.5866
16729TIP3   OH271601   1.013   0.125  15.909  0.2308 -0.3076  0.6692
16729TIP3    H171602   0.954   0.058  15.874 -0.5672 -0.3552  2.0086
16729TIP3    H271603   1.095   0.078  15.927  1.1207 -0.0321 -2.1619
16730TIP3   OH271604   2.170   4.226  15.204  0.3495  0.1161 -0.6016
16730TIP3    H171605   2.157   4.135  15.179 -0.9740 -0.0401  0.5040
16730TIP3    H271606   2.166   4.274  15.121  1.0036 -0.8201 -1.1858
16731TIP3   OH271607   3.653   0.576  17.053  0.0141  0.2026  0.1894
16731TIP3    H171608   3.610   0.608  17.133 -1.2340 -0.7100 -0.0837
16731TIP3    H271609   3.742   0.553  17.081 -0.0235  1.0468  1.0405
16732TIP3   OH271610   6.301   3.266  13.803 -0.7727  0.2578 -0.6348
16732TIP3    H171611   6.260   3.230  13.725 -0.0615 -2.9496  0.3289
16732TIP3    H271612   6.296   3.195  13.867  0.3306  2.1186  1.6464
16733TIP3   OH271613   1.243   6.172   2.105 -0.4203  0.5726 -0.0205
16733TIP3    H171614   1.245   6.148   2.012  0.7628 -1.9554  0.5777
16733TIP3    H271615   1.211   6.262   2.105 -0.6908  0.5845 -2.8547
16734TIP3   OH271616   3.016   2.166  15.082 -0.4451 -0.3915 -0.4753
16734TIP3    H171617   2.970   2.184  15.164  0.0408  1.3570 -0.5500
16734TIP3    H271618   3.089   2.111  15.107 -0.3106  0.1165  0.2750
16735TIP3   OH271619   3.518   5.794   4.187  0.3598 -0.5777  0.0027
16735TIP3    H171620   3.558   5.794   4.274  1.5832  0.9750 -0.5046
16735TIP3    H271621   3.502   5.886   4.168 -0.3535 -0.9319 -1.2313
16736TIP3   OH271622   5.008   1.524   3.884 -0.4268  0.4157 -0.4071
16736TIP3    H171623   4.940   1.472   3.840  0.3521  0.3027 -1.5230
16736TIP3    H271624   5.073   1.460   3.912 -0.9483  0.4754  1.0463
16737TIP3   OH271625   0.946   1.307  14.617  0.2081  0.0468  0.0769
16737TIP3    H171626   0.942   1.242  14.688 -1.0812 -0.6730 -0.6082
16737TIP3    H271627   0.885   1.376  14.645 -0.4823 -0.3519 -0.4272
16738TIP3   OH271628   4.022   4.624  14.661 -0.4163 -0.3161 -0.3365
16738TIP3    H171629   3.933   4.607  14.631 -0.0911 -1.0130 -0.9517
16738TIP3    H271630   4.050   4.701  14.612 -0.4018 -0.5776 -0.7432
16739TIP3   OH271631   6.440   1.017   4.346  0.1964  0.3095 -0.4127
16739TIP3    H171632   6.421   0.988   4.435  0.7728 -0.3976 -0.5157
16739TIP3    H271633   6.508   1.083   4.356  1.7104 -1.1667 -0.4401
16740TIP3   OH271634   3.438   0.088  17.215  0.0735  0.4190  0.1957
16740TIP3    H171635   3.498   0.039  17.271 -0.3150 -0.8077 -0.4282
16740TIP3    H271636   3.355   0.087  17.263 -0.1244 -0.1879 -0.1444
16741TIP3   OH271637   4.079   1.756  14.877  0.2199 -0.7954  0.1389
16741TIP3    H171638   4.159   1.806  14.865 -0.3436  0.2481  0.6064
16741TIP3    H271639   4.106   1.679  14.927  1.1134 -1.0144 -0.6658
16742TIP3   OH271640   1.957   4.567   3.109  0.3589  0.4760  0.4046
16742TIP3    H171641   2.043   4.524   3.100  0.1422  0.2052 -0.4503
16742TIP3    H271642   1.897   4.510   3.061 -0.5461 -0.0148  2.0347
16743TIP3   OH271643   3.169   5.121  14.253 -0.5701 -0.4389  0.6485
16743TIP3    H171644   3.147   5.038  14.211 -1.0409  0.4737 -1.0142
16743TIP3    H271645   3.102   5.182  14.223  0.0365  0.6628  1.4420
16744TIP3   OH271646   6.178   2.183  16.954  0.4856  0.6444  0.6410
16744TIP3    H171647   6.208   2.274  16.964 -0.5846  0.9687  1.0423
16744TIP3    H271648   6.232   2.134  17.017  0.8172  1.0579  0.6879
16745TIP3   OH271649   3.545   3.952  15.293  0.0920  0.3353 -0.0055
16745TIP3    H171650   3.580   3.873  15.251 -0.8794  0.2784 -0.7409
16745TIP3    H271651   3.576   4.024  15.238  0.4817  0.4308  0.3302
16746TIP3   OH271652   2.651   6.675  12.341  0.0091  0.4645 -0.3010
16746TIP3    H171653   2.626   6.599  12.394 -0.5151 -0.6063 -2.0133
16746TIP3    H271654   2.733   6.649  12.299 -1.3401 -0.1572 -2.7161
16747TIP3   OH271655   4.964   6.535  15.388  0.0607  0.2978  0.4144
16747TIP3    H171656   5.030   6.600  15.413  0.8735  0.3175 -1.5992
16747TIP3    H271657   4.885   6.562  15.436  1.0525  1.2578  1.5791
16748TIP3   OH271658   1.621   0.866   2.392 -0.5362 -0.6391 -0.1879
16748TIP3    H171659   1.631   0.785   2.342 -0.6147 -1.5665  1.2615
16748TIP3    H271660   1.528   0.888   2.383 -0.1772  0.3697 -2.1236
16749TIP3   OH271661   0.618   0.435  15.472 -0.0483  0.0720 -0.3311
16749TIP3    H171662   0.596   0.485  15.393  1.8717  1.5266 -0.0028
16749TIP3    H271663   0.533   0.421  15.515 -1.1294 -0.6218 -2.5099
16750TIP3   OH271664   5.842   1.594   5.060  0.0107 -0.4519  0.5285
16750TIP3    H171665   5.765   1.642   5.092  1.2338  1.2799  1.0741
16750TIP3    H271666   5.884   1.560   5.139 -0.5560 -2.0516  0.1802
16751TIP3   OH271667   0.717   0.427  10.798 -0.3996 -0.0777  0.6357
16751TIP3    H171668   0.800   0.476  10.794  0.8023 -1.9858  0.9471
16751TIP3    H271669   0.711   0.383  10.713 -0.5564 -0.7523  0.9918
16752TIP3   OH271670   0.097   0.208  17.288  0.5057  0.1500 -0.3601
16752TIP3    H171671   0.058   0.194  17.375  2.2489 -0.8560  0.3046
16752TIP3    H271672   0.161   0.137  17.279  0.7207  0.5335 -2.2751
16753TIP3   OH271673   2.265   6.501   2.990  0.0843  0.4186 -0.3832
16753TIP3    H171674   2.287   6.577   2.936  0.1335  0.1696 -0.7190
16753TIP3    H271675   2.303   6.426   2.943  1.9964  0.4001  1.0520
16754TIP3   OH271676   4.315   4.970  16.783 -0.0618  0.1818 -0.2545
16754TIP3    H171677   4.388   4.940  16.836  0.2622  1.0531 -0.1923
16754TIP3    H271678   4.285   4.892  16.736  0.1531 -0.4269  0.5993
16755TIP3   OH271679   1.857   5.887   0.764 -0.2079  0.0961  0.6427
16755TIP3    H171680   1.794   5.926   0.703 -1.0156  2.2711  2.7048
16755TIP3    H271681   1.803   5.840   0.828  0.1748  1.6213  2.1855
16756TIP3   OH271682   6.604   0.885  14.760 -0.5478 -0.2820 -0.3265
16756TIP3    H171683   6.571   0.825  14.828  3.7133 -0.8178  1.6397
16756TIP3    H271684   6.616   0.968  14.806  0.5202 -0.0741 -0.9591
16757TIP3   OH271685   1.986   2.883   7.055 -0.0514 -0.1864  0.2761
16757TIP3    H171686   1.963   2.806   7.003  2.2539 -0.7777 -0.0072
16757TIP3    H271687   2.045   2.933   6.999  0.4686  0.4820  1.3720
16758TIP3   OH271688   1.090   4.387  14.927 -0.2884  0.2857 -0.0579
16758TIP3    H171689   1.037   4.422  14.998  0.4629  0.5225  0.4021
16758TIP3    H271690   1.103   4.461  14.868  1.0484  0.7442  0.7621
16759TIP3   OH271691   0.079   4.717  11.557 -0.7563  0.2711  0.7306
16759TIP3    H171692   0.102   4.765  11.477  1.7285 -1.6646  0.1230
16759TIP3    H271693   0.056   4.629  11.526 -1.8161  0.0517  2.0363
16760TIP3   OH271694   0.461   1.094   0.266 -0.2576 -0.1715 -0.1685
16760TIP3    H171695   0.405   1.053   0.201  0.2093 -1.0930 -0.0006
16760TIP3    H271696   0.507   1.164   0.219 -1.7300  0.7867 -0.2441
16761TIP3   OH271697   3.166   0.476  12.740 -0.1575 -0.4227  0.7417
16761TIP3    H171698   3.232   0.437  12.796  0.6631  1.7309  1.3616
16761TIP3    H271699   3.105   0.520  12.800 -1.2348 -0.9797  0.0973
16762TIP3   OH271700   6.171   5.782  12.462  0.3790  0.6711 -0.3150
16762TIP3    H171701   6.076   5.771  12.475  0.5766 -1.3034 -0.2188
16762TIP3    H271702   6.178   5.838  12.385 -0.8990 -0.1999 -1.1016
16763TIP3   OH271703   4.294   1.364   0.943  0.1056 -0.0225 -0.2239
16763TIP3    H171704   4.378   1.402   0.970  0.3438 -1.6390  1.5404
16763TIP3    H271705   4.273   1.408   0.860  2.0559  1.3200 -0.0750
16764TIP3   OH271706   2.344   2.074   2.372 -0.0582 -0.2056 -0.0991
16764TIP3    H171707   2.274   2.036   2.320 -0.2952  1.7224 -1.2850
16764TIP3    H271708   2.300   2.112   2.448  0.0019 -0.8905  0.2930
16765TIP3   OH271709   6.445   1.401  12.662 -0.4904  0.0179 -0.7462
16765TIP3    H171710   6.485   1.487  12.647 -0.3573 -0.0845 -0.9880
16765TIP3    H271711   6.500   1.340  12.612 -0.5673 -0.2111 -0.5532
16766TIP3   OH271712   6.779   6.618  16.175 -0.1193  0.3134 -0.7905
16766TIP3    H171713   6.754   6.657  16.259 -2.4384 -0.0057 -1.2679
16766TIP3    H271714   6.849   6.675  16.143 -0.4739  1.5506  0.5100
16767TIP3   OH271715   1.661   3.885   0.345 -0.1478  0.6868  0.0277
16767TIP3    H171716   1.650   3.969   0.301  1.2722 -0.4564 -2.8341
16767TIP3    H271717   1.754   3.881   0.366 -0.7769  1.2203  3.5270
16768TIP3   OH271718   3.857   2.152  15.258  0.4950  0.3879 -0.1013
16768TIP3    H171719   3.808   2.214  15.204  0.2316 -0.5109 -0.9211
16768TIP3    H271720   3.937   2.199  15.283 -0.4837  1.6514  0.7385
16769TIP3   OH271721   5.665   2.626  14.060  0.3066 -0.2306 -0.2156
16769TIP3    H171722   5.644   2.689  13.991 -0.6578  1.9909  1.9327
16769TIP3    H271723   5.590   2.566  14.060 -0.6025  0.8621  0.0494
16770TIP3   OH271724   0.847   1.463   4.942 -0.5364 -0.3884  0.3484
16770TIP3    H171725   0.829   1.460   4.848 -0.2848 -0.6696  0.3038
16770TIP3    H271726   0.942   1.453   4.947 -0.4850  0.2384  0.6070
16771TIP3   OH271727   0.511   3.073   1.502  0.0063  0.4463 -0.4942
16771TIP3    H171728   0.458   3.023   1.565  0.9881  0.2342  0.1868
16771TIP3    H271729   0.601   3.054   1.526  0.4283  2.3763 -0.3419
16772TIP3   OH271730   3.063   2.290   4.919 -0.2759  0.1446 -0.3045
16772TIP3    H171731   2.986   2.347   4.912  0.2205  0.5694 -3.0042
16772TIP3    H271732   3.111   2.303   4.838  3.5865  1.0929  1.8498
16773TIP3   OH271733   4.696   6.422  11.513 -0.8195  0.0781 -0.2590
16773TIP3    H171734   4.745   6.358  11.564 -1.4801  0.0289  0.3282
16773TIP3    H271735   4.654   6.478  11.579 -2.3086 -0.4629 -0.7175
16774TIP3   OH271736   1.953   6.622   4.635 -0.2388 -0.0129  0.0151
16774TIP3    H171737   1.965   6.592   4.545  0.4866  3.8022 -1.3671
16774TIP3    H271738   1.858   6.621   4.648 -0.3892 -0.1604 -1.0008
16775TIP3   OH271739   2.170   0.333   1.166  0.0689 -0.3431 -0.0144
16775TIP3    H171740   2.246   0.392   1.174  1.2369 -1.6892 -0.6326
16775TIP3    H271741   2.094   0.390   1.180  1.1563  1.1861  0.0021
16776TIP3   OH271742   0.809   5.569   1.654  0.3430 -0.1615  0.4544
16776TIP3    H171743   0.891   5.520   1.647 -0.6565 -1.8522 -0.0409
16776TIP3    H271744   0.804   5.593   1.747  1.7951  0.7655  0.3294
16777TIP3   OH271745   2.326   1.437   1.201  0.4387 -0.0636 -0.3445
16777TIP3    H171746   2.258   1.378   1.168 -0.0872 -0.2680  1.0341
16777TIP3    H271747   2.357   1.484   1.123 -1.2522  0.0232 -1.0118
16778TIP3   OH271748   4.761   0.815   0.621  0.0877 -0.5144 -0.0039
16778TIP3    H171749   4.668   0.835   0.616  0.3925  0.7513 -1.3524
16778TIP3    H271750   4.769   0.757   0.696 -1.7428 -0.4261  0.3061
16779TIP3   OH271751   3.024   6.208   1.034 -0.4746  0.1505 -0.0538
16779TIP3    H171752   2.932   6.222   1.055 -0.7133 -1.5505  0.2031
16779TIP3    H271753   3.062   6.172   1.114 -0.1032 -1.1472 -0.7711
16780TIP3   OH271754   4.689   2.440  12.573 -0.1146  0.4083 -0.2041
16780TIP3    H171755   4.658   2.513  12.520  3.5915  1.7601 -0.8037
16780TIP3    H271756   4.783   2.453  12.578  0.2698 -2.4320  2.6872
16781TIP3   OH271757   4.960   2.430  15.210  0.8972  0.2383 -0.4418
16781TIP3    H171758   4.874   2.387  15.217  1.3839 -0.6103  0.6894
16781TIP3    H271759   4.970   2.447  15.116 -0.7475  0.8764 -0.5393
16782TIP3   OH271760   3.236   4.024   1.442 -0.0712 -1.0342 -0.3927
16782TIP3    H171761   3.205   3.965   1.373 -0.1497 -2.3709  0.7404
16782TIP3    H271762   3.244   3.968   1.520 -0.7474  0.5846  0.9009
16783TIP3   OH271763   0.747   3.279   3.819  0.3427 -0.1460  0.1017
16783TIP3    H171764   0.771   3.262   3.911  0.9342 -1.2522 -0.2337
16783TIP3    H271765   0.733   3.373   3.815  1.1111  0.0350  1.1560
16784TIP3   OH271766   0.186   4.371   1.253 -0.2135  0.1411  0.1588
16784TIP3    H171767   0.267   4.377   1.203 -0.2536  1.5620  0.2261
16784TIP3    H271768   0.171   4.277   1.264  1.6100 -0.1405  0.4752
16785TIP3   OH271769   3.662   4.796   4.692  0.1090 -0.1010  0.4280
16785TIP3    H171770   3.583   4.746   4.713  0.3421 -0.2911  0.8769
16785TIP3    H271771   3.631   4.886   4.681 -0.3528 -0.3757 -0.6318
16786TIP3   OH271772   0.637   5.144   4.385 -0.0248  0.2246 -0.4266
16786TIP3    H171773   0.545   5.123   4.404  0.4966 -1.5220  0.3344
16786TIP3    H271774   0.639   5.159   4.290 -0.6557 -2.5259 -0.9678
16787TIP3   OH271775   3.237   3.936   2.614  1.0430  0.1270  0.4562
16787TIP3    H171776   3.316   3.894   2.583  1.3574  0.8061  0.3133
16787TIP3    H271777   3.263   3.980   2.695  0.3219 -1.3343  1.5291
16788TIP3   OH271778   4.668   5.375   1.144  0.2119  0.4087  0.5744
16788TIP3    H171779   4.672   5.304   1.080  0.1601  1.5164 -0.6939
16788TIP3    H271780   4.723   5.445   1.107  1.3111  0.5849  2.4034
16789TIP3   OH271781   5.582   0.470  14.768  0.3517  0.2607 -0.0380
16789TIP3    H171782   5.537   0.455  14.685 -1.1937  2.4791  0.3014
16789TIP3    H271783   5.512   0.467  14.834  1.6220 -2.0432  1.3504
16790TIP3   OH271784   5.519   0.994   2.629 -0.1899 -0.0192 -0.3954
16790TIP3    H171785   5.572   1.073   2.639 -1.0713  0.4435  1.0527
16790TIP3    H271786   5.502   0.966   2.719 -1.4838 -0.7632 -0.8469
16791TIP3   OH271787   2.051   1.169  14.057  0.1914 -0.0436  0.5050
16791TIP3    H171788   1.998   1.122  13.991  0.0611  0.3621  0.3179
16791TIP3    H271789   2.026   1.261  14.047  0.0331  0.0026  1.2524
16792TIP3   OH271790   0.592   2.673  12.732  0.9738  0.2751  0.0637
16792TIP3    H171791   0.573   2.758  12.771  0.4411  0.1135  0.1663
16792TIP3    H271792   0.563   2.681  12.641 -0.0275 -0.1113  0.3331
16793TIP3   OH271793   1.715   5.785   1.090 -0.0974  0.5428 -0.3247
16793TIP3    H171794   1.715   5.752   1.000 -0.1224  1.5247 -0.7086
16793TIP3    H271795   1.681   5.713   1.143 -2.1181  0.6452 -1.3728
16794TIP3   OH271796   1.877   1.536  12.032 -0.3387  0.0762  0.1336
16794TIP3    H171797   1.831   1.490  12.102  1.4560 -0.7865  0.8125
16794TIP3    H271798   1.959   1.565  12.072  0.2519  0.5314 -1.3168
16795TIP3   OH271799   2.867   3.289   4.443  0.2427  0.0038  0.0429
16795TIP3    H171800   2.947   3.341   4.438  1.0687 -1.2482 -0.3281
16795TIP3    H271801   2.807   3.341   4.497  1.4403  0.7926  0.6461
16796TIP3   OH271802   1.713   0.729   1.605 -0.0196 -0.2705  0.0429
16796TIP3    H171803   1.790   0.783   1.623  0.0709 -0.9454  1.8056
16796TIP3    H271804   1.639   0.790   1.616  0.2116  0.8272 -3.2986
16797TIP3   OH271805   2.981   1.171  11.125  0.4704  0.2070  0.3102
16797TIP3    H171806   3.061   1.201  11.082  0.2917 -0.3486 -0.4382
16797TIP3    H271807   2.979   1.218  11.208  1.1392  0.8628 -0.0303
16798TIP3   OH271808   1.624   2.017   0.957 -0.1322  0.2115 -0.7536
16798TIP3    H171809   1.643   2.108   0.932 -1.0006  1.1646  1.7524
16798TIP3    H271810   1.684   1.999   1.030 -0.7655 -0.8294 -0.4744
16799TIP3   OH271811   2.280   4.316  15.712  0.4758 -0.0423 -0.3579
16799TIP3    H171812   2.247   4.232  15.742  0.8700 -0.4181 -0.9418
16799TIP3    H271813   2.285   4.307  15.617  0.6581  0.5921 -0.4137
16800TIP3   OH271814   1.591   1.766   5.799  0.2547  0.4351 -0.0749
16800TIP3    H171815   1.537   1.712   5.856  0.0843  2.5824  1.9955
16800TIP3    H271816   1.680   1.730   5.810 -0.2021 -0.9493 -0.7531
16801TIP3   OH271817   2.453   0.310   5.650 -0.1836 -0.6542 -0.1207
16801TIP3    H171818   2.385   0.355   5.601  1.3859  1.1110 -0.8298
16801TIP3    H271819   2.497   0.254   5.585  0.9689  0.5772 -0.4422
16802TIP3   OH271820   2.798   0.055  16.227  0.1448 -0.0841 -0.4004
16802TIP3    H171821   2.826  -0.037  16.228 -2.8082 -1.0860 -0.9481
16802TIP3    H271822   2.785   0.075  16.134  0.4587  0.8005 -0.2637
16803TIP3   OH271823   0.798   1.416   3.996 -0.2455  0.1267  0.7817
16803TIP3    H171824   0.788   1.444   4.088 -0.9903  1.8714  0.2169
16803TIP3    H271825   0.809   1.321   4.001 -0.1446  0.1958  2.6880
16804TIP3   OH271826   2.855   4.954   4.125  0.0692  0.2900  0.1086
16804TIP3    H171827   2.814   5.030   4.083 -0.2330  0.2130  0.2627
16804TIP3    H271828   2.868   4.981   4.216 -0.9725 -0.2023  0.4153
16805TIP3   OH271829   6.308   0.853   5.278 -0.5563 -0.2610 -0.0945
16805TIP3    H171830   6.230   0.819   5.322 -1.6029  2.4102  0.2731
16805TIP3    H271831   6.274   0.916   5.214  1.2896  1.0515  0.1514
16806TIP3   OH271832   2.321   3.785  16.416  0.6042  0.4334  0.3013
16806TIP3    H171833   2.366   3.868  16.433 -1.5331  1.6015  0.6930
16806TIP3    H271834   2.391   3.722  16.399  2.3027  2.3558 -0.2269
16807TIP3   OH271835   5.459   3.213   3.941 -0.0034  0.1510  0.2394
16807TIP3    H171836   5.553   3.233   3.931 -0.2013  0.7833 -0.4626
16807TIP3    H271837   5.455   3.117   3.937  0.8529 -0.0480  2.6552
16808TIP3   OH271838   6.734   6.043  16.207 -0.5855 -0.3047  0.5761
16808TIP3    H171839   6.794   6.086  16.267 -0.8784 -0.4860  1.0017
16808TIP3    H271840   6.780   6.044  16.123  0.9238 -2.2581  1.3004
16809TIP3   OH271841   1.470   0.919  11.641  0.6200  0.2432  0.1384
16809TIP3    H171842   1.477   0.851  11.574  1.0766  0.9527 -0.5522
16809TIP3    H271843   1.409   0.983  11.604 -0.1716 -0.0039  0.9813
16810TIP3   OH271844   0.162   3.275  16.718 -0.2601 -0.0721  0.4166
16810TIP3    H171845   0.152   3.229  16.635 -2.0222 -1.1938  1.1662
16810TIP3    H271846   0.087   3.245  16.770  1.0037  0.2883  2.5463
16811TIP3   OH271847   3.906   4.739  15.833 -0.1561 -0.3962 -0.4033
16811TIP3    H171848   3.860   4.817  15.801  0.8279  0.4606  0.2113
16811TIP3    H271849   3.973   4.721  15.767  0.5897  0.1967  0.1671
16812TIP3   OH271850   5.488   4.038   5.235 -0.2409  0.3167 -0.7538
16812TIP3    H171851   5.535   4.008   5.313 -1.8246  1.5789  0.7662
16812TIP3    H271852   5.442   3.960   5.204 -0.5244  0.0427  0.3038
16813TIP3   OH271853   5.046   5.739   3.464 -0.5967  0.2189 -0.4673
16813TIP3    H171854   5.019   5.657   3.505 -0.1639  0.6563  0.7391
16813TIP3    H271855   4.966   5.791   3.461 -0.5993  0.2481  0.0019
16814TIP3   OH271856   0.843   6.194   0.130 -0.1395 -0.2286  0.4018
16814TIP3    H171857   0.914   6.130   0.138  0.4164  0.5637  2.4200
16814TIP3    H271858   0.837   6.234   0.217 -0.4084  2.4923 -0.7653
16815TIP3   OH271859   0.279   0.884  15.097  0.6090  0.2904 -0.1626
16815TIP3    H171860   0.238   0.859  15.014  0.9794 -0.5235 -0.1096
16815TIP3    H271861   0.368   0.852  15.090  0.8045  0.7053  0.3398
16816TIP3   OH271862   2.898   1.267  16.454  0.6459 -0.4748  0.0875
16816TIP3    H171863   2.872   1.290  16.364  1.0480 -1.1491 -0.2034
16816TIP3    H271864   2.872   1.344  16.506 -0.7953 -0.6125 -0.3838
16817TIP3   OH271865   0.843   6.183   1.262 -0.0860 -0.2519 -0.0760
16817TIP3    H171866   0.827   6.274   1.288  1.1651  0.2062 -0.8223
16817TIP3    H271867   0.759   6.153   1.229 -0.2517  1.0237 -0.9004
16818TIP3   OH271868   3.776   5.597  15.426 -0.6065 -0.3622  0.3115
16818TIP3    H171869   3.733   5.578  15.510 -1.6982 -1.9167 -0.5486
16818TIP3    H271870   3.858   5.548  15.430 -0.7663 -0.6263  0.3781
16819TIP3   OH271871   1.564   2.526   0.855  0.1706 -0.4503  0.0313
16819TIP3    H171872   1.656   2.554   0.859 -0.0219  0.2902 -0.3974
16819TIP3    H271873   1.554   2.491   0.767 -0.4678  1.4540 -0.7173
16820TIP3   OH271874   5.945   2.669   6.233 -0.4786 -0.0470  0.0555
16820TIP3    H171875   5.926   2.753   6.276  0.5255  0.5541 -0.6278
16820TIP3    H271876   6.040   2.665   6.230 -0.5253 -0.5848 -1.1331
16821TIP3   OH271877   2.107   3.049   1.100  0.2100  0.2661 -0.2099
16821TIP3    H171878   2.105   2.958   1.069 -0.2513 -0.0204  0.6043
16821TIP3    H271879   2.200   3.070   1.105  0.3086  0.0672 -1.0329
16822TIP3   OH271880   2.676   2.055  14.791  0.7480 -0.2715  0.0256
16822TIP3    H171881   2.668   2.042  14.697 -1.1203  0.1855  0.0951
16822TIP3    H271882   2.587   2.045  14.825  1.4733 -1.0680  1.8353
16823TIP3   OH271883   6.470   5.409  16.643 -0.1873 -0.0627 -0.0456
16823TIP3    H171884   6.426   5.324  16.655 -2.0336  0.8379 -0.0056
16823TIP3    H271885   6.400   5.473  16.657  1.2307  1.4772  0.1511
16824TIP3   OH271886   2.711   0.174  11.841  0.0161 -0.6774 -0.1732
16824TIP3    H171887   2.699   0.085  11.808  0.2270 -0.8434  0.1924
16824TIP3    H271888   2.630   0.193  11.888  0.6937 -1.3854  1.3519
16825TIP3   OH271889   3.680   5.189  12.462 -0.1306  0.4420  0.1571
16825TIP3    H171890   3.699   5.098  12.439 -1.7939  0.1352 -0.1671
16825TIP3    H271891   3.752   5.216  12.518  1.4429 -0.4157 -1.3826
16826TIP3   OH271892   4.882   2.059   3.495  1.0246 -0.2231  0.2362
16826TIP3    H171893   4.847   1.980   3.535 -0.2311  0.8490  1.3945
16826TIP3    H271894   4.807   2.118   3.490  1.8312  0.7468 -0.9922
16827TIP3   OH271895   3.932   1.763   5.100 -0.2820 -0.3044  0.2387
16827TIP3    H171896   3.933   1.746   5.006  0.6593  0.1548  0.1572
16827TIP3    H271897   3.976   1.688   5.139 -1.0993 -0.7322  0.3711
16828TIP3   OH271898   3.739   0.700   5.125 -0.0872  0.2967  0.0277
16828TIP3    H171899   3.725   0.616   5.170  0.9410  0.8698  1.5190
16828TIP3    H271900   3.782   0.677   5.043 -2.3067 -0.8199 -0.8823
16829TIP3   OH271901   2.875   4.114  12.527 -0.0453 -0.2442 -0.0460
16829TIP3    H171902   2.804   4.130  12.590 -0.6885  1.0391 -1.0378
16829TIP3    H271903   2.852   4.032  12.484 -1.6532  0.7536 -1.2219
16830TIP3   OH271904   0.220   3.048  12.658 -0.4476 -0.1712 -0.1185
16830TIP3    H171905   0.226   2.964  12.612  2.0959 -0.8562  1.2434
16830TIP3    H271906   0.193   3.025  12.747 -0.7950  0.5826 -0.0181
16831TIP3   OH271907   1.393   1.381  14.917  0.2289  0.1073  0.0306
16831TIP3    H171908   1.361   1.466  14.947 -0.5438 -0.3197  0.4620
16831TIP3    H271909   1.317   1.340  14.876  0.6228 -0.3269 -0.2742
16832TIP3   OH271910   0.821   0.832   3.918  0.0916 -0.0544  0.4667
16832TIP3    H171911   0.908   0.839   3.956  0.7028  2.4593 -1.1286
16832TIP3    H271912   0.762   0.858   3.989  0.8275  0.3749  0.9367
16833TIP3   OH271913   5.302   1.859  16.245  0.5480 -0.2668 -0.2011
16833TIP3    H171914   5.226   1.804  16.262 -0.2755  0.7609 -0.4650
16833TIP3    H271915   5.270   1.949  16.258  2.1430  0.1393  1.4234
16834TIP3   OH271916   3.201   3.961  14.154  0.1119  0.1033  0.0539
16834TIP3    H171917   3.128   3.899  14.145  0.8173 -0.5615 -1.6172
16834TIP3    H271918   3.269   3.926  14.096  1.4609  1.1550  0.9315
16835TIP3   OH271919   5.653   6.051  12.695  0.4911  1.0853 -0.3232
16835TIP3    H171920   5.731   6.104  12.713  0.6518  0.3733  1.2776
16835TIP3    H271921   5.579   6.108  12.718  0.5960  1.1845 -0.2317
16836TIP3   OH271922   2.278   6.244   2.863  0.3672  0.1427 -0.0887
16836TIP3    H171923   2.258   6.173   2.924  1.7014  1.6713  2.2929
16836TIP3    H271924   2.366   6.225   2.832  0.2010  0.0736 -0.5290
16837TIP3   OH271925   1.803   4.958   4.518  0.4259  0.7717 -0.4609
16837TIP3    H171926   1.820   5.011   4.596 -0.5490  1.3076 -0.5991
16837TIP3    H271927   1.860   4.995   4.450  2.0186 -0.3207  0.2169
16838TIP3   OH271928   0.228   4.573  12.722  0.5105  0.1603  0.0797
16838TIP3    H171929   0.302   4.528  12.761 -0.9463 -1.8867  0.6413
16838TIP3    H271930   0.184   4.507  12.668 -0.1219  1.6979 -1.3953
16839TIP3   OH271931   1.310   6.181   2.447  0.4425  0.5861 -0.0233
16839TIP3    H171932   1.286   6.123   2.520  1.0301  1.7161  1.0972
16839TIP3    H271933   1.243   6.249   2.448  1.3110  1.4635  0.4864
16840TIP3   OH271934   1.941   3.116  14.506  0.3893 -0.0371  0.1264
16840TIP3    H171935   1.984   3.144  14.586 -0.6866 -0.1829  0.7789
16840TIP3    H271936   1.926   3.023  14.517  0.0026 -0.0090 -0.1235
16841TIP3   OH271937   0.553   6.597   3.815 -0.0314  0.4042 -0.6463
16841TIP3    H171938   0.537   6.668   3.754  2.0766  0.8747 -0.7369
16841TIP3    H271939   0.587   6.641   3.894 -0.2859 -0.3919 -0.0790
16842TIP3   OH271940   4.390   1.786  14.771  0.6616  0.0943  0.3747
16842TIP3    H171941   4.425   1.875  14.765  1.4236 -0.1073  1.4875
16842TIP3    H271942   4.357   1.767  14.684  2.0816  0.8221 -0.3544
16843TIP3   OH271943   1.352   2.554  12.230  0.2936 -0.7051 -0.3472
16843TIP3    H171944   1.437   2.582  12.264  0.3681 -0.7871 -0.4632
16843TIP3    H271945   1.362   2.460  12.216  0.3499 -0.6290 -0.8367
16844TIP3   OH271946   4.443   0.439  12.696  0.3844  0.4857 -0.3375
16844TIP3    H171947   4.400   0.481  12.771 -0.0869  0.4347 -0.5765
16844TIP3    H271948   4.469   0.353  12.728 -0.5322  0.1571 -0.4639
16845TIP3   OH271949   5.593   4.558  11.628  0.5888  0.0419 -0.3225
16845TIP3    H171950   5.642   4.628  11.670 -0.6077  0.2903  0.7465
16845TIP3    H271951   5.569   4.593  11.543 -0.5311  1.2381  0.4363
16846TIP3   OH271952   6.376   1.727  13.234 -0.1109 -0.2356 -0.1325
16846TIP3    H171953   6.285   1.723  13.265  0.0142  1.1859  0.4924
16846TIP3    H271954   6.400   1.819  13.243  1.3081 -0.5444 -0.5629
16847TIP3   OH271955   2.106   5.882   5.351 -0.3196  0.2663  0.1782
16847TIP3    H171956   2.099   5.866   5.257 -1.2095  2.2956 -0.1736
16847TIP3    H271957   2.198   5.867   5.372 -0.0061  0.2456 -1.1294
16848TIP3   OH271958   0.735   0.244  17.141  0.0561  0.5093  0.4289
16848TIP3    H171959   0.744   0.337  17.161  1.5925  0.5911 -0.4622
16848TIP3    H271960   0.816   0.204  17.173  0.3953 -0.1325 -1.1255
16849TIP3   OH271961   2.948   6.594  14.958 -0.2350 -0.0070 -0.3166
16849TIP3    H171962   3.029   6.608  15.006 -0.2779  0.5877 -0.4047
16849TIP3    H271963   2.925   6.503  14.974 -2.2827  1.0120  4.0110
16850TIP3   OH271964   3.461   5.213   4.190 -0.5300  0.4358 -0.2455
16850TIP3    H171965   3.475   5.198   4.283 -0.2208  0.0373 -0.3538
16850TIP3    H271966   3.421   5.300   4.185  0.8811  1.1400  0.1518
16851TIP3   OH271967   1.353   4.832   2.768  0.2416  0.1099 -0.2994
16851TIP3    H171968   1.290   4.840   2.696  0.5677  0.9873 -0.4965
16851TIP3    H271969   1.308   4.777   2.832 -0.5383  0.3249 -0.6422
16852TIP3   OH271970   3.107   1.406  11.998 -0.3876  0.4593 -0.3360
16852TIP3    H171971   3.106   1.360  11.914  0.0835  1.6993 -1.0512
16852TIP3    H271972   3.120   1.498  11.975 -1.8833  1.0563  1.0036
16853TIP3   OH271973   1.023   3.285  11.908 -0.8751  0.1071  0.3131
16853TIP3    H171974   0.989   3.321  11.990 -0.8536 -0.3587  0.5240
16853TIP3    H271975   1.010   3.356  11.845  1.6578  1.5618  1.2864
16854TIP3   OH271976   5.289   6.215  15.305 -0.0676  0.1603 -0.1187
16854TIP3    H171977   5.349   6.196  15.234 -0.8179  1.5791 -1.1877
16854TIP3    H271978   5.341   6.264  15.369  0.3068 -0.0441 -0.2669
16855TIP3   OH271979   5.345   1.260  13.574  0.1326  0.4982 -0.2201
16855TIP3    H171980   5.431   1.268  13.615 -0.3459 -0.3614  1.0015
16855TIP3    H271981   5.302   1.189  13.621 -1.2197  0.8476 -0.8732
16856TIP3   OH271982   1.186   1.585  16.918  0.0089  0.4594 -0.0262
16856TIP3    H171983   1.267   1.610  16.963  0.5758  0.8593 -1.2350
16856TIP3    H271984   1.194   1.624  16.831 -2.1315  1.7722  0.2785
16857TIP3   OH271985   3.678   5.889   0.060  0.2084  0.1362 -0.2765
16857TIP3    H171986   3.610   5.830   0.091 -0.5425  0.7381 -0.7480
16857TIP3    H271987   3.651   5.913  -0.028  2.5383 -1.9099 -1.6823
16858TIP3   OH271988   4.750   1.015  12.763  0.1136  0.5333 -0.0136
16858TIP3    H171989   4.768   1.049  12.850 -1.4687 -0.2629  0.6650
16858TIP3    H271990   4.758   1.091  12.705 -0.1969  1.3603  1.0100
16859TIP3   OH271991   0.974   0.506   2.687 -1.0651 -0.1548 -0.1937
16859TIP3    H171992   0.937   0.420   2.707 -0.1755 -0.3703  0.5969
16859TIP3    H271993   1.036   0.489   2.616 -0.2964 -0.3220  0.5018
16860TIP3   OH271994   6.053   5.562  16.875  1.0674  0.3008  0.4797
16860TIP3    H171995   6.148   5.570  16.877  1.2665 -1.0596 -1.3417
16860TIP3    H271996   6.025   5.626  16.810  0.9793 -0.8525 -0.6478
16861TIP3   OH271997   0.045   6.770   5.953 -0.3901 -0.3523  0.8841
16861TIP3    H171998   0.054   6.751   6.047  0.8648  0.6855  0.9951
16861TIP3    H271999   0.115   6.720   5.912  1.4645  2.0319  0.9362
16862TIP3   OH272000   1.315   3.575  11.947 -0.2026  0.5233 -0.1089
16862TIP3    H172001   1.359   3.648  11.992  0.6285  0.1727 -0.3257
16862TIP3    H272002   1.305   3.508  12.014 -0.9154  0.8142  0.0773
16863TIP3   OH272003   4.877   3.029   3.866  0.3579  0.0130 -0.6677
16863TIP3    H172004   4.947   2.973   3.831 -0.2721 -1.0785 -0.2195
16863TIP3    H272005   4.878   3.106   3.810  1.8829 -0.0053 -0.7169
16864TIP3   OH272006   3.215   1.104   2.475  0.7933  0.1071  0.0250
16864TIP3    H172007   3.176   1.113   2.388  1.5527 -0.0821 -0.3385
16864TIP3    H272008   3.151   1.144   2.533  1.6077  3.0849 -0.9431
16865TIP3   OH272009   1.066   4.678  13.573  0.1535  0.0164  0.1234
16865TIP3    H172010   1.019   4.636  13.501 -2.1962  2.0432  0.3301
16865TIP3    H272011   1.143   4.718  13.532  0.1470 -0.8623 -0.7879
16866TIP3   OH272012   0.952   4.345  16.402 -0.1636 -0.5206 -0.0164
16866TIP3    H172013   1.026   4.365  16.345  0.3568 -0.3868  0.6906
16866TIP3    H272014   0.991   4.339  16.490 -1.2059  0.9443  0.5761
16867TIP3   OH272015   3.546   0.254   2.177 -0.1852 -0.4896  0.0567
16867TIP3    H172016   3.501   0.202   2.111 -2.4794 -0.0939  1.2195
16867TIP3    H272017   3.608   0.307   2.127 -0.4652 -1.6016 -1.5502
16868TIP3   OH272018   1.301   4.863   0.218  0.7402 -0.6454  0.1201
16868TIP3    H172019   1.369   4.830   0.276  1.1391  0.6442  0.4116
16868TIP3    H272020   1.280   4.789   0.161  1.6985 -1.3467  0.6548
16869TIP3   OH272021   3.006   1.328   3.790 -0.1035  0.1742 -0.0744
16869TIP3    H172022   2.988   1.238   3.763  1.4546 -0.2104  0.0991
16869TIP3    H272023   2.977   1.382   3.716 -2.7140 -0.2738  0.5114
16870TIP3   OH272024   6.125   2.371  10.425  0.5133  0.0242  0.5241
16870TIP3    H172025   6.056   2.351  10.361  1.2800  0.7091 -0.5471
16870TIP3    H272026   6.077   2.401  10.502 -0.4616 -1.4968  0.5641
16871TIP3   OH272027   5.517   0.792  14.822 -0.2035 -0.8767 -0.2315
16871TIP3    H172028   5.526   0.727  14.752  2.5838 -1.7680  0.8196
16871TIP3    H272029   5.572   0.865  14.795  1.4372 -1.5116  1.2650
16872TIP3   OH272030   6.134   5.791   2.190  0.5067 -0.5159 -0.2073
16872TIP3    H172031   6.180   5.795   2.107 -1.3649  0.1589 -1.2654
16872TIP3    H272032   6.085   5.709   2.186  1.4256 -1.1557  0.8468
16873TIP3   OH272033   3.506   2.698  14.153  0.3002 -0.3508  0.1364
16873TIP3    H172034   3.554   2.746  14.086 -2.1192  0.9795 -0.7567
16873TIP3    H272035   3.574   2.659  14.208  2.3564  0.8131 -1.4437
16874TIP3   OH272036   0.582   2.005  12.523  0.2778  0.3290 -0.0801
16874TIP3    H172037   0.659   1.983  12.471 -0.6418 -0.4949 -1.1405
16874TIP3    H272038   0.547   1.920  12.550 -0.4935  0.6785  0.0277
16875TIP3   OH272039   1.742   5.895   1.895 -0.0968 -0.3424 -0.0346
16875TIP3    H172040   1.812   5.840   1.859 -0.5626 -0.9232 -0.0637
16875TIP3    H272041   1.781   5.935   1.973  0.0053 -1.3612  0.4657
16876TIP3   OH272042   2.441   5.778   5.895  0.0398 -0.8753  0.4945
16876TIP3    H172043   2.421   5.815   5.981  1.0427 -3.3378  1.9014
16876TIP3    H272044   2.496   5.844   5.853 -0.8849  0.5997  1.5308
16877TIP3   OH272045   5.429   6.131  12.944 -0.0235  0.6851 -0.6941
16877TIP3    H172046   5.438   6.182  12.863  0.3942  1.4435 -0.1853
16877TIP3    H272047   5.509   6.150  12.993  1.6215 -2.8193 -1.7600
16878TIP3   OH272048   6.560   2.424  17.036 -0.0106 -0.2543 -0.3569
16878TIP3    H172049   6.523   2.342  17.070  0.0529 -0.0423  0.2358
16878TIP3    H272050   6.549   2.418  16.941 -1.4806 -0.2472 -0.2106
16879TIP3   OH272051   4.887   4.108  16.417 -0.4454 -0.1161 -0.4049
16879TIP3    H172052   4.947   4.181  16.403  0.6332 -1.0719 -0.9173
16879TIP3    H272053   4.927   4.035  16.370 -2.9341 -0.3684 -2.3198
16880TIP3   OH272054   1.977   3.409  11.948  0.8947  0.3197 -0.2278
16880TIP3    H172055   2.064   3.440  11.924  1.7210 -1.7627 -0.1500
16880TIP3    H272056   1.963   3.443  12.037  1.9721  0.0189  0.0654
16881TIP3   OH272057   2.847   5.365   0.855  0.2162  0.1901 -0.4681
16881TIP3    H172058   2.876   5.455   0.873 -0.7008  0.0870  2.0055
16881TIP3    H272059   2.765   5.375   0.808  0.6132  0.6269 -1.0776
16882TIP3   OH272060   0.608   1.158  15.649 -0.2082  0.5687 -0.9940
16882TIP3    H172061   0.582   1.109  15.571 -1.1865 -0.0167 -0.3227
16882TIP3    H272062   0.652   1.236  15.616  0.7451 -0.4074 -2.1079
16883TIP3   OH272063   6.535   5.871   0.576 -0.2727  0.0408 -0.0967
16883TIP3    H172064   6.525   5.963   0.599 -3.5597  0.3039 -1.9673
16883TIP3    H272065   6.546   5.827   0.660 -0.4934  1.9410  0.9956
16884TIP3   OH272066   0.085   0.866   3.971 -0.0120  0.2730 -0.0315
16884TIP3    H172067   0.115   0.800   4.033  1.4587  0.8258 -0.1111
16884TIP3    H272068   0.099   0.826   3.885  1.4477  0.8721 -0.1023
16885TIP3   OH272069   3.918   0.958   6.452 -0.0096 -0.1724  0.1918
16885TIP3    H172070   3.825   0.972   6.471 -0.0042 -0.3976  0.3881
16885TIP3    H272071   3.924   0.865   6.428  0.0267  0.0374 -0.6617
16886TIP3   OH272072   5.053   3.776   3.006 -0.0616 -0.7283 -0.4680
16886TIP3    H172073   5.044   3.682   3.020 -0.8987 -0.7059 -0.7686
16886TIP3    H272074   5.122   3.785   2.940  0.5475 -1.0818  0.1122
16887TIP3   OH272075   1.834   5.096   1.272 -0.0080  0.2238 -0.1889
16887TIP3    H172076   1.750   5.069   1.309  0.5268 -0.1423  0.8087
16887TIP3    H272077   1.822   5.188   1.250 -0.7414  0.1181 -0.2571
16888TIP3   OH272078   5.335   6.659   6.761  0.5061 -0.4844  0.0938
16888TIP3    H172079   5.246   6.693   6.771  0.6912 -0.0980  0.4910
16888TIP3    H272080   5.377   6.720   6.700  0.3068 -1.0448 -0.6104
16889TIP3   OH272081   1.698   4.615  16.814  0.2285  0.0611  0.1489
16889TIP3    H172082   1.750   4.637  16.737  0.7865 -1.7538 -0.0488
16889TIP3    H272083   1.759   4.627  16.888 -0.8742  3.7939  0.6397
16890TIP3   OH272084   4.437   6.114   1.461 -0.4843 -0.0894  0.8074
16890TIP3    H172085   4.494   6.084   1.532  0.9517  0.2933 -0.1395
16890TIP3    H272086   4.386   6.185   1.499  0.7815  0.5983  1.2847
16891TIP3   OH272087   2.029   3.652  15.519  0.5258  0.0582  0.1446
16891TIP3    H172088   2.049   3.618  15.432  0.2680 -4.1521  1.5040
16891TIP3    H272089   1.945   3.696  15.509 -0.5439 -2.1093 -1.4829
16892TIP3   OH272090   5.984   2.903   5.540 -0.6366  0.2018  0.1389
16892TIP3    H172091   5.947   2.967   5.479 -2.2758  0.8480  1.7279
16892TIP3    H272092   6.077   2.925   5.545 -0.5284  0.3433 -1.8386
16893TIP3   OH272093   6.450   2.385  15.325  0.2169  0.7484 -0.3708
16893TIP3    H172094   6.472   2.398  15.417  0.6130  2.9019 -0.7249
16893TIP3    H272095   6.533   2.364  15.284 -0.3036 -2.7293  0.0695
16894TIP3   OH272096   4.839   4.054   0.061 -0.5631 -0.2291 -0.1270
16894TIP3    H172097   4.903   3.989   0.034 -0.4165  0.1258 -0.6547
16894TIP3    H272098   4.756   4.024   0.023 -1.0861 -1.6109  1.9836
16895TIP3   OH272099   6.771   5.446  17.061  0.3722 -0.3087  0.0294
16895TIP3    H172100   6.760   5.396  16.981  0.1390 -1.5559  0.8223
16895TIP3    H272101   6.696   5.505  17.063  2.5825  3.0354 -2.9007
16896TIP3   OH272102   5.427   3.997  13.072  0.0679  0.4110  0.0461
16896TIP3    H172103   5.448   4.043  13.154 -1.5522  0.8391  0.2558
16896TIP3    H272104   5.458   4.057  13.004  0.3635  0.5903  0.3293
16897TIP3   OH272105   4.296   0.740   0.825 -0.3542 -0.6211  0.2792
16897TIP3    H172106   4.246   0.820   0.841  0.0205 -0.5466  1.1498
16897TIP3    H272107   4.264   0.708   0.741 -0.9057  0.1430  0.1869
16898TIP3   OH272108   5.741   0.148  16.179 -0.4048  0.0296  0.2393
16898TIP3    H172109   5.784   0.081  16.232 -0.4507 -0.9962 -0.9611
16898TIP3    H272110   5.812   0.192  16.133 -0.3821  0.7827  0.9610
16899TIP3   OH272111   5.473   2.028  15.896 -0.4730 -0.4390  0.0935
16899TIP3    H172112   5.566   2.008  15.911 -0.5005 -1.9662 -1.5150
16899TIP3    H272113   5.450   2.086  15.969  2.0688  1.0706 -0.1564
16900TIP3   OH272114   6.278   6.021  16.204 -0.1653  0.0395  0.0224
16900TIP3    H172115   6.348   5.976  16.250 -0.7317 -0.2003  0.6564
16900TIP3    H272116   6.314   6.038  16.117 -0.1739 -2.2423 -0.4868
16901TIP3   OH272117   1.743   4.543   5.696 -0.0422  0.6181 -0.1759
16901TIP3    H172118   1.769   4.494   5.774  0.9149  2.1536  0.5381
16901TIP3    H272119   1.647   4.548   5.701 -0.2146 -1.5690 -0.5768
16902TIP3   OH272120   4.530   3.446   1.796  0.5079  0.6813  0.5566
16902TIP3    H172121   4.558   3.358   1.773  1.7091  0.5309  2.3332
16902TIP3    H272122   4.611   3.497   1.798 -0.2255  1.9806 -0.9445
16903TIP3   OH272123   0.922   2.305  12.994  0.1859 -0.8593  0.2779
16903TIP3    H172124   0.846   2.291  13.051 -0.2205  0.1882  0.0182
16903TIP3    H272125   0.927   2.225  12.941  0.2983 -1.6630  1.4503
16904TIP3   OH272126   1.163   6.081  10.508  0.0229  0.0173  0.1497
16904TIP3    H172127   1.076   6.045  10.494  0.2316 -0.0913 -0.9676
16904TIP3    H272128   1.209   6.066  10.425  1.3604 -0.6569  0.9702
16905TIP3   OH272129   1.838   2.816  11.997 -0.9193 -0.1182  0.0445
16905TIP3    H172130   1.744   2.820  11.981 -0.7855 -1.5712 -1.3208
16905TIP3    H272131   1.877   2.864  11.924 -0.5735  0.3601  0.5303
16906TIP3   OH272132   5.544   2.284  14.266  0.3065 -0.5508 -0.3102
16906TIP3    H172133   5.498   2.361  14.231  1.2054  0.1565  0.0523
16906TIP3    H272134   5.573   2.237  14.188 -1.2370 -1.1632 -0.5605
16907TIP3   OH272135   2.092   4.336  16.572  0.5129  0.2530  0.1420
16907TIP3    H172136   2.067   4.251  16.608  1.3120 -0.0136  0.0696
16907TIP3    H272137   2.109   4.319  16.479 -1.0888  0.8504 -0.3005
16908TIP3   OH272138   5.962   1.125  16.763  0.3318 -0.5060  0.1305
16908TIP3    H172139   5.872   1.104  16.785 -0.1986  2.3129  1.1445
16908TIP3    H272140   6.015   1.081  16.830 -0.6029  0.4814  1.5804
16909TIP3   OH272141   6.277   5.906   1.870  0.1320 -0.4832  0.2126
16909TIP3    H172142   6.190   5.937   1.896 -0.2675 -1.4135  0.0243
16909TIP3    H272143   6.283   5.927   1.777 -0.8195 -2.4030 -0.3370
16910TIP3   OH272144   4.679   5.385  12.997 -0.1083 -0.8207 -0.4673
16910TIP3    H172145   4.721   5.345  13.073  0.2444 -0.7954 -0.6452
16910TIP3    H272146   4.690   5.480  13.010  1.8368 -0.8508 -1.5770
16911TIP3   OH272147   2.378   1.399   0.908  0.6453  0.1011  0.2359
16911TIP3    H172148   2.419   1.475   0.866  1.3363 -0.6468 -0.4792
16911TIP3    H272149   2.312   1.370   0.845  0.6905 -0.1544  0.3030
16912TIP3   OH272150   0.377   6.128   5.807 -0.2934 -0.3234  0.0984
16912TIP3    H172151   0.334   6.045   5.826  0.6760 -0.9005 -0.1549
16912TIP3    H272152   0.444   6.106   5.742  1.6073  0.2029  1.8013
16913TIP3   OH272153   6.218   2.910   0.233 -0.1419  0.1777  0.1739
16913TIP3    H172154   6.259   2.988   0.269 -1.3153  0.1061  1.8064
16913TIP3    H272155   6.287   2.867   0.182  0.9304  1.5203  0.4445
16914TIP3   OH272156   4.841   1.659   6.442  0.1714  0.1641 -0.8358
16914TIP3    H172157   4.931   1.688   6.456 -0.5581  1.7420  0.9462
16914TIP3    H272158   4.834   1.577   6.491  0.1544  1.0111  0.6303
16915TIP3   OH272159   6.518   3.191  16.286  0.1565  0.6332 -0.4748
16915TIP3    H172160   6.611   3.197  16.266  0.3719 -2.3225 -0.7323
16915TIP3    H272161   6.513   3.207  16.381  0.9997  0.2610 -0.3598
16916TIP3   OH272162   1.509   5.421  11.350  0.2045 -0.2090  0.1204
16916TIP3    H172163   1.601   5.397  11.365  0.7393  1.5405 -0.0174
16916TIP3    H272164   1.509   5.458  11.262 -0.7535 -0.6886 -0.0836
16917TIP3   OH272165   0.641   1.514  11.324  0.3361 -0.0365 -0.3960
16917TIP3    H172166   0.691   1.432  11.320  0.9404  0.3519 -2.9045
16917TIP3    H272167   0.549   1.486  11.329  0.6205 -0.7983  1.0056
16918TIP3   OH272168   6.734   3.891  10.913  0.2764  0.1729  0.5379
16918TIP3    H172169   6.700   3.945  10.842  0.1150  0.2265  0.6552
16918TIP3    H272170   6.691   3.925  10.992 -1.8183 -1.7467  0.3366
16919TIP3   OH272171   0.932   4.826  14.676  0.4723  0.5371  0.5734
16919TIP3    H172172   0.918   4.879  14.597 -0.6846 -0.8950 -0.2429
16919TIP3    H272173   1.017   4.854  14.709  2.8871 -1.3901 -3.3032
16920TIP3   OH272174   3.388   5.079  15.803  0.4182 -1.1935 -0.0618
16920TIP3    H172175   3.325   5.022  15.848  0.1824  0.7902  2.2773
16920TIP3    H272176   3.381   5.163  15.847  3.2700 -0.2980 -1.0840
16921TIP3   OH272177   0.781   0.258  10.547 -0.2736 -0.1416 -0.0981
16921TIP3    H172178   0.832   0.199  10.602 -0.3125 -0.1252 -0.0431
16921TIP3    H272179   0.839   0.280  10.474 -0.5126 -0.8165 -0.5047
16922TIP3   OH272180   2.022   3.687   2.767 -0.5701  0.6808  0.1535
16922TIP3    H172181   2.079   3.615   2.741 -1.7601 -0.3676  0.3214
16922TIP3    H272182   1.987   3.721   2.684 -0.2070  0.9025  0.0893
16923TIP3   OH272183   2.276   6.542   3.640 -0.3152 -0.0321  0.0451
16923TIP3    H172184   2.181   6.548   3.631 -0.0967  3.1888 -1.4971
16923TIP3    H272185   2.296   6.593   3.718  0.2529  0.7352 -0.5897
16924TIP3   OH272186   3.395   0.244  11.246 -0.4410  0.3788  0.0586
16924TIP3    H172187   3.382   0.173  11.183 -0.5431  0.0894  0.3975
16924TIP3    H272188   3.339   0.315  11.215 -0.5980  0.1879 -0.0975
16925TIP3   OH272189   3.269   3.380  11.887 -0.7578 -0.1179 -0.1112
16925TIP3    H172190   3.218   3.451  11.924  0.0914  0.8966 -0.8200
16925TIP3    H272191   3.216   3.301  11.901 -3.9108  1.1834 -3.2657
16926TIP3   OH272192   5.625   1.059   1.388  0.4307 -0.3449  0.5816
16926TIP3    H172193   5.716   1.066   1.359  0.1712  0.7859  0.0024
16926TIP3    H272194   5.601   0.969   1.366  0.4860  0.1887 -2.1290
16927TIP3   OH272195   4.055   2.965  14.590 -0.4307 -0.0406 -0.0172
16927TIP3    H172196   4.150   2.979  14.589 -0.6431  1.5747 -0.9710
16927TIP3    H272197   4.032   2.964  14.682  0.6653 -1.7271  0.2759
16928TIP3   OH272198   6.464   5.431  12.789 -0.3442 -0.1639 -0.0282
16928TIP3    H172199   6.519   5.500  12.751 -0.5300  0.3349  0.5795
16928TIP3    H272200   6.402   5.409  12.719 -1.7933  1.9452  0.4787
16929TIP3   OH272201   2.532   5.720   4.463  0.2394  0.5552 -0.1330
16929TIP3    H172202   2.585   5.795   4.436  0.8452  0.1563 -0.0828
16929TIP3    H272203   2.590   5.670   4.521 -1.0518  1.4547  2.0763
16930TIP3   OH272204   3.902   4.497   0.763 -0.7063  0.5440 -0.3602
16930TIP3    H172205   3.990   4.462   0.760 -1.0313 -0.2132 -1.8492
16930TIP3    H272206   3.852   4.434   0.815 -0.5729  0.5192 -0.2621
16931TIP3   OH272207   5.385   4.757   4.991  0.1529 -0.3616 -0.0071
16931TIP3    H172208   5.294   4.782   5.002 -0.4528 -1.9305 -1.0580
16931TIP3    H272209   5.423   4.827   4.938  0.3217  1.6665  2.6050
16932TIP3   OH272210   4.316   4.378   4.062  0.2192  0.4106 -0.3824
16932TIP3    H172211   4.398   4.427   4.072 -1.4366  3.1559  1.0453
16932TIP3    H272212   4.292   4.352   4.151 -1.1091  0.8637 -0.5891
16933TIP3   OH272213   5.145   6.546  15.058 -0.4900 -0.6556  0.6190
16933TIP3    H172214   5.211   6.607  15.025 -1.4954  0.4780  0.6646
16933TIP3    H272215   5.193   6.464  15.070  1.0592  0.3049  1.2567
16934TIP3   OH272216   6.708   2.931  15.767 -0.4306 -0.3570  0.4793
16934TIP3    H172217   6.646   2.944  15.839  2.0087  1.1176  2.4979
16934TIP3    H272218   6.747   2.845  15.785 -0.1783 -0.2092  0.6471
16935TIP3   OH272219   0.703   2.287   2.154  0.2443  0.0122 -0.0401
16935TIP3    H172220   0.761   2.336   2.095  2.0060 -1.7277  0.1464
16935TIP3    H272221   0.682   2.350   2.223  2.5759  0.5134  0.2942
16936TIP3   OH272222   5.189   1.895   3.962  0.1571  0.5897 -0.0088
16936TIP3    H172223   5.156   1.980   3.993 -3.7921 -0.0945 -1.6269
16936TIP3    H272224   5.128   1.831   4.000  0.9485 -1.1410 -1.5011
16937TIP3   OH272225   3.303   6.532  11.517 -0.1133 -0.0295 -0.8052
16937TIP3    H172226   3.215   6.545  11.552  0.7761  2.3249  0.7712
16937TIP3    H272227   3.325   6.442  11.541 -0.8888  0.3865  1.7541
16938TIP3   OH272228   1.000   3.290  14.200  0.2473  0.4751  0.1056
16938TIP3    H172229   1.003   3.377  14.240 -1.3636  1.3733 -1.5760
16938TIP3    H272230   0.907   3.275  14.182  0.8100  0.1097 -3.0918
16939TIP3   OH272231   1.368   2.161   0.365  0.3285  0.4899 -0.5561
16939TIP3    H172232   1.406   2.249   0.359 -0.4309  0.9530  0.8056
16939TIP3    H272233   1.443   2.103   0.372  0.9561  0.7294 -3.6936
16940TIP3   OH272234   3.435   5.332  13.407  0.1193 -0.1365 -0.2964
16940TIP3    H172235   3.455   5.363  13.495 -1.4331  1.4895 -0.4827
16940TIP3    H272236   3.457   5.239  13.410  1.8743  0.2594  1.2307
16941TIP3   OH272237   0.168   4.363   3.270 -0.2250 -0.3771  0.3419
16941TIP3    H172238   0.184   4.447   3.226 -3.8371  0.9275  1.2005
16941TIP3    H272239   0.255   4.334   3.297  1.1766  3.3709  0.4930
16942TIP3   OH272240   2.520   0.507  12.580  0.7917  0.2523  0.6168
16942TIP3    H172241   2.489   0.597  12.569  0.1938 -0.0416 -0.2301
16942TIP3    H272242   2.615   0.515  12.586  0.7705  0.9167  0.2109
16943TIP3   OH272243   2.453   0.381   5.306 -0.4683 -0.0409  0.3545
16943TIP3    H172244   2.520   0.317   5.329 -0.7712 -0.9143 -1.0911
16943TIP3    H272245   2.502   0.458   5.277  0.0490 -1.3027 -2.5015
16944TIP3   OH272246   0.747   6.029  11.132  0.0897  0.8762  0.4256
16944TIP3    H172247   0.734   5.968  11.205  1.4832 -0.1352 -0.1210
16944TIP3    H272248   0.659   6.042  11.095 -0.3356 -0.2444  0.9962
16945TIP3   OH272249   4.888   1.620   2.380  0.1502  0.2274 -0.5472
16945TIP3    H172250   4.923   1.633   2.468 -0.2519  1.9538 -0.6016
16945TIP3    H272251   4.954   1.568   2.335  1.3138  1.0285  0.1871
16946TIP3   OH272252   3.719   5.232   6.519 -0.2032 -0.7643 -0.0597
16946TIP3    H172253   3.661   5.276   6.457  2.2743  1.5906 -0.8627
16946TIP3    H272254   3.785   5.190   6.465 -0.2247 -2.1088  0.8987
16947TIP3   OH272255   6.341   1.006   3.851  0.2968 -0.4410  0.2087
16947TIP3    H172256   6.254   1.021   3.815  1.2142  1.1952 -1.4932
16947TIP3    H272257   6.355   0.911   3.842 -0.4692 -0.4195 -1.5231
16948TIP3   OH272258   0.262   4.583  16.406  0.2262 -0.6495  0.1450
16948TIP3    H172259   0.195   4.599  16.339  0.3774  1.6255  0.4636
16948TIP3    H272260   0.323   4.656  16.397  0.7059 -0.7224  2.2409
16949TIP3   OH272261   3.738   6.625   4.677 -0.4631  0.4017  0.0178
16949TIP3    H172262   3.689   6.658   4.601  0.2192  1.0093 -0.1721
16949TIP3    H272263   3.823   6.667   4.670 -0.8320  1.5746  1.8693
16950TIP3   OH272264   5.930   1.416   4.548  0.2387  0.5312 -0.3469
16950TIP3    H172265   5.945   1.427   4.642 -1.5568  2.1255 -0.1977
16950TIP3    H272266   5.975   1.491   4.508  0.5103  0.1723 -0.7211
16951TIP3   OH272267   3.769   6.469   4.910  0.0857  0.4225 -0.5762
16951TIP3    H172268   3.699   6.472   4.844 -0.5755 -1.3305 -0.0328
16951TIP3    H272269   3.737   6.405   4.974  0.9487  1.6925  1.1786
16952TIP3   OH272270   4.800   1.227  10.826 -0.0589 -0.5466 -0.1855
16952TIP3    H172271   4.737   1.298  10.838 -1.0819 -1.0466 -2.1921
16952TIP3    H272272   4.871   1.268  10.775 -0.5059 -0.8769 -1.0810
16953TIP3   OH272273   1.216   5.888   6.253 -0.1068  0.1719  0.0724
16953TIP3    H172274   1.194   5.838   6.332 -2.9221  1.1247  0.0134
16953TIP3    H272275   1.265   5.963   6.285 -0.6335  0.1963  0.8769
16954TIP3   OH272276   6.642   1.841   1.165 -0.2262  0.4025  0.1788
16954TIP3    H172277   6.659   1.900   1.238 -0.5511 -0.2043  0.7549
16954TIP3    H272278   6.584   1.774   1.201  0.7438 -0.7038 -0.2478
16955TIP3   OH272279   5.492   2.949  16.238  0.7190 -0.3982  0.0440
16955TIP3    H172280   5.454   2.934  16.151 -0.8608  0.2378  0.5761
16955TIP3    H272281   5.570   3.002  16.222  1.4255 -1.7126 -1.1063
16956TIP3   OH272282   5.686   0.851  16.737  0.0368 -0.1038  0.0777
16956TIP3    H172283   5.607   0.805  16.707 -0.6442  0.0250  1.5816
16956TIP3    H272284   5.723   0.890  16.657 -2.3590  1.2924 -0.4450
16957TIP3   OH272285   4.798   5.854   2.238  0.5504 -0.5197  0.3402
16957TIP3    H172286   4.872   5.822   2.186  0.7160  1.3994 -0.6635
16957TIP3    H272287   4.738   5.892   2.175  0.5319  1.4580  1.4769
16958TIP3   OH272288   4.814   0.241   2.357 -0.9355 -0.2174 -0.0832
16958TIP3    H172289   4.896   0.227   2.309 -1.0323 -1.7847  0.1386
16958TIP3    H272290   4.749   0.258   2.289 -0.4499  1.0884 -0.2602
16959TIP3   OH272291   0.717   4.932   1.096 -0.0523 -0.1254  0.1142
16959TIP3    H172292   0.672   4.871   1.156 -0.0478  0.5960  0.8711
16959TIP3    H272293   0.720   5.015   1.144 -0.3877  0.5838 -1.0508
16960TIP3   OH272294   6.057   0.844   0.150  0.0035  0.1588  0.5799
16960TIP3    H172295   5.988   0.908   0.165  0.1286  0.1061  1.3933
16960TIP3    H272296   6.123   0.892   0.100 -0.8995  0.0232 -0.8132
16961TIP3   OH272297   5.631   1.838  12.578 -0.0470  0.6011  0.6395
16961TIP3    H172298   5.711   1.808  12.622 -0.5135 -0.9776  0.4780
16961TIP3    H272299   5.621   1.778  12.503 -0.9304  1.3048  0.1724
16962TIP3   OH272300   1.291   1.363   2.051  0.0245 -0.1701 -0.1116
16962TIP3    H172301   1.348   1.364   1.974  0.9769  2.1965  0.5579
16962TIP3    H272302   1.203   1.379   2.015  0.1844 -0.8155 -0.8402
16963TIP3   OH272303   4.893   4.824  14.865  0.0285  0.3045  0.3422
16963TIP3    H172304   4.984   4.849  14.882  0.3123 -1.0914  1.0207
16963TIP3    H272305   4.884   4.831  14.770  1.6872 -2.1160 -0.0758
16964TIP3   OH272306   3.798   0.600  11.200 -0.4060 -0.3352  0.0635
16964TIP3    H172307   3.849   0.589  11.280  0.9961 -0.4915 -0.8056
16964TIP3    H272308   3.856   0.570  11.130 -0.9523  1.2983 -1.1819
16965TIP3   OH272309   6.158   4.742  12.332  0.2707  0.4944  0.8639
16965TIP3    H172310   6.139   4.810  12.397  2.2281  2.4488 -0.4449
16965TIP3    H272311   6.239   4.701  12.364 -0.3824 -0.5950  1.1537
16966TIP3   OH272312   2.285   3.067  13.794 -0.0165  0.0098 -0.5436
16966TIP3    H172313   2.294   3.069  13.890 -2.1654  0.1493 -0.2959
16966TIP3    H272314   2.197   3.102  13.778  0.3872  0.1663 -2.5969
16967TIP3   OH272315   6.765   4.600   2.693  0.3654  0.6635  0.1579
16967TIP3    H172316   6.856   4.627   2.709  0.1541  2.0853 -0.8420
16967TIP3    H272317   6.718   4.626   2.772  0.6871  0.6236  0.3652
16968TIP3   OH272318   1.252   1.946  15.067 -0.2923  0.0472  0.0786
16968TIP3    H172319   1.210   1.947  14.980 -1.3425 -0.5663  0.5585
16968TIP3    H272320   1.290   2.033  15.075 -2.4144  1.0551  0.0275
16969TIP3   OH272321   4.197   4.041   3.687 -0.2322  0.6258  0.2034
16969TIP3    H172322   4.214   4.011   3.598  1.7755 -1.6959  1.2502
16969TIP3    H272323   4.112   4.002   3.710 -1.5394  2.5114 -1.1104
16970TIP3   OH272324   4.413   3.523   4.495  0.3454  0.2105 -0.1990
16970TIP3    H172325   4.383   3.598   4.547 -0.4306 -0.3457  0.1674
16970TIP3    H272326   4.337   3.498   4.443  0.2222 -1.0875  0.5791
16971TIP3   OH272327   6.767   2.581  15.245  0.4701  0.3279 -0.3724
16971TIP3    H172328   6.753   2.487  15.254  0.1735  0.4297  0.3029
16971TIP3    H272329   6.683   2.621  15.266  0.5214  0.7389 -0.9115
16972TIP3   OH272330   6.005   6.438  16.665 -0.0476 -0.1929  0.2338
16972TIP3    H172331   5.914   6.426  16.637 -0.5137  0.4585  1.3477
16972TIP3    H272332   6.042   6.350  16.665  0.0279 -0.2318 -2.3936
16973TIP3   OH272333   3.481   2.958   6.639 -0.4110 -0.1261 -0.2391
16973TIP3    H172334   3.514   2.916   6.719 -0.9850 -0.1812 -0.0283
16973TIP3    H272335   3.545   2.934   6.572 -0.8354 -1.5325 -0.1687
16974TIP3   OH272336   3.372   3.777   0.197  0.1680 -0.3827  0.3225
16974TIP3    H172337   3.437   3.729   0.248  2.4618  1.2674 -0.8532
16974TIP3    H272338   3.379   3.739   0.109  1.5611  1.5780 -0.4676
16975TIP3   OH272339   1.968   0.595   3.311 -0.1459 -0.1280 -0.0701
16975TIP3    H172340   2.063   0.605   3.311 -0.3740  3.2489  0.7864
16975TIP3    H272341   1.946   0.564   3.223  1.7164 -1.2411 -0.1805
16976TIP3   OH272342   1.423   1.247  11.645  0.8532  0.5543 -0.6603
16976TIP3    H172343   1.461   1.329  11.616  0.2306  1.8116  1.7892
16976TIP3    H272344   1.486   1.213  11.709 -0.1781  0.6133  0.4312
16977TIP3   OH272345   2.944   1.781  16.312  0.1793 -0.7549 -0.0448
16977TIP3    H172346   2.883   1.850  16.289 -0.1363 -0.4610  1.5413
16977TIP3    H272347   3.021   1.827  16.346 -0.3330 -1.1226  1.7519
16978TIP3   OH272348   4.910   3.791  16.731  0.4710  0.3673 -0.0287
16978TIP3    H172349   4.960   3.872  16.742  0.4944  0.2719  0.5838
16978TIP3    H272350   4.854   3.786  16.808 -1.3008  1.0195 -1.1984
16979TIP3   OH272351   2.063   2.170  12.829 -0.1309 -0.0683 -0.5054
16979TIP3    H172352   2.075   2.171  12.734 -0.4653 -0.7751 -0.5669
16979TIP3    H272353   2.085   2.080  12.855 -3.0414 -0.8398 -0.3535
16980TIP3   OH272354   4.379   4.107  17.166 -0.1800  0.0533 -0.2492
16980TIP3    H172355   4.284   4.117  17.167 -0.0236  2.2237  1.8275
16980TIP3    H272356   4.410   4.181  17.115  0.4383  0.2578  0.4117
16981TIP3   OH272357   2.326   0.111  12.189  0.3195  0.2941 -0.0326
16981TIP3    H172358   2.285   0.187  12.149 -0.1250  1.2035  2.0137
16981TIP3    H272359   2.414   0.139  12.210  0.6018 -0.2251 -0.4848
16982TIP3   OH272360   6.295   4.105  14.199  0.3544  0.4750  0.8173
16982TIP3    H172361   6.268   4.014  14.204  0.6275  0.3297 -0.1013
16982TIP3    H272362   6.214   4.155  14.214  0.2082  0.0899  1.3340
16983TIP3   OH272363   1.869   3.987   2.032  0.1819  0.3971  0.2192
16983TIP3    H172364   1.856   3.938   1.951  1.7677 -0.3492  0.3816
16983TIP3    H272365   1.799   3.957   2.090 -0.0383 -0.2134 -0.3519
16984TIP3   OH272366   1.744   2.730   1.744 -0.3152  0.9909  0.3577
16984TIP3    H172367   1.813   2.679   1.787  1.2331  0.7906 -2.1594
16984TIP3    H272368   1.788   2.772   1.670 -2.8772  0.8650 -1.3574
16985TIP3   OH272369   3.143   4.862  15.374  0.5201  0.6759 -0.3994
16985TIP3    H172370   3.106   4.934  15.425 -0.6514  0.4217 -0.8860
16985TIP3    H272371   3.219   4.834  15.426 -0.3735  0.7205  0.9981
16986TIP3   OH272372   3.535   0.231   2.570  0.7083  0.1760  0.6936
16986TIP3    H172373   3.473   0.207   2.500 -0.8305 -2.3634  2.7386
16986TIP3    H272374   3.492   0.305   2.614  0.4636  0.1749  0.4665
16987TIP3   OH272375   2.379   4.841   1.477 -0.2649 -0.3815  0.2953
16987TIP3    H172376   2.422   4.775   1.422  1.6516  0.1877  1.0214
16987TIP3    H272377   2.393   4.810   1.566  0.3076  0.7979  0.6214
16988TIP3   OH272378   1.902   0.446   5.484 -0.0222 -0.5255 -0.4884
16988TIP3    H172379   1.839   0.393   5.534  0.1358  1.1278  1.5934
16988TIP3    H272380   1.975   0.386   5.467 -0.5856 -1.4540  0.2280
16989TIP3   OH272381   1.327   3.558  14.172 -0.4326 -0.5800  0.2373
16989TIP3    H172382   1.363   3.488  14.117 -0.4653  0.5932 -1.3342
16989TIP3    H272383   1.338   3.638  14.120 -1.5813  0.4064  1.4380
16990TIP3   OH272384   3.860   5.722  15.115  0.5898  0.0305  0.1484
16990TIP3    H172385   3.807   5.642  15.114  0.7064 -0.0643  0.7997
16990TIP3    H272386   3.914   5.713  15.194  2.7875 -0.6833 -1.3118
16991TIP3   OH272387   4.593   3.654  16.431 -0.5113  0.4178 -0.3103
16991TIP3    H172388   4.640   3.705  16.497 -2.4937 -1.0785  2.5189
16991TIP3    H272389   4.659   3.595  16.395  0.6415  1.1954  0.4735
16992TIP3   OH272390   6.152   0.651  15.611  0.0455  0.1866 -0.0740
16992TIP3    H172391   6.097   0.679  15.537  0.7373  1.3238 -0.1804
16992TIP3    H272392   6.116   0.698  15.686  0.5647  0.5725 -0.0615
16993TIP3   OH272393   4.797   5.655   1.705 -0.6473  0.3838  0.1959
16993TIP3    H172394   4.848   5.735   1.689  1.1057 -0.8397 -0.7526
16993TIP3    H272395   4.822   5.628   1.793  0.9085 -0.5183 -0.4696
16994TIP3   OH272396   0.368   0.628   0.655 -0.2325 -0.6672 -0.0605
16994TIP3    H172397   0.370   0.714   0.697  0.2289 -0.7551  0.0979
16994TIP3    H272398   0.446   0.627   0.600 -1.2967 -0.1880 -1.6565
16995TIP3   OH272399   6.291   4.431   3.830  0.1962 -0.2934  0.4690
16995TIP3    H172400   6.261   4.444   3.740  1.0877  0.8312  0.3167
16995TIP3    H272401   6.221   4.380   3.871 -0.6972  0.0540 -0.5723
16996TIP3   OH272402   5.866   0.747   0.863 -0.5011 -0.5226  0.2239
16996TIP3    H172403   5.927   0.771   0.793 -1.8800 -0.4346 -1.0039
16996TIP3    H272404   5.880   0.813   0.931 -0.6505  0.7154 -0.9188
16997TIP3   OH272405   3.361   0.888  12.671 -0.5995  0.1966 -1.0303
16997TIP3    H172406   3.451   0.876  12.703  0.3731  2.1972 -2.8387
16997TIP3    H272407   3.325   0.956  12.727 -1.1985 -0.8816 -0.0432
16998TIP3   OH272408   0.934   3.302  16.350 -0.3680  0.3436  0.2371
16998TIP3    H172409   0.885   3.291  16.431  1.4144  2.1099  1.6391
16998TIP3    H272410   0.945   3.396  16.340  0.3311  0.1194 -1.5300
16999TIP3   OH272411   0.842   2.199  15.294 -0.0382  0.1356  0.0095
16999TIP3    H172412   0.836   2.286  15.256 -1.9755 -0.6209 -1.5732
16999TIP3    H272413   0.929   2.197  15.334  0.5549  2.3440 -0.9917
17000TIP3   OH272414   3.266   3.310   5.481 -0.2767 -0.4222 -0.0711
17000TIP3    H172415   3.299   3.377   5.542 -1.7104  0.3477 -0.1077
17000TIP3    H272416   3.326   3.237   5.491 -0.9938 -0.6964  2.9842
17001TIP3   OH272417   6.717   3.318  14.548 -0.5908  0.1402 -0.2482
17001TIP3    H172418   6.634   3.270  14.547  0.3994 -1.7021 -2.2290
17001TIP3    H272419   6.782   3.253  14.575  0.5504  0.8512 -1.1850
17002TIP3   OH272420   5.958   6.402  13.810  0.0857 -0.5408  0.6192
17002TIP3    H172421   5.977   6.491  13.782 -1.5963  0.0221  1.1694
17002TIP3    H272422   5.935   6.410  13.902  1.3731 -1.7717  1.0757
17003TIP3   OH272423   0.447   2.815   3.412 -0.4542  0.4810  0.0205
17003TIP3    H172424   0.460   2.777   3.325 -1.1057 -0.9051  0.5153
17003TIP3    H272425   0.536   2.832   3.444 -0.1976  0.6079 -0.7296
17004TIP3   OH272426   0.274   1.307  15.115  0.0933  0.0200 -0.1029
17004TIP3    H172427   0.339   1.373  15.090 -0.0836 -0.1590 -1.0905
17004TIP3    H272428   0.198   1.358  15.144  0.9607  0.2290  1.9020
17005TIP3   OH272429   6.128   1.535  13.638  0.0890 -0.2623  0.9977
17005TIP3    H172430   6.194   1.528  13.568 -1.0164  1.7778 -0.3438
17005TIP3    H272431   6.044   1.534  13.592 -0.6564  4.7709  1.7295
17006TIP3   OH272432   5.587   5.094  11.110  0.1276 -0.1503 -0.0977
17006TIP3    H172433   5.600   5.008  11.151  0.8418  0.0947  0.2079
17006TIP3    H272434   5.502   5.087  11.067 -0.0573 -0.8427  0.3520
17007TIP3   OH272435   1.887   1.460   3.771 -0.0841 -0.6190 -0.0149
17007TIP3    H172436   1.948   1.533   3.766 -1.4939  0.5502 -2.3832
17007TIP3    H272437   1.942   1.382   3.768  1.4077  0.3565 -3.5687
17008TIP3   OH272438   6.068   0.960  13.348  0.5209  0.2913  0.7576
17008TIP3    H172439   6.028   0.995  13.268  1.0522 -0.7186  0.0349
17008TIP3    H272440   6.122   1.032  13.381 -0.6405  1.1333  0.8881
17009TIP3   OH272441   3.041   4.418   0.124 -0.2212  0.3926  0.3176
17009TIP3    H172442   3.032   4.458   0.037 -3.4855 -0.8036 -0.0328
17009TIP3    H272443   3.020   4.325   0.110  0.8740 -0.1939  2.1547
17010TIP3   OH272444   4.394   6.337  15.138 -0.1495  0.0384 -0.5893
17010TIP3    H172445   4.312   6.316  15.094 -0.3790 -1.6591  0.5688
17010TIP3    H272446   4.381   6.311  15.229  1.3480  0.6219 -0.1695
17011TIP3   OH272447   0.196   0.125   2.864  0.1312  0.2099 -0.5071
17011TIP3    H172448   0.251   0.203   2.862 -0.8630  0.9512  0.3135
17011TIP3    H272449   0.148   0.131   2.946  0.6151 -1.6810 -0.0202
17012TIP3   OH272450   3.322   6.517   4.443 -0.6027 -0.7081 -0.1178
17012TIP3    H172451   3.378   6.578   4.491 -0.4653  0.6446 -1.9079
17012TIP3    H272452   3.233   6.543   4.466 -0.5298 -0.4022 -0.1714
17013TIP3   OH272453   4.411   5.977   5.876 -0.3222 -0.0785  0.0850
17013TIP3    H172454   4.439   5.967   5.967 -2.7159 -1.0536  0.7930
17013TIP3    H272455   4.327   6.022   5.882 -0.7687 -0.6275 -1.6042
17014TIP3   OH272456   6.615   2.947  12.439 -0.5212 -0.2711 -0.2175
17014TIP3    H172457   6.549   2.950  12.507 -1.2778 -1.2219 -0.8815
17014TIP3    H272458   6.623   2.854  12.418 -0.1398 -0.0133 -1.2667
17015TIP3   OH272459   6.615   1.880  11.465  0.8299  0.1534 -0.1140
17015TIP3    H172460   6.643   1.832  11.386 -0.2132 -0.3025 -0.2232
17015TIP3    H272461   6.615   1.814  11.534  0.6771  0.3006  0.0264
17016TIP3   OH272462   1.421   0.312  17.004 -0.3646  0.7407 -0.3158
17016TIP3    H172463   1.508   0.339  17.036 -0.4083  0.8462 -0.2853
17016TIP3    H272464   1.386   0.391  16.963  0.1475  0.3224 -1.6212
17017TIP3   OH272465   3.964   5.847   0.942  0.3343 -0.0236  0.5009
17017TIP3    H172466   4.008   5.909   0.884 -1.0074  0.2475 -0.2738
17017TIP3    H272467   3.975   5.884   1.029  1.3549  0.1832  0.3000
17018TIP3   OH272468   4.713   0.447  15.671 -0.2062 -0.4868 -0.1545
17018TIP3    H172469   4.695   0.399  15.590 -0.7490  2.2990 -1.8350
17018TIP3    H272470   4.627   0.465  15.708 -0.0804  0.0983 -0.1388
17019TIP3   OH272471   4.765   2.902   3.619 -0.3080  0.0865 -0.5632
17019TIP3    H172472   4.857   2.906   3.644 -0.4124  1.5417 -0.3564
17019TIP3    H272473   4.734   2.992   3.625 -0.9267  0.2167 -3.7285
17020TIP3   OH272474   0.204   1.892   1.216  0.5530 -0.3484 -0.1877
17020TIP3    H172475   0.116   1.879   1.251  1.1823  0.5032  1.8385
17020TIP3    H272476   0.243   1.804   1.218  0.1174 -0.5464 -0.0744
17021TIP3   OH272477   6.447   4.805  16.957  0.6816  0.2763 -0.3157
17021TIP3    H172478   6.439   4.885  17.010 -0.3830 -0.0299  0.0070
17021TIP3    H272479   6.517   4.755  16.999  0.7755  0.6580 -0.0125
17022TIP3   OH272480   2.652   6.745   3.537 -0.2853 -0.7288 -0.2459
17022TIP3    H172481   2.681   6.833   3.514 -2.2058 -0.2480 -1.0288
17022TIP3    H272482   2.674   6.736   3.630  0.3999  0.3703 -0.2794
17023TIP3   OH272483   3.541   0.893  13.902 -1.2280  0.0263  1.1320
17023TIP3    H172484   3.618   0.839  13.881 -2.2673 -0.7654 -0.9260
17023TIP3    H272485   3.576   0.963  13.957  0.5229 -1.6345  2.2870
17024TIP3   OH272486   3.020   3.879  12.079  0.3585 -0.4960 -0.2570
17024TIP3    H172487   2.961   3.875  12.003 -0.5116  0.0343  0.3799
17024TIP3    H272488   3.017   3.970  12.107 -0.5136 -0.9889  1.3382
17025TIP3   OH272489   2.833   5.059   5.665 -0.3283  0.9515  0.1033
17025TIP3    H172490   2.909   5.116   5.675  1.7071 -1.6018  0.4130
17025TIP3    H272491   2.794   5.055   5.753  0.4955  0.6399  0.4688
17026TIP3   OH272492   0.812   1.712  11.446  0.1915 -0.1197 -0.1896
17026TIP3    H172493   0.865   1.746  11.375  0.5473  0.4470  0.3331
17026TIP3    H272494   0.744   1.660  11.403  1.4326 -1.2483 -0.8510
17027TIP3   OH272495   1.872   5.137   3.280 -0.4259  0.5439 -0.0686
17027TIP3    H172496   1.797   5.119   3.336  0.4863 -0.3554  0.9198
17027TIP3    H272497   1.840   5.123   3.191 -1.3461 -0.1492  0.3580
17028TIP3   OH272498   6.572   2.906   2.174  0.2038  0.1612  0.0072
17028TIP3    H172499   6.514   2.932   2.103  1.0837  1.8894 -0.1326
17028TIP3    H272500   6.609   2.823   2.145 -2.2736 -1.0926  0.1922
17029TIP3   OH272501   5.879   6.313  12.813 -0.0026  0.5265 -0.5012
17029TIP3    H172502   5.948   6.253  12.841 -1.3349 -2.0046 -2.2111
17029TIP3    H272503   5.923   6.377  12.757  1.3781  0.8717  0.9283
17030TIP3   OH272504   2.820   1.115   0.256 -0.4129  0.0987 -0.4451
17030TIP3    H172505   2.843   1.167   0.334  0.2500 -0.3824 -0.3094
17030TIP3    H272506   2.822   1.024   0.286  1.4875 -0.2239 -1.3747
17031TIP3   OH272507   2.484   6.207   0.059  0.0662 -0.4257  0.1923
17031TIP3    H172508   2.467   6.164   0.142 -0.2800 -0.8760 -0.1056
17031TIP3    H272509   2.459   6.298   0.072 -0.8135 -0.6837  0.3176
17032TIP3   OH272510   2.183   6.644   5.341 -0.1971 -0.2646  0.1964
17032TIP3    H172511   2.120   6.672   5.407  0.9256 -2.8049  2.5235
17032TIP3    H272512   2.260   6.699   5.355  0.1335 -0.9673  1.2593
17033TIP3   OH272513   5.907   0.213   5.081 -0.2353  0.0482  0.2511
17033TIP3    H172514   5.849   0.186   5.152 -0.8379 -0.4580 -0.4130
17033TIP3    H272515   5.933   0.132   5.039 -0.2939  0.3670 -0.4159
17034TIP3   OH272516   0.507   6.641  15.740 -0.7784  0.0005 -0.0058
17034TIP3    H172517   0.445   6.713  15.725  0.8230  1.2601 -0.9075
17034TIP3    H272518   0.586   6.685  15.772 -0.0268 -1.4579  0.1858
17035TIP3   OH272519   5.473   3.241  13.667 -0.6013  0.0650  0.0676
17035TIP3    H172520   5.502   3.245  13.758 -0.9817  1.3389  0.1503
17035TIP3    H272521   5.379   3.261  13.671 -0.8301 -0.8562 -0.5082
17036TIP3   OH272522   6.707   1.253   0.395 -0.2306 -0.1959 -0.5980
17036TIP3    H172523   6.616   1.222   0.388 -0.3768  0.4909 -2.0349
17036TIP3    H272524   6.700   1.338   0.438 -0.6705  1.3972 -3.5844
17037TIP3   OH272525   3.730   2.975  13.675 -0.2775 -0.1448 -0.0381
17037TIP3    H172526   3.807   2.999  13.622  2.1606 -4.3620  1.0948
17037TIP3    H272527   3.742   3.023  13.757  1.1542 -0.6723  0.0880
17038TIP3   OH272528   0.211   0.987  12.022  0.4305  0.2716 -0.3540
17038TIP3    H172529   0.220   0.912  11.964 -0.2709  0.0587 -0.2008
17038TIP3    H272530   0.176   0.950  12.103  0.5966  0.6871 -0.0876
17039TIP3   OH272531   1.078   6.160   3.251  0.2450  0.1446 -0.4657
17039TIP3    H172532   1.083   6.099   3.178 -0.3970 -0.9631  0.3675
17039TIP3    H272533   0.988   6.151   3.284  0.2939  1.1721 -0.0031
17040TIP3   OH272534   4.020   2.812   4.258  0.3604 -0.1316 -0.2936
17040TIP3    H172535   4.058   2.812   4.170  1.1597 -1.9454  0.0101
17040TIP3    H272536   4.046   2.897   4.295 -1.0912  1.2353 -2.2094
17041TIP3   OH272537   0.101   2.536   6.457  0.2079  0.0168  0.1797
17041TIP3    H172538   0.009   2.561   6.462  0.3152  0.4703 -0.0837
17041TIP3    H272539   0.146   2.593   6.519  0.3902  0.1724 -0.0929
17042TIP3   OH272540   3.860   1.723  16.857  0.3934  0.1554 -0.3679
17042TIP3    H172541   3.894   1.812  16.855 -0.2892  0.5151  1.5483
17042TIP3    H272542   3.864   1.693  16.766  1.2410  1.8907 -0.9408
17043TIP3   OH272543   4.021   5.179  11.353 -0.4185 -0.1243  0.5432
17043TIP3    H172544   3.925   5.172  11.354 -0.6834  1.1601 -2.6993
17043TIP3    H272545   4.051   5.108  11.410 -3.2388 -3.3167 -1.5197
17044TIP3   OH272546   6.029   3.986   4.715  0.3181  0.0422  0.3412
17044TIP3    H172547   6.017   4.076   4.746  1.0754  0.0272  0.7020
17044TIP3    H272548   6.050   3.936   4.794  1.1997 -0.2022 -0.0335
17045TIP3   OH272549   3.539   6.539  14.547  0.3159  0.1310  0.0844
17045TIP3    H172550   3.596   6.606  14.585  2.4885 -1.3260 -0.4259
17045TIP3    H272551   3.561   6.539  14.454 -0.4500 -0.5441 -0.1077
17046TIP3   OH272552   3.396   5.034  11.970  0.5077 -0.0098  0.0605
17046TIP3    H172553   3.428   5.107  11.917  0.8652  0.3117  0.7073
17046TIP3    H272554   3.302   5.050  11.979  0.4121 -0.1550 -0.6021
17047TIP3   OH272555   3.081   4.143  13.479 -0.3067  0.0529 -0.4647
17047TIP3    H172556   3.052   4.150  13.389 -2.4116 -1.1907  0.0501
17047TIP3    H272557   3.021   4.080  13.519  0.6755  0.4258  1.7594
17048TIP3   OH272558   4.151   6.408   2.183  0.4046 -0.4623  0.7054
17048TIP3    H172559   4.144   6.381   2.275 -0.3008  0.8254  1.0528
17048TIP3    H272560   4.062   6.400   2.149  0.9697 -2.6555 -0.4078
17049TIP3   OH272561   0.272   0.032  13.390 -0.2077 -0.4975 -0.5331
17049TIP3    H172562   0.267   0.117  13.433 -1.1483  0.1866 -1.9260
17049TIP3    H272563   0.363   0.026  13.361 -0.1747  0.1168 -0.5717
17050TIP3   OH272564   6.262   2.000  17.200  0.1386 -0.3758  0.3906
17050TIP3    H172565   6.222   2.003  17.287  0.7397 -0.7083  0.6833
17050TIP3    H272566   6.210   1.935  17.152 -1.4628  1.2270 -0.1644
17051TIP3   OH272567   1.654   1.711   0.337  0.3894  0.8343 -0.3292
17051TIP3    H172568   1.696   1.635   0.377  1.4691 -0.4364 -3.4961
17051TIP3    H272569   1.564   1.682   0.320 -0.0427  1.3426  0.9492
17052TIP3   OH272570   2.293   4.904   1.757 -0.2464  0.2812  0.4637
17052TIP3    H172571   2.386   4.886   1.769  0.1003  2.0839  0.7940
17052TIP3    H272572   2.252   4.878   1.840 -0.0373 -0.5050  0.3199
17053TIP3   OH272573   4.387   1.968   6.317 -0.0490  0.3734 -0.1198
17053TIP3    H172574   4.399   1.873   6.320  0.8593  0.4651 -0.5685
17053TIP3    H272575   4.422   1.999   6.401  2.0766  0.5432 -1.0221
17054TIP3   OH272576   5.150   3.314  11.501  0.0883 -0.5359  0.2078
17054TIP3    H172577   5.168   3.329  11.594 -0.7538  1.0401  0.1522
17054TIP3    H272578   5.055   3.298  11.497 -0.0682  0.4346 -0.4609
17055TIP3   OH272579   2.327   6.185   2.481 -0.0944  0.2482  0.6113
17055TIP3    H172580   2.266   6.256   2.498 -0.2951  1.0445 -2.7999
17055TIP3    H272581   2.277   6.105   2.499 -1.2019  0.9235  0.6057
17056TIP3   OH272582   4.735   5.285   2.810  0.1421 -0.3671 -0.2663
17056TIP3    H172583   4.701   5.315   2.894 -0.9033  2.5389 -1.6137
17056TIP3    H272584   4.830   5.301   2.814 -0.2417  2.2751 -0.5215
17057TIP3   OH272585   3.537   2.349  16.229  0.0284 -0.6205 -0.2536
17057TIP3    H172586   3.593   2.388  16.296 -1.0272 -0.4981  0.5847
17057TIP3    H272587   3.567   2.388  16.147  0.5823  0.1156  0.2868
17058TIP3   OH272588   2.445   1.570   3.259  0.0569  0.1776  0.4863
17058TIP3    H172589   2.514   1.520   3.217  0.4879  1.7095 -0.7193
17058TIP3    H272590   2.364   1.523   3.239  0.4572 -0.0945 -0.5179
17059TIP3   OH272591   0.780   3.272  10.819 -0.1553  0.6506 -0.0066
17059TIP3    H172592   0.869   3.235  10.824  0.0240  0.8095 -1.5079
17059TIP3    H272593   0.790   3.363  10.847  0.5236  1.1695 -1.7727
17060TIP3   OH272594   4.976   0.598   6.177  0.0884 -0.4533  0.0635
17060TIP3    H172595   4.968   0.603   6.272 -1.0421  1.4601 -0.0665
17060TIP3    H272596   4.918   0.527   6.151  2.0586 -2.4644  0.9133
17061TIP3   OH272597   3.133   2.276   1.222 -0.1058  0.6939 -0.6561
17061TIP3    H172598   3.062   2.334   1.196  0.5091  1.3606 -0.8909
17061TIP3    H272599   3.145   2.217   1.147 -0.2409  0.7456 -0.7177
17062TIP3   OH272600   2.066   2.788   0.858 -0.5608 -0.1003 -0.5020
17062TIP3    H172601   2.000   2.797   0.927 -0.2856  1.3418 -0.3965
17062TIP3    H272602   2.127   2.722   0.891 -1.5366 -0.9329 -0.2938
17063TIP3   OH272603   3.548   1.042   5.007 -0.2410 -0.9705 -0.3745
17063TIP3    H172604   3.637   1.015   4.983 -0.4734 -0.4295 -1.9603
17063TIP3    H272605   3.557   1.135   5.027 -0.4481 -0.9137 -0.5454
17064TIP3   OH272606   6.718   1.626   6.426 -0.3513  0.7709  0.0078
17064TIP3    H172607   6.703   1.619   6.332  0.6084  1.4231 -0.2055
17064TIP3    H272608   6.719   1.535   6.457  0.2487  0.5051 -0.7599
17065TIP3   OH272609   3.320   1.306   3.772  0.1412  0.1272  0.3242
17065TIP3    H172610   3.232   1.337   3.793  0.2317 -0.4849  1.7146
17065TIP3    H272611   3.332   1.229   3.828  1.4970  0.1078  0.0301
17066TIP3   OH272612   2.360   1.907  11.165 -0.3954  0.1088 -0.2022
17066TIP3    H172613   2.393   1.868  11.084 -0.2159  1.7422 -0.9403
17066TIP3    H272614   2.384   1.844  11.234  2.2296  0.1460 -0.9966
17067TIP3   OH272615   1.214   2.123   4.198  0.8309  0.0321 -0.6023
17067TIP3    H172616   1.132   2.174   4.197  0.7117 -0.1494 -1.4188
17067TIP3    H272617   1.187   2.035   4.174  1.5445  0.4972 -3.5217
17068TIP3   OH272618   2.495   3.616  14.589  0.0152 -0.3820 -0.4724
17068TIP3    H172619   2.569   3.654  14.637 -0.3367 -1.2559  0.8195
17068TIP3    H272620   2.465   3.545  14.645 -2.7089  0.8271 -0.2328
17069TIP3   OH272621   2.077   2.213  15.682 -0.0741  0.6410  0.2089
17069TIP3    H172622   2.040   2.130  15.652  0.3687 -0.1344  1.6772
17069TIP3    H272623   2.067   2.273  15.608 -1.8507 -0.2693 -0.3305
17070TIP3   OH272624   1.959   6.183  10.382 -0.3386 -0.1585 -0.4361
17070TIP3    H172625   1.987   6.113  10.441  0.2530 -0.3173 -0.8955
17070TIP3    H272626   1.922   6.250  10.439  0.1100 -0.3696  0.1012
17071TIP3   OH272627   5.915   2.754   1.636 -0.0638 -0.2806  0.0235
17071TIP3    H172628   5.847   2.754   1.570  0.1286  1.4204 -0.2148
17071TIP3    H272629   5.868   2.760   1.719 -0.2486 -0.9084 -0.0287
17072TIP3   OH272630   0.193   6.520   2.182 -0.1949  0.3913  0.2940
17072TIP3    H172631   0.213   6.554   2.268 -0.7633  0.1993  0.5068
17072TIP3    H272632   0.210   6.593   2.122 -0.0724  0.6106  0.5950
17073TIP3   OH272633   6.713   1.821   5.367  0.1319  1.0088 -0.0967
17073TIP3    H172634   6.788   1.860   5.412  0.1632  1.3991 -0.4866
17073TIP3    H272635   6.639   1.876   5.391 -0.6885 -1.1082  2.8330
17074TIP3   OH272636   3.473   4.174   2.603 -0.0972  0.3250  0.1226
17074TIP3    H172637   3.385   4.189   2.635  0.0103 -0.8562  1.0586
17074TIP3    H272638   3.481   4.230   2.526 -1.6516  0.4603  0.0304
17075TIP3   OH272639   3.450   4.898  15.012 -0.3084  0.4674 -0.0012
17075TIP3    H172640   3.486   4.837  15.076  0.5157 -1.4620 -2.1622
17075TIP3    H272641   3.497   4.980  15.028  1.3225 -0.5271  0.5679
17076TIP3   OH272642   1.197   5.450  16.278  0.3136 -0.1923 -0.1090
17076TIP3    H172643   1.204   5.395  16.355 -0.6833 -0.7699 -0.4177
17076TIP3    H272644   1.203   5.390  16.204 -0.8045  0.0915 -0.4533
17077TIP3   OH272645   2.558   0.394  11.322  0.6707 -0.9145 -0.7989
17077TIP3    H172646   2.534   0.367  11.233 -0.8002 -0.5786 -0.5262
17077TIP3    H272647   2.477   0.388  11.372  0.9419  1.0694 -0.0166
17078TIP3   OH272648   5.767   1.093   1.082  0.3719  0.3292  0.5863
17078TIP3    H172649   5.752   1.157   1.151  1.2925  0.5344  0.6110
17078TIP3    H272650   5.758   1.143   1.001 -2.0663 -0.1881  0.4650
17079TIP3   OH272651   5.963   4.417  12.745 -0.2582  0.3694  0.0578
17079TIP3    H172652   5.954   4.339  12.690  1.3042  0.6749 -0.6631
17079TIP3    H272653   5.944   4.490  12.687 -1.8146  0.5713  0.7552
17080TIP3   OH272654   0.910   5.094   6.599 -0.8224  0.7168  0.0456
17080TIP3    H172655   0.865   5.146   6.666 -0.3301  3.2638 -1.4803
17080TIP3    H272656   0.922   5.154   6.526  3.1158 -0.4155 -0.4856
17081TIP3   OH272657   3.556   0.463   0.801  0.4773 -0.0320 -0.2996
17081TIP3    H172658   3.531   0.511   0.722  3.0837 -1.1676 -1.9593
17081TIP3    H272659   3.626   0.515   0.840  0.8124 -0.6666 -0.0449
17082TIP3   OH272660   4.070   0.466   2.646  0.0900 -0.4898 -0.0353
17082TIP3    H172661   3.981   0.437   2.666  0.1747 -0.2965  0.6624
17082TIP3    H272662   4.102   0.402   2.582 -0.2939 -0.9779  0.2473
17083TIP3   OH272663   5.371   6.082   3.328  0.0120  0.1346 -0.4038
17083TIP3    H172664   5.359   6.128   3.411 -1.3991 -1.0267  0.0595
17083TIP3    H272665   5.451   6.031   3.341 -0.9896 -1.2134  0.8427
17084TIP3   OH272666   4.912   5.061  11.714 -0.4220 -0.1296  0.7439
17084TIP3    H172667   4.877   4.979  11.748 -1.5634 -0.0047 -0.0782
17084TIP3    H272668   5.005   5.059  11.737 -0.7756 -0.8738  2.2176
17085TIP3   OH272669   0.378   2.060   2.297 -0.1467  0.0276 -0.4118
17085TIP3    H172670   0.336   2.125   2.354 -0.7254 -0.3513 -0.3998
17085TIP3    H272671   0.327   2.063   2.216 -1.7019 -2.0572  0.3940
17086TIP3   OH272672   6.396   0.528   0.557  0.1306 -0.3452 -0.2257
17086TIP3    H172673   6.342   0.590   0.606  0.3492  0.2492 -0.7378
17086TIP3    H272674   6.415   0.459   0.621 -1.5870 -0.7998 -0.1398
17087TIP3   OH272675   5.063   1.890   6.027  0.1870  0.4807  0.1108
17087TIP3    H172676   5.143   1.839   6.019  0.7592  1.1405  1.3062
17087TIP3    H272677   4.993   1.825   6.034  0.7579 -0.1207  0.2875
17088TIP3   OH272678   5.465   3.629  11.158 -0.8873  0.0869  0.0079
17088TIP3    H172679   5.455   3.722  11.176 -1.3211 -0.0398  0.4266
17088TIP3    H272680   5.556   3.620  11.129 -1.1480  0.8148 -1.1164
17089TIP3   OH272681   4.987   1.665   5.541 -0.1457 -0.3516  0.2334
17089TIP3    H172682   4.971   1.571   5.553  0.8368 -0.7956 -1.5792
17089TIP3    H272683   4.909   1.707   5.576 -1.7116 -1.9888 -1.1114
17090TIP3   OH272684   6.475   4.978   0.136 -0.1057 -0.6854 -0.5183
17090TIP3    H172685   6.421   5.017   0.067  0.3353  1.8831  0.4974
17090TIP3    H272686   6.456   5.030   0.214  2.2580 -1.0388  0.3792
17091TIP3   OH272687   0.731   6.465   2.547 -0.2937  0.5224 -0.5406
17091TIP3    H172688   0.811   6.473   2.494  0.4407  0.4612  0.5185
17091TIP3    H272689   0.663   6.439   2.485  0.8237 -0.8784 -1.2447
17092TIP3   OH272690   3.839   4.330  12.972  0.1789 -0.0545 -0.1274
17092TIP3    H172691   3.877   4.251  13.011 -1.7878 -1.4070 -0.8211
17092TIP3    H272692   3.779   4.363  13.039  0.8100  0.7429  0.0633
17093TIP3   OH272693   2.304   4.041  13.213  0.1661 -0.0511  0.0641
17093TIP3    H172694   2.220   4.087  13.218 -0.2291 -0.8646  1.4286
17093TIP3    H272695   2.343   4.072  13.132 -1.4277  0.3980 -0.5778
17094TIP3   OH272696   4.203   2.831  14.140  0.2148  0.3321 -0.2158
17094TIP3    H172697   4.160   2.907  14.180 -0.0840 -0.6239  1.3788
17094TIP3    H272698   4.262   2.799  14.208  0.1810 -0.9848 -0.7855
17095TIP3   OH272699   1.774   4.740   3.268 -0.3864  0.5160  0.2798
17095TIP3    H172700   1.834   4.671   3.242  0.1794  1.1209 -0.0231
17095TIP3    H272701   1.762   4.794   3.189  2.0285  2.8773  1.3628
17096TIP3   OH272702   0.915   3.159   3.133  0.3831 -0.5762  0.3033
17096TIP3    H172703   0.845   3.177   3.070 -0.2494 -2.1138  0.5240
17096TIP3    H272704   0.979   3.230   3.119 -2.1215  2.1634  1.5278
17097TIP3   OH272705   3.257   6.312  13.898  0.3686 -0.3596  0.2582
17097TIP3    H172706   3.343   6.278  13.920 -0.3135 -1.2637  1.6545
17097TIP3    H272707   3.260   6.327  13.803  1.8590 -0.8955  0.2062
17098TIP3   OH272708   1.578   0.990   4.811 -0.7043  0.0789 -0.0308
17098TIP3    H172709   1.539   1.027   4.731  0.7962  1.5189 -0.1658
17098TIP3    H272710   1.588   1.066   4.869  0.3630 -0.5299  0.6093
17099TIP3   OH272711   0.326   4.836  13.731 -0.3968 -0.5507  0.6145
17099TIP3    H172712   0.372   4.845  13.648 -0.0327 -1.7644  0.6668
17099TIP3    H272713   0.268   4.912  13.735  0.4726  0.1728 -0.1725
17100TIP3   OH272714   3.186   5.243  15.318 -0.4684 -0.4087 -0.6159
17100TIP3    H172715   3.102   5.208  15.290 -1.1458 -1.4744  2.3501
17100TIP3    H272716   3.220   5.178  15.380  1.0765  1.3985  0.5679
17101TIP3   OH272717   1.939   4.128  12.824 -0.2599 -0.4997 -0.2445
17101TIP3    H172718   1.910   4.082  12.745 -0.5850 -1.7654  0.5947
17101TIP3    H272719   2.015   4.078  12.855  1.1923  1.1795 -0.8604
17102TIP3   OH272720   0.084   1.773   3.254 -0.1705  0.3789  0.3507
17102TIP3    H172721   0.147   1.725   3.201  1.2869  2.6911 -0.1618
17102TIP3    H272722   0.006   1.780   3.199 -0.3147 -1.0889  0.3418
17103TIP3   OH272723   1.192   0.335  16.546 -0.1749  0.3715 -0.0605
17103TIP3    H172724   1.189   0.338  16.451  1.1464 -0.4477 -0.1585
17103TIP3    H272725   1.108   0.298  16.573 -0.9807  1.5839 -0.8277
17104TIP3   OH272726   6.280   2.766  14.295  0.4003 -0.1567 -0.7030
17104TIP3    H172727   6.225   2.841  14.318  1.1600 -0.0242  0.8124
17104TIP3    H272728   6.349   2.803  14.240 -0.0810 -0.0313 -1.2321
17105TIP3   OH272729   6.381   4.894   2.460  0.4411 -0.7325  0.7906
17105TIP3    H172730   6.464   4.848   2.450  0.8125  0.2962 -1.3986
17105TIP3    H272731   6.357   4.920   2.371 -3.4534 -3.0553  0.8961
17106TIP3   OH272732   2.551   1.276   0.583  0.0939 -0.3543  0.0579
17106TIP3    H172733   2.612   1.250   0.652 -0.1265 -1.3674 -0.1073
17106TIP3    H272734   2.551   1.371   0.586 -0.0594 -0.3667  1.5963
17107TIP3   OH272735   0.054   0.983   2.652  0.0395 -0.4930 -0.1347
17107TIP3    H172736   0.065   0.977   2.557 -1.3980 -0.1066 -0.3541
17107TIP3    H272737   0.112   0.916   2.687  1.0630 -0.2138 -1.2490
17108TIP3   OH272738   4.117   1.001   3.089  0.1521 -0.2243 -0.4069
17108TIP3    H172739   4.124   1.086   3.133  0.8699 -0.3552 -0.2606
17108TIP3    H272740   4.182   0.946   3.133 -0.2393 -0.8216 -0.5702
17109TIP3   OH272741   5.284   3.574   2.679  0.2101  0.0987 -0.4032
17109TIP3    H172742   5.239   3.512   2.622  1.3464 -0.4654 -0.7246
17109TIP3    H272743   5.364   3.528   2.706  0.5294  1.0054  0.2606
17110TIP3   OH272744   6.362   5.837   2.955 -0.4587 -0.4818  0.5293
17110TIP3    H172745   6.341   5.834   2.862 -1.3513 -0.8786  0.7294
17110TIP3    H272746   6.405   5.922   2.968  0.8472 -0.9640 -0.4642
17111TIP3   OH272747   5.338   3.959   3.159  0.5324  0.0640 -0.6405
17111TIP3    H172748   5.359   4.051   3.172  0.5013 -0.1887  1.5644
17111TIP3    H272749   5.313   3.927   3.245  1.9370 -2.3807 -1.0389
17112TIP3   OH272750   3.020   0.111  16.933  0.2858  0.0278 -0.1967
17112TIP3    H172751   2.978   0.169  16.996 -1.4478 -0.6546 -0.6628
17112TIP3    H272752   2.973   0.127  16.851  0.9065 -0.8127 -0.7330
17113TIP3   OH272753   0.578   1.547  12.315  0.1836 -0.1366  0.2151
17113TIP3    H172754   0.536   1.478  12.263  0.7644  0.5230 -1.2024
17113TIP3    H272755   0.666   1.512  12.333  0.2098 -0.0915  0.1744
17114TIP3   OH272756   3.791   4.333  11.392  0.2527  0.1229 -0.6908
17114TIP3    H172757   3.731   4.285  11.334  1.8730 -0.9861 -1.5381
17114TIP3    H272758   3.798   4.278  11.470  1.5274 -0.6940 -1.3494
17115TIP3   OH272759   4.484   6.040  14.878 -0.3545  0.2987 -0.0924
17115TIP3    H172760   4.504   6.078  14.964 -0.7995 -1.3931  0.7931
17115TIP3    H272761   4.543   6.085  14.818  3.0315 -1.3698  1.7052
17116TIP3   OH272762   1.627   2.545  12.247 -0.5125  0.6759  0.4553
17116TIP3    H172763   1.713   2.508  12.231 -0.8883 -0.1379  0.2501
17116TIP3    H272764   1.587   2.552  12.161 -0.8604  0.5153  0.6008
17117TIP3   OH272765   4.515   1.212  12.020  0.0569 -0.5112 -0.5895
17117TIP3    H172766   4.568   1.231  11.943  2.2280  1.9448  1.3485
17117TIP3    H272767   4.538   1.121  12.043  1.6940 -0.2656 -1.1303
17118TIP3   OH272768   6.611   6.148  11.169  0.2503 -0.5436  0.4203
17118TIP3    H172769   6.579   6.160  11.080 -2.8556  1.4246  1.6475
17118TIP3    H272770   6.570   6.067  11.199 -1.3721  0.4577  1.0312
17119TIP3   OH272771   2.301   5.550  11.056 -0.0875 -0.0631  0.3429
17119TIP3    H172772   2.229   5.520  11.112  0.7877 -1.4785  0.7759
17119TIP3    H272773   2.307   5.483  10.987  1.1455 -0.2773  0.6262
17120TIP3   OH272774   1.305   2.493   1.586  0.1192 -0.4761 -0.5403
17120TIP3    H172775   1.225   2.545   1.576 -0.8359 -1.7996 -0.0203
17120TIP3    H272776   1.349   2.531   1.662 -0.1125  0.1303 -0.7052
17121TIP3   OH272777   2.960   0.447  13.689 -0.1261  0.6079  0.3908
17121TIP3    H172778   2.870   0.477  13.702  0.1100  0.6490  2.2013
17121TIP3    H272779   2.987   0.416  13.775  0.9188 -1.3327 -0.5719
17122TIP3   OH272780   4.340   5.419  10.936  0.5504 -0.2483 -0.4684
17122TIP3    H172781   4.291   5.464  11.004  0.2563 -1.2484  0.0105
17122TIP3    H272782   4.280   5.413  10.862  0.3924 -0.3586 -0.3313
17123TIP3   OH272783   5.351   1.317   2.616  0.0248  0.0349 -0.2685
17123TIP3    H172784   5.307   1.235   2.641 -0.4236  0.7795  1.5395
17123TIP3    H272785   5.281   1.382   2.615  0.6041  0.6605 -0.3746
17124TIP3   OH272786   2.740   1.166  15.995 -0.1091  0.4941  0.1073
17124TIP3    H172787   2.738   1.093  16.056  1.8431  0.4973  0.2495
17124TIP3    H272788   2.724   1.243  16.050  0.0211  0.3539  0.3444
17125TIP3   OH272789   3.000   2.814   3.287 -0.7314  0.4777 -0.3688
17125TIP3    H172790   2.988   2.900   3.248  2.0863  1.1780  0.0776
17125TIP3    H272791   3.085   2.784   3.254  0.1809 -0.3888  2.4502
17126TIP3   OH272792   2.305   1.693  13.234  0.1911 -0.3012 -0.4134
17126TIP3    H172793   2.249   1.691  13.156 -0.3102 -3.7120 -0.1295
17126TIP3    H272794   2.393   1.680  13.201 -0.1185 -2.6742 -0.4490
17127TIP3   OH272795   2.115   0.284   1.813  0.5610  0.3756 -0.5079
17127TIP3    H172796   2.055   0.357   1.800 -0.5620 -0.3654  0.4083
17127TIP3    H272797   2.099   0.253   1.902  1.9021 -0.2125 -0.4316
17128TIP3   OH272798   2.630   5.381   0.681  0.3000  0.2752  0.0016
17128TIP3    H172799   2.633   5.299   0.631  0.2045  0.0307  0.3914
17128TIP3    H272800   2.655   5.448   0.618 -0.1798  0.0163 -0.4712
17129TIP3   OH272801   0.746   0.511  13.620 -0.6617 -0.3550 -0.6703
17129TIP3    H172802   0.829   0.545  13.586  0.4429 -0.6519  1.6048
17129TIP3    H272803   0.721   0.573  13.688 -2.0143 -0.6246 -0.8934
17130TIP3   OH272804   2.834   4.736   3.410  0.8133 -0.1830  0.0361
17130TIP3    H172805   2.870   4.824   3.398  2.7078 -0.9503 -0.1200
17130TIP3    H272806   2.861   4.687   3.333  0.9315 -1.2780  0.7525
17131TIP3   OH272807   0.620   0.635   5.249  0.0960 -0.1368 -0.1503
17131TIP3    H172808   0.536   0.610   5.288  0.3870 -1.6058 -0.4181
17131TIP3    H272809   0.609   0.620   5.155  0.6332 -0.3037 -0.1932
17132TIP3   OH272810   6.200   0.877   5.706  0.1731  0.7346  0.5062
17132TIP3    H172811   6.234   0.965   5.689  0.2890  0.1554 -2.9059
17132TIP3    H272812   6.128   0.867   5.643 -0.1975 -1.4420  1.2054
17133TIP3   OH272813   0.766   0.298  11.644  0.1328  0.6332 -0.1277
17133TIP3    H172814   0.677   0.334  11.642 -0.1724 -0.0967 -0.2298
17133TIP3    H272815   0.819   0.360  11.594 -0.2912  1.1386  0.0359
17134TIP3   OH272816   4.991   6.024   2.045  0.6483  0.0333 -0.0071
17134TIP3    H172817   5.042   6.031   2.126 -1.1016  2.2151  1.0173
17134TIP3    H272818   5.030   6.089   1.987  0.3271  0.2436  0.0132
17135TIP3   OH272819   4.811   4.133  11.118  0.0285  0.1528  0.1405
17135TIP3    H172820   4.819   4.125  11.213  1.4710 -1.9823 -0.1003
17135TIP3    H272821   4.888   4.183  11.091  0.6991 -0.9571 -0.0605
17136TIP3   OH272822   6.026   0.908  12.690  0.3584 -0.2545 -0.5647
17136TIP3    H172823   6.114   0.882  12.720 -0.3562 -1.4262  0.6290
17136TIP3    H272824   6.016   0.998  12.723 -0.2436 -1.3459  2.6442
17137TIP3   OH272825   0.310   6.225  16.668  0.3460  0.1448  0.0460
17137TIP3    H172826   0.359   6.268  16.738  1.3172 -2.7141  1.2803
17137TIP3    H272827   0.372   6.161  16.632 -1.5973 -1.7309 -0.1693
17138TIP3   OH272828   5.380   2.653   4.124  0.1134  0.0817 -0.2497
17138TIP3    H172829   5.440   2.579   4.140  0.8796 -0.0669 -3.2494
17138TIP3    H272830   5.304   2.613   4.083 -0.9875  0.6207  1.1818
17139TIP3   OH272831   4.112   6.477   3.752 -0.0201  0.2911  0.3974
17139TIP3    H172832   4.062   6.402   3.784 -1.2865  0.3311 -1.3839
17139TIP3    H272833   4.156   6.511   3.830  0.8231 -2.4383  1.2178
17140TIP3   OH272834   4.607   6.398   4.441 -0.5136  0.4324  0.3860
17140TIP3    H172835   4.689   6.348   4.442 -2.4492 -3.0560 -0.6327
17140TIP3    H272836   4.584   6.407   4.534  1.0391  1.6862  0.7053
17141TIP3   OH272837   0.369   3.755  15.309 -0.0392 -0.3404  0.0484
17141TIP3    H172838   0.345   3.753  15.217  0.6169 -1.4258 -0.1169
17141TIP3    H272839   0.379   3.663  15.334 -2.1504 -0.1923  1.7334
17142TIP3   OH272840   3.345   0.239  16.470  0.2544 -0.5248  0.2750
17142TIP3    H172841   3.349   0.197  16.384  1.0957 -1.1936  0.6277
17142TIP3    H272842   3.433   0.273  16.484 -0.2640  0.8892  0.2492
17143TIP3   OH272843   4.906   2.683  14.325 -0.3861  0.3564  0.2408
17143TIP3    H172844   4.962   2.649  14.255  2.3855  1.2705  1.8923
17143TIP3    H272845   4.865   2.605  14.362 -0.5873 -0.3024 -1.2797
17144TIP3   OH272846   0.737   0.388  12.608 -0.0460 -0.8097 -0.1135
17144TIP3    H172847   0.742   0.361  12.516  0.2073  0.4889 -0.4878
17144TIP3    H272848   0.643   0.390  12.627 -0.2281  1.1006 -1.0278
17145TIP3   OH272849   4.342   6.614  16.715  0.0034  0.1075 -0.0396
17145TIP3    H172850   4.434   6.591  16.705  0.4029  1.6669 -0.3054
17145TIP3    H272851   4.318   6.651  16.630 -0.6926  0.2588  0.2160
17146TIP3   OH272852   6.115   2.118   3.143  0.8358  0.1879  0.5515
17146TIP3    H172853   6.114   2.165   3.060  2.0968  0.6044  0.7487
17146TIP3    H272854   6.099   2.185   3.209  0.4453 -0.0368  0.6846
17147TIP3   OH272855   0.858   2.440  14.386  0.2719 -0.8393 -0.4609
17147TIP3    H172856   0.852   2.403  14.297 -0.5527  0.4806 -0.9924
17147TIP3    H272857   0.773   2.420  14.425  0.1980 -0.4006 -0.3938
17148TIP3   OH272858   2.274   6.765   2.162  0.3131 -0.1878 -0.0033
17148TIP3    H172859   2.223   6.685   2.173  0.2338 -0.1155  0.1585
17148TIP3    H272860   2.365   6.737   2.166  0.2909 -0.3834 -0.7559
17149TIP3   OH272861   1.415   6.173  13.857  0.2632  0.4259 -0.2682
17149TIP3    H172862   1.486   6.235  13.868  0.0712  0.7057 -0.5689
17149TIP3    H272863   1.457   6.093  13.824  0.3962  0.7103 -0.8019
17150TIP3   OH272864   5.157   4.605   2.810 -0.2824 -0.0892  0.2438
17150TIP3    H172865   5.174   4.635   2.899 -0.8166  0.0782  0.2963
17150TIP3    H272866   5.118   4.518   2.821  0.1921 -0.3176  0.1442
17151TIP3   OH272867   4.164   6.607   3.282 -0.0650  0.1412  0.3954
17151TIP3    H172868   4.197   6.669   3.217  1.0144 -0.8270 -0.0087
17151TIP3    H272869   4.144   6.661   3.358  1.9589  0.8701  0.4670
17152TIP3   OH272870   0.262   2.841  12.964  0.4402 -0.4270 -0.5685
17152TIP3    H172871   0.358   2.842  12.957  0.4590  0.8399 -0.4360
17152TIP3    H272872   0.245   2.824  13.056  0.5810  0.6708 -0.3266
17153TIP3   OH272873   2.470   3.346  14.053 -0.1263  0.6376  0.7680
17153TIP3    H172874   2.433   3.258  14.043  1.7358 -0.2326  1.0864
17153TIP3    H272875   2.511   3.365  13.969 -0.1357  1.0131  0.8455
17154TIP3   OH272876   0.233   5.628  13.839 -0.4286  0.1663  0.1138
17154TIP3    H172877   0.196   5.684  13.908  0.3375  0.1613  0.5439
17154TIP3    H272878   0.319   5.667  13.821 -0.6168  0.1541 -0.8360
17155TIP3   OH272879   2.872   5.443   4.462 -0.1104  0.6591  0.1685
17155TIP3    H172880   2.923   5.436   4.381  0.8914  0.3725  0.8026
17155TIP3    H272881   2.798   5.385   4.449 -0.0820  0.7841 -0.6283
17156TIP3   OH272882   4.431   3.584  14.901 -0.2689  0.5541  0.0724
17156TIP3    H172883   4.458   3.496  14.873 -0.2099  0.7662 -0.5767
17156TIP3    H272884   4.352   3.570  14.953 -0.6496  0.1612 -0.5849
17157TIP3   OH272885   4.272   0.808  16.471  0.5463 -0.0439  0.2022
17157TIP3    H172886   4.339   0.834  16.408  2.1024 -0.2590  1.7109
17157TIP3    H272887   4.262   0.884  16.528 -2.1571  0.8404 -1.2498
17158TIP3   OH272888   3.171   6.707   0.491  0.1851  0.3377  0.5403
17158TIP3    H172889   3.264   6.710   0.514 -0.1653  2.8736  1.9716
17158TIP3    H272890   3.127   6.690   0.575 -0.6813 -1.6467 -0.2396
17159TIP3   OH272891   6.228   2.403  12.155  0.2288 -0.4188 -0.9113
17159TIP3    H172892   6.270   2.317  12.144 -0.4697 -0.6233 -2.1791
17159TIP3    H272893   6.300   2.465  12.152  0.7236 -0.9384 -0.1946
17160TIP3   OH272894   5.559   1.416  17.281 -0.2608  0.2055 -0.1657
17160TIP3    H172895   5.533   1.417  17.189  1.1024  0.9593 -0.5573
17160TIP3    H272896   5.520   1.496  17.318  0.6279  0.8122 -0.5152
17161TIP3   OH272897   0.704   1.887  15.850  0.0387 -0.0263  0.1915
17161TIP3    H172898   0.651   1.811  15.824 -0.3259 -0.2912  1.6142
17161TIP3    H272899   0.648   1.935  15.910  0.5636  0.9675 -0.0987
17162TIP3   OH272900   3.408   0.526  15.168  0.3433 -0.2081 -0.1084
17162TIP3    H172901   3.355   0.605  15.180  0.4136 -0.2108  0.2344
17162TIP3    H272902   3.400   0.506  15.075  0.7808  0.5232 -0.3151
17163TIP3   OH272903   5.195   1.422  14.559  0.0914 -0.0727  0.2789
17163TIP3    H172904   5.195   1.473  14.478  2.3761  0.0224  0.2696
17163TIP3    H272905   5.104   1.397  14.572 -0.1661 -1.4612 -3.1703
17164TIP3   OH272906   5.106   4.160   0.717  0.0315 -0.2609  1.0063
17164TIP3    H172907   5.179   4.198   0.667 -0.2771 -1.0655 -0.1070
17164TIP3    H272908   5.038   4.145   0.651 -0.1089 -2.0494  1.4983
17165TIP3   OH272909   0.617   4.426   4.833 -0.1935  0.1862  0.0534
17165TIP3    H172910   0.588   4.494   4.894  0.0829  1.1426 -0.8610
17165TIP3    H272911   0.625   4.348   4.888  0.2366  1.0538  1.2934
17166TIP3   OH272912   6.295   4.346  13.234  0.0464  0.3177 -1.0498
17166TIP3    H172913   6.307   4.383  13.147  0.0736  0.8003 -0.8431
17166TIP3    H272914   6.239   4.270  13.220  1.2490 -0.5009 -1.6912
17167TIP3   OH272915   1.564   3.037  11.650 -0.5963 -0.0725 -0.2774
17167TIP3    H172916   1.598   2.948  11.645 -0.5622 -0.0629 -0.2235
17167TIP3    H272917   1.618   3.079  11.717 -1.0314 -0.1986  0.1578
17168TIP3   OH272918   2.585   0.064   1.918 -0.0770  0.1400  0.4080
17168TIP3    H172919   2.554   0.047   2.007  0.7601 -1.0556  0.5063
17168TIP3    H272920   2.511   0.105   1.873 -0.3494  1.2027  1.7829
17169TIP3   OH272921   1.210   5.090   3.508 -0.1691  0.1749 -0.9539
17169TIP3    H172922   1.243   5.011   3.467  3.4714 -1.6174  4.4506
17169TIP3    H272923   1.274   5.158   3.485 -0.3310  0.2293 -1.2614
17170TIP3   OH272924   4.433   3.165   4.744  0.0940  0.1558  0.3795
17170TIP3    H172925   4.482   3.190   4.666 -1.1317 -1.1345 -0.8900
17170TIP3    H272926   4.342   3.185   4.722 -0.0284  3.1196  2.9126
17171TIP3   OH272927   0.962   2.266  14.695  0.1357  0.0118 -0.1095
17171TIP3    H172928   1.016   2.311  14.630  0.5810 -0.8331 -0.3389
17171TIP3    H272929   0.880   2.315  14.696 -0.4537 -0.7892 -2.3950
17172TIP3   OH272930   0.940   6.553  10.923 -0.3617  0.5316 -0.2192
17172TIP3    H172931   1.008   6.593  10.869 -0.6388  1.2809 -0.0314
17172TIP3    H272932   0.987   6.507  10.992 -0.0304  0.4233 -0.5144
17173TIP3   OH272933   0.252   5.597  10.572  0.1124  0.4520 -0.8487
17173TIP3    H172934   0.279   5.524  10.517  1.8344  0.3108  0.1229
17173TIP3    H272935   0.168   5.569  10.610  0.3156 -0.6297 -1.1783
17174TIP3   OH272936   0.370   6.462  12.202  0.3949 -0.4062  0.2478
17174TIP3    H172937   0.430   6.387  12.194 -1.1433 -1.5829 -0.8137
17174TIP3    H272938   0.302   6.445  12.138 -0.9062  1.0638  1.1808
17175TIP3   OH272939   5.772   3.079  17.229 -0.3805 -0.3341  0.5501
17175TIP3    H172940   5.842   3.014  17.232 -0.6149 -0.7034 -1.1474
17175TIP3    H272941   5.736   3.079  17.318  2.1333  0.3054  1.6721
17176TIP3   OH272942   0.772   1.149   3.263 -0.3545  0.1066 -0.2602
17176TIP3    H172943   0.796   1.145   3.171 -0.3416 -0.1508 -0.2474
17176TIP3    H272944   0.849   1.184   3.307 -0.2788  0.0113 -0.3176
17177TIP3   OH272945   4.792   6.280   5.200 -0.1900  0.0399  0.3409
17177TIP3    H172946   4.721   6.341   5.180 -0.1185  0.3642  1.0577
17177TIP3    H272947   4.871   6.334   5.203  0.0758 -0.2881 -0.2574
17178TIP3   OH272948   3.809   6.165  10.622 -0.4042 -0.1367 -0.0599
17178TIP3    H172949   3.877   6.156  10.688 -2.1710  0.7430  2.0179
17178TIP3    H272950   3.842   6.232  10.562 -0.1738  1.7370  2.0153
17179TIP3   OH272951   3.601   2.096  12.236 -0.2791 -0.6825 -0.1616
17179TIP3    H172952   3.648   2.019  12.203  1.8763  0.7890 -0.7838
17179TIP3    H272953   3.602   2.086  12.331 -2.0015 -2.4412 -0.2528
17180TIP3   OH272954   0.827   5.354   4.002  0.6766 -0.4907  0.1945
17180TIP3    H172955   0.882   5.413   3.950  0.9160 -2.1122 -1.4523
17180TIP3    H272956   0.873   5.347   4.086  2.5265 -1.0775 -0.8216
17181TIP3   OH272957   6.417   0.578  12.458  0.2040  0.8895  0.5794
17181TIP3    H172958   6.340   0.540  12.500  1.1787 -0.3274  1.3377
17181TIP3    H272959   6.478   0.505  12.449  0.9059  1.6169 -0.9024
17182TIP3   OH272960   5.110   3.037   1.790 -0.0794 -0.2229 -0.7247
17182TIP3    H172961   5.016   3.050   1.796  0.1447  1.4999 -0.3488
17182TIP3    H272962   5.148   3.122   1.811  1.6231 -1.2585  0.7562
17183TIP3   OH272963   2.642   0.098  13.334  0.4414  0.6445 -0.6654
17183TIP3    H172964   2.663   0.188  13.356  1.5261  0.5203 -1.1110
17183TIP3    H272965   2.602   0.103  13.247 -1.1134  0.8455  0.0308
17184TIP3   OH272966   0.941   1.522   2.754 -0.5848 -0.1658  0.1750
17184TIP3    H172967   0.881   1.499   2.825  0.7041 -0.2140  1.2788
17184TIP3    H272968   0.996   1.445   2.744 -0.2901  0.1140 -0.4035
17185TIP3   OH272969   2.049   0.245   5.886  0.8321 -0.0255  0.3537
17185TIP3    H172970   2.110   0.171   5.890  0.4038 -0.3785  0.3829
17185TIP3    H272971   2.040   0.273   5.977  0.9165 -0.0021  0.3548
17186TIP3   OH272972   1.512   6.547  13.901  0.0480  0.7545  0.2355
17186TIP3    H172973   1.479   6.508  13.981  0.3920  0.5016  0.2547
17186TIP3    H272974   1.460   6.627  13.890 -2.2910 -0.8440 -1.0446
17187TIP3   OH272975   5.504   4.680  14.095  0.8585  0.3553  0.0804
17187TIP3    H172976   5.477   4.599  14.051  2.2488  0.3088 -0.7269
17187TIP3    H272977   5.512   4.655  14.187 -0.3326  0.0032  0.1039
17188TIP3   OH272978   5.227   6.512   2.043  0.3216 -0.1271  0.5789
17188TIP3    H172979   5.277   6.590   2.066  0.9276 -0.5723  0.8070
17188TIP3    H272980   5.250   6.496   1.951  0.1163  0.0193  0.5010
17189TIP3   OH272981   2.608   0.797   3.089 -0.3272 -0.3552 -0.1264
17189TIP3    H172982   2.601   0.858   3.016 -4.7456 -0.2542  0.0986
17189TIP3    H272983   2.624   0.852   3.166 -2.1516  0.4112 -0.2304
17190TIP3   OH272984   1.178   0.982   4.800  0.0189  0.4988 -0.0246
17190TIP3    H172985   1.177   0.919   4.728  0.7504 -0.8985  1.1348
17190TIP3    H272986   1.118   0.946   4.865 -1.0682  2.0326 -0.1310
17191TIP3   OH272987   2.032   0.863  16.739  0.6013  0.9419  0.2362
17191TIP3    H172988   1.983   0.909  16.671 -0.1321  0.2878  0.3054
17191TIP3    H272989   2.087   0.930  16.779 -1.1024  1.9799  0.9354
17192TIP3   OH272990   6.613   4.214  11.052 -0.2167 -0.0442 -0.6031
17192TIP3    H172991   6.573   4.129  11.031  0.0445 -0.6764  1.2637
17192TIP3    H272992   6.562   4.277  11.002 -1.0857 -1.2029 -1.2370
17193TIP3   OH272993   6.301   2.254  12.962  0.4435 -0.8473  0.6037
17193TIP3    H172994   6.230   2.254  13.026  0.3799 -1.0601  0.5335
17193TIP3    H272995   6.309   2.162  12.935  1.8296 -1.1229  1.8101
17194TIP3   OH272996   1.439   5.193   3.731  0.1778 -0.2295 -0.3104
17194TIP3    H172997   1.419   5.285   3.748 -3.7920 -0.4642 -2.4144
17194TIP3    H272998   1.474   5.192   3.642  2.4359 -0.6534  0.5174
17195TIP3   OH272999   6.009   5.824   3.128 -0.0221  0.2706 -0.5244
17195TIP3    H173000   5.915   5.838   3.132 -0.1779  0.2015 -2.9136
17195TIP3    H273001   6.046   5.910   3.110  0.4841  0.4497  1.1908
17196TIP3   OH273002   5.788   6.167   1.054 -0.2539  0.0267 -0.4249
17196TIP3    H173003   5.808   6.177   1.147 -0.1062  1.2934 -0.5738
17196TIP3    H273004   5.699   6.132   1.052 -0.1991 -0.1556  0.1922
17197TIP3   OH273005   4.486   0.459   5.488  0.3729 -0.9022 -0.5185
17197TIP3    H173006   4.482   0.554   5.486  1.2443 -0.8293 -3.5148
17197TIP3    H273007   4.579   0.438   5.474  0.1141 -2.1945 -0.4662
17198TIP3   OH273008   6.506   3.705  16.925 -0.7744  0.1288  0.3884
17198TIP3    H173009   6.600   3.718  16.933 -0.3659 -2.4435  0.4676
17198TIP3    H273010   6.483   3.742  16.840  0.4443  0.0960  0.0301
17199TIP3   OH273011   6.002   5.624  16.372  0.7114  0.7491  0.2036
17199TIP3    H173012   5.964   5.649  16.456 -1.8533 -0.2811 -0.5408
17199TIP3    H273013   5.963   5.538  16.352  3.2101 -0.2311 -0.8853
17200TIP3   OH273014   4.104   2.725  11.138  0.0713 -0.6939 -0.3273
17200TIP3    H173015   4.087   2.775  11.058  1.1538 -0.7376 -0.5874
17200TIP3    H273016   4.097   2.789  11.208  0.7589 -0.3126 -0.6029
17201TIP3   OH273017   3.510   5.196  16.963 -0.2729  0.6617  0.2066
17201TIP3    H173018   3.584   5.145  16.996 -0.8243  0.2409  0.8068
17201TIP3    H273019   3.479   5.145  16.888 -0.2260  0.6139  0.2195
17202TIP3   OH273020   1.145   6.120  12.209  0.1984  0.5778 -0.0604
17202TIP3    H173021   1.138   6.181  12.135  1.8273 -0.2485 -0.9661
17202TIP3    H273022   1.173   6.038  12.169 -1.3296 -0.6176  1.2068
17203TIP3   OH273023   6.653   0.073  15.072  0.0334 -0.1603  0.0980
17203TIP3    H173024   6.698   0.097  14.991 -0.7470 -0.2937 -0.3805
17203TIP3    H273025   6.590   0.006  15.046 -0.1502 -0.2838  0.8329
17204TIP3   OH273026   5.710   0.220  14.144 -0.1918  0.2659  0.2155
17204TIP3    H173027   5.647   0.289  14.124  0.8184  1.1114 -0.1624
17204TIP3    H273028   5.734   0.184  14.059  0.2860  0.3795  0.2971
17205TIP3   OH273029   3.590   5.837  12.636  0.4209 -0.3640 -0.8314
17205TIP3    H173030   3.506   5.801  12.611 -0.2506 -1.5405  2.5216
17205TIP3    H273031   3.649   5.761  12.637  0.8827 -0.0090 -0.7600
17206TIP3   OH273032   2.078   1.591  15.821 -0.1122  0.1168  0.1875
17206TIP3    H173033   2.079   1.548  15.736  0.6519  0.0323  0.2280
17206TIP3    H273034   2.013   1.543  15.872  1.4141 -1.6840  0.5697
17207TIP3   OH273035   0.071   3.999  13.449 -0.2952  0.1466  0.2531
17207TIP3    H173036   0.163   3.978  13.433 -0.2727  0.6203 -0.2673
17207TIP3    H273037   0.073   4.079  13.501 -0.3842 -1.0115  2.1306
17208TIP3   OH273038   4.869   5.290   0.320  0.5834 -0.4756  0.0217
17208TIP3    H173039   4.774   5.282   0.305  0.1923  1.2605  1.1881
17208TIP3    H273040   4.875   5.337   0.404  2.4929 -1.3587  0.4172
17209TIP3   OH273041   3.440   4.311   5.010 -0.2168  0.2927  0.2102
17209TIP3    H173042   3.369   4.264   5.052 -0.7129 -0.4970 -1.4216
17209TIP3    H273043   3.503   4.244   4.985 -0.7657  0.4696 -1.8297
17210TIP3   OH273044   3.025   5.832   1.104 -0.4565 -0.3230  0.1007
17210TIP3    H173045   3.061   5.892   1.170  0.0779 -0.2025 -0.2875
17210TIP3    H273046   3.086   5.759   1.102 -0.6938 -0.5203  0.0273
17211TIP3   OH273047   3.820   4.176   5.453 -0.1803 -0.1612  0.5104
17211TIP3    H173048   3.740   4.125   5.461 -1.0122  0.9998 -0.1371
17211TIP3    H273049   3.846   4.167   5.361  0.7151 -0.9084  0.8167
17212TIP3   OH273050   2.264   4.685   5.660 -0.2541 -0.2868  0.1352
17212TIP3    H173051   2.238   4.776   5.674 -0.7645 -0.0759 -1.9666
17212TIP3    H273052   2.183   4.635   5.669 -0.2821 -0.3373 -0.3944
17213TIP3   OH273053   5.325   2.875  12.821 -0.7540 -0.1038 -0.6357
17213TIP3    H173054   5.299   2.911  12.905  0.3706  0.9980 -0.7307
17213TIP3    H273055   5.365   2.948  12.775  0.5585 -1.2003 -1.3064
17214TIP3   OH273056   5.895   5.373   5.064  0.0876  0.1614  0.1556
17214TIP3    H173057   5.803   5.386   5.084  0.2407 -1.1955  1.8501
17214TIP3    H273058   5.911   5.431   4.989 -1.6886  1.7732  0.9395
17215TIP3   OH273059   6.599   5.723   3.097 -0.2425  0.1298 -0.1623
17215TIP3    H173060   6.520   5.743   3.046  0.6125  1.1571 -1.1409
17215TIP3    H273061   6.585   5.766   3.181  0.0059  1.8179 -0.9521
17216TIP3   OH273062   6.007   3.087   3.564 -0.7317  0.1708  0.2685
17216TIP3    H173063   6.036   3.034   3.490 -0.9583  2.1172 -1.2743
17216TIP3    H273064   5.911   3.086   3.558 -0.7809 -0.2307  0.9777
17217TIP3   OH273065   3.960   5.940   2.942 -0.6102  0.1507  0.6371
17217TIP3    H173066   3.908   5.950   3.022  1.0103  1.5874  1.5908
17217TIP3    H273067   3.957   5.847   2.922 -1.0681 -0.2438  2.3868
17218TIP3   OH273068   1.225   3.870  12.379  0.0700  0.3245 -0.4365
17218TIP3    H173069   1.171   3.911  12.446 -2.2107 -1.2985 -1.1744
17218TIP3    H273070   1.231   3.778  12.406  0.2598 -0.0657 -1.7555
17219TIP3   OH273071   1.464   3.487  17.153 -0.6571  0.4104 -0.2720
17219TIP3    H173072   1.426   3.533  17.078 -3.2301 -1.3931 -0.2325
17219TIP3    H273073   1.389   3.442  17.193  1.2400 -1.6237  1.2211
17220TIP3   OH273074   4.651   2.224   3.475  0.2869 -0.2404 -0.3843
17220TIP3    H173075   4.667   2.276   3.396  0.0422  0.3397 -0.0626
17220TIP3    H273076   4.563   2.250   3.503  1.2811  1.4170  1.4352
17221TIP3   OH273077   0.921   2.113  15.765 -0.2849 -0.2499  0.1504
17221TIP3    H173078   0.980   2.061  15.711  0.0539  0.5701 -0.2825
17221TIP3    H273079   0.841   2.061  15.771 -0.0958 -0.6293 -0.6171
17222TIP3   OH273080   3.467   6.493   4.790  0.4718 -0.6913 -1.0195
17222TIP3    H173081   3.372   6.478   4.787 -0.0152  1.2163  1.1030
17222TIP3    H273082   3.489   6.483   4.883  2.2207 -0.4219 -1.3830
17223TIP3   OH273083   0.199   4.462   0.153  0.6410 -0.3891  0.7038
17223TIP3    H173084   0.166   4.373   0.156  1.2688 -0.6521  0.1673
17223TIP3    H273085   0.212   4.481   0.060  2.2478 -0.4205  0.8798
17224TIP3   OH273086   5.834   5.722  14.191  0.7743  0.4025 -0.0740
17224TIP3    H173087   5.826   5.732  14.096  0.8813 -1.7631 -0.3658
17224TIP3    H273088   5.826   5.628  14.206 -2.0732  0.8964  2.3824
17225TIP3   OH273089   2.693   4.685  12.756 -0.4855 -0.3765 -0.4304
17225TIP3    H173090   2.772   4.633  12.740  0.5433  0.4285  1.6415
17225TIP3    H273091   2.719   4.774  12.730 -1.1490 -0.3285 -0.9347
17226TIP3   OH273092   4.474   3.040   6.150 -0.0200  0.2743 -0.5438
17226TIP3    H173093   4.521   3.114   6.112  2.0496 -1.6461 -1.9846
17226TIP3    H273094   4.511   3.030   6.238  1.7379 -0.6852 -1.3535
17227TIP3   OH273095   2.464   0.758   3.394  0.5934  0.0978 -0.1126
17227TIP3    H173096   2.489   0.769   3.486  0.8212  0.9249 -0.2665
17227TIP3    H273097   2.547   0.753   3.347  0.5684  2.7929 -0.6196
17228TIP3   OH273098   6.542   0.326  12.400  0.1510 -0.6672  0.1756
17228TIP3    H173099   6.604   0.294  12.335  0.1936 -1.0163  0.3881
17228TIP3    H273100   6.486   0.251  12.420 -2.3725  0.3681 -2.2993
17229TIP3   OH273101   1.097   5.456   3.944  0.1964 -0.0093 -0.1548
17229TIP3    H173102   1.111   5.362   3.942  1.2555  0.1523 -0.6626
17229TIP3    H273103   1.128   5.484   4.030 -0.9851 -0.2331  0.3713
17230TIP3   OH273104   2.949   6.003   2.625  0.1309  0.1161  0.3624
17230TIP3    H173105   3.040   6.028   2.641  0.4222 -0.1831 -0.7660
17230TIP3    H273106   2.951   5.908   2.616 -0.3037  0.1026  0.3962
17231TIP3   OH273107   2.403   0.465  10.787 -0.2390  0.4890  0.5949
17231TIP3    H173108   2.405   0.537  10.723  0.8991  0.6769  0.8224
17231TIP3    H273109   2.345   0.400  10.748  0.5545  0.5368 -0.7320
17232TIP3   OH273110   1.448   1.626   5.440  0.1252 -0.3454 -0.5139
17232TIP3    H173111   1.525   1.584   5.478  0.0965  1.0596  1.2350
17232TIP3    H273112   1.442   1.710   5.486 -0.1748  1.3291 -3.4061
17233TIP3   OH273113   4.563   6.498   1.304 -0.8258  0.1117 -0.1488
17233TIP3    H173114   4.570   6.415   1.353  1.2288 -0.3978 -1.1924
17233TIP3    H273115   4.617   6.484   1.227 -0.8898  2.2702 -0.6279
17234TIP3   OH273116   3.825   2.127   3.149  0.0977 -0.1783 -0.2885
17234TIP3    H173117   3.874   2.208   3.139 -0.2414  0.2276  1.1117
17234TIP3    H273118   3.784   2.113   3.064 -0.4905  1.5586 -0.3274
17235TIP3   OH273119   0.201   5.592  12.081  0.5747 -0.4012  0.1654
17235TIP3    H173120   0.159   5.639  12.154  0.3529  2.0660 -1.4266
17235TIP3    H273121   0.128   5.558  12.030  0.5497  0.9851 -0.7827
17236TIP3   OH273122   0.624   5.480  15.847 -0.0278  0.0875 -0.5222
17236TIP3    H173123   0.557   5.549  15.842 -0.0458  0.0637 -0.6207
17236TIP3    H273124   0.661   5.488  15.935 -0.1434  0.1160 -0.4766
17237TIP3   OH273125   6.536   3.092   4.646 -0.0818 -0.5534 -0.4159
17237TIP3    H173126   6.480   3.015   4.656 -0.9860 -0.1542 -1.9366
17237TIP3    H273127   6.509   3.129   4.561  1.8566  0.1913 -0.7447
17238TIP3   OH273128   4.631   4.684   1.199  0.4198  0.2990 -0.2222
17238TIP3    H173129   4.553   4.637   1.230 -0.5245  1.7936 -0.2488
17238TIP3    H273130   4.704   4.633   1.234 -0.5781 -0.0868  1.4161
17239TIP3   OH273131   3.993   3.635   1.121 -0.3460  0.5854  0.1451
17239TIP3    H173132   4.050   3.581   1.174  2.9148  1.5462 -2.0655
17239TIP3    H273133   3.921   3.577   1.095  0.4836 -1.2133  1.6655
17240TIP3   OH273134   3.739   3.151  15.634  0.2718  0.2518  0.0844
17240TIP3    H173135   3.783   3.069  15.657  0.0782  0.2195  0.3381
17240TIP3    H273136   3.810   3.215  15.631  0.4541  0.0384 -0.3174
17241TIP3   OH273137   3.732   5.156  14.413 -0.0441  0.5329  0.5960
17241TIP3    H173138   3.767   5.069  14.395  0.1831  0.6984  0.2256
17241TIP3    H273139   3.768   5.211  14.344  0.4877  1.0973  1.3150
17242TIP3   OH273140   0.155   0.065   0.349  0.3140  0.1322  0.1805
17242TIP3    H173141   0.201   0.039   0.269  1.9725  3.9996 -0.3290
17242TIP3    H273142   0.079   0.113   0.318  0.3645  0.7061  0.9207
17243TIP3   OH273143   4.566   5.230   5.021 -0.6283  0.3096 -0.3261
17243TIP3    H173144   4.559   5.199   4.931 -2.7081  0.7302 -0.3608
17243TIP3    H273145   4.564   5.150   5.074  1.0835  0.0311 -0.6386
17244TIP3   OH273146   3.132   0.056   4.813 -0.4902 -0.0194 -0.0579
17244TIP3    H173147   3.178  -0.005   4.871  0.5491  0.0442 -0.7764
17244TIP3    H273148   3.202   0.098   4.762 -1.2974  0.6676 -0.6327
17245TIP3   OH273149   4.148   5.195  17.050 -0.1825 -0.3370  0.4238
17245TIP3    H173150   4.227   5.232  17.011 -0.4626 -0.1108  0.0598
17245TIP3    H273151   4.178   5.148  17.127  0.3493 -0.5587  0.0818
17246TIP3   OH273152   3.353   3.830  13.229 -0.1506  0.0678 -0.0332
17246TIP3    H173153   3.262   3.853  13.209  0.4876  1.5343 -1.4551
17246TIP3    H273154   3.346   3.771  13.304 -2.2531  0.3851  0.0986
17247TIP3   OH273155   6.087   2.661   5.490 -0.3962  0.2829  0.0061
17247TIP3    H173156   6.066   2.600   5.419 -1.0512 -1.2231  1.4206
17247TIP3    H273157   6.008   2.715   5.499 -1.4260 -1.3609  1.3470
17248TIP3   OH273158   3.880   1.294  16.896  0.1198 -0.1196  0.8128
17248TIP3    H173159   3.951   1.356  16.879  0.4564 -0.6420  0.2856
17248TIP3    H273160   3.807   1.349  16.926 -0.9843  1.1155 -3.4351
17249TIP3   OH273161   1.163   6.081   2.672  0.2863  0.3056 -0.4732
17249TIP3    H173162   1.105   6.134   2.726  0.9389  1.3678 -0.7998
17249TIP3    H273163   1.221   6.037   2.734 -0.3765 -0.1930 -0.1923
17250TIP3   OH273164   6.631   6.060  11.432  0.8375  0.2774  0.0526
17250TIP3    H173165   6.613   6.124  11.363  2.4032  0.9961  0.2586
17250TIP3    H273166   6.683   6.108  11.496 -0.1825 -0.5092  1.5140
17251TIP3   OH273167   0.076   1.241  13.922 -0.3406  0.3660 -0.2353
17251TIP3    H173168   0.129   1.304  13.971  1.0299 -0.0762 -1.0910
17251TIP3    H273169   0.136   1.170  13.901 -0.8910  0.4658 -2.4134
17252TIP3   OH273170   0.445   1.336   5.304 -0.4065 -0.4383  0.3550
17252TIP3    H173171   0.378   1.395   5.271 -0.5065 -0.2425  0.9069
17252TIP3    H273172   0.397   1.267   5.348 -0.2810 -0.8272 -0.1058
17253TIP3   OH273173   3.984   0.835   4.029  0.1190 -0.0818  0.0895
17253TIP3    H173174   3.889   0.841   4.040  0.1498 -0.0748  0.3448
17253TIP3    H273175   3.998   0.749   3.989 -0.0526  0.2046 -0.6142
17254TIP3   OH273176   2.207   4.874  12.265 -0.8485  0.0436 -0.3687
17254TIP3    H173177   2.149   4.819  12.211 -2.4325  0.0880  1.1768
17254TIP3    H273178   2.278   4.815  12.290 -2.3014 -1.2726  0.9187
17255TIP3   OH273179   1.206   3.764   0.274  0.2591  0.6680 -0.4453
17255TIP3    H173180   1.268   3.812   0.328  0.4436 -0.7939  0.7161
17255TIP3    H273181   1.130   3.750   0.331 -0.8040  1.6833 -1.5662
17256TIP3   OH273182   3.033   3.200  12.685  0.6061  0.3445 -0.4576
17256TIP3    H173183   2.955   3.150  12.660  0.2035  1.0090 -0.5636
17256TIP3    H273184   3.026   3.281  12.635  0.4266  1.1818  0.8487
17257TIP3   OH273185   1.332   0.403  15.278 -0.0344 -0.0551  0.3232
17257TIP3    H173186   1.357   0.496  15.281 -1.0067  0.3479 -1.9431
17257TIP3    H273187   1.399   0.363  15.223 -0.2281 -0.4891  0.4021
17258TIP3   OH273188   0.138   3.259  12.235 -0.3552 -0.3575  0.2990
17258TIP3    H173189   0.065   3.319  12.217 -0.8873 -0.8348  0.8321
17258TIP3    H273190   0.113   3.213  12.315  0.5458 -0.5194  0.5046
17259TIP3   OH273191   1.506   5.997   4.564 -0.5532 -0.1258 -0.3234
17259TIP3    H173192   1.592   5.974   4.529 -1.9962 -2.3341 -2.8327
17259TIP3    H273193   1.447   5.931   4.528 -3.0064 -0.1455  3.1474
17260TIP3   OH273194   4.291   2.470   2.580  0.0019  0.3843  0.3009
17260TIP3    H173195   4.239   2.394   2.553  0.7861  0.5440 -1.8540
17260TIP3    H273196   4.317   2.449   2.670  0.6683 -2.2177 -0.3883
17261TIP3   OH273197   4.989   0.176  12.893 -0.0137  0.4339 -0.5448
17261TIP3    H173198   5.033   0.209  12.815  0.8741 -0.2507 -0.3550
17261TIP3    H273199   4.905   0.142  12.861  0.1892  0.4829 -1.1450
17262TIP3   OH273200   1.928   6.107  11.560  0.5797 -0.3181  0.2262
17262TIP3    H173201   1.867   6.078  11.628  0.7132  1.2243  1.0500
17262TIP3    H273202   1.986   6.031  11.546 -0.1379 -1.0368  1.0280
17263TIP3   OH273203   3.873   5.268  14.221 -0.0889  0.2863 -0.4771
17263TIP3    H173204   3.954   5.218  14.233 -0.5960 -0.2818  0.8682
17263TIP3    H273205   3.898   5.359  14.237  0.0705 -0.0235  1.2550
17264TIP3   OH273206   2.410   2.992   5.557 -0.1027 -0.4296 -0.3884
17264TIP3    H173207   2.469   2.947   5.617 -1.4422 -1.1404  0.4598
17264TIP3    H273208   2.325   2.992   5.602 -0.7309  0.6579 -1.4997
17265TIP3   OH273209   4.538   1.625   2.067 -0.5467  1.1012  0.0773
17265TIP3    H173210   4.573   1.544   2.105  0.3274  1.1206 -0.6313
17265TIP3    H273211   4.611   1.687   2.072 -1.4319  2.0874  1.2740
17266TIP3   OH273212   4.931   0.095  13.855 -0.1335  0.5441  0.0769
17266TIP3    H173213   5.014   0.119  13.898 -0.9418  3.8077  0.1175
17266TIP3    H273214   4.920   0.162  13.787 -1.2072 -1.7251 -2.1676
17267TIP3   OH273215   1.651   2.127   4.089  0.4969 -0.4803 -0.3463
17267TIP3    H173216   1.596   2.126   4.011 -0.4260 -1.0159  0.2934
17267TIP3    H273217   1.596   2.089   4.158  0.4180  2.1986  1.1749
17268TIP3   OH273218   3.109   4.061   0.159  0.1588 -0.2154 -0.1580
17268TIP3    H173219   3.178   4.098   0.104  0.7363  1.2946  1.4825
17268TIP3    H273220   3.030   4.064   0.105  1.3157 -2.0689 -2.1193
17269TIP3   OH273221   1.120   5.214   2.615 -0.5745 -0.6313  0.7953
17269TIP3    H173222   1.093   5.298   2.576 -2.0580 -1.2082  0.5310
17269TIP3    H273223   1.083   5.148   2.556 -1.4972 -1.5067  2.3172
17270TIP3   OH273224   3.233   4.606  14.984 -0.3353  0.5243  0.2861
17270TIP3    H173225   3.259   4.586  14.894 -2.0435 -1.5905  0.1743
17270TIP3    H273226   3.306   4.573  15.037 -0.4605 -0.6138 -0.2235
17271TIP3   OH273227   3.908   0.668  12.884  0.2765 -0.5394 -0.1761
17271TIP3    H173228   3.922   0.760  12.904 -0.8634 -0.4856  0.4724
17271TIP3    H273229   3.996   0.631  12.879  0.7745  0.7012 -1.0968
17272TIP3   OH273230   1.437   0.464   5.912  0.2695  0.3696  0.0662
17272TIP3    H173231   1.449   0.432   6.002  2.0051  1.2538  0.1903
17272TIP3    H273232   1.354   0.512   5.915 -1.8005 -2.8933  0.1568
17273TIP3   OH273233   2.633   1.066   0.063 -0.4312  0.1441  0.2537
17273TIP3    H173234   2.716   1.072   0.110 -0.9018  3.2499  0.9184
17273TIP3    H273235   2.568   1.048   0.132 -0.6461  0.8440  0.2474
17274TIP3   OH273236   5.483   0.648  13.593 -0.2097  0.0981 -0.0224
17274TIP3    H173237   5.502   0.655  13.687  2.3373 -0.3874 -0.4298
17274TIP3    H273238   5.568   0.660  13.550 -0.8564 -2.1389 -2.1591
17275TIP3   OH273239   4.478   1.038   2.992  0.4593  0.0666  0.0804
17275TIP3    H173240   4.553   0.978   2.984 -0.3050 -0.7779 -1.0709
17275TIP3    H273241   4.405   0.980   3.016  0.0078  0.7719  0.4260
17276TIP3   OH273242   4.368   6.300   5.488  0.1830 -0.0314  0.0318
17276TIP3    H173243   4.447   6.258   5.455  1.1980  0.5082  1.6561
17276TIP3    H273244   4.381   6.393   5.468  0.1378  0.1053  0.6275
17277TIP3   OH273245   1.649   6.671   4.128  0.7215  0.0476 -0.2042
17277TIP3    H173246   1.737   6.692   4.159  0.0803  0.6906  1.2968
17277TIP3    H273247   1.620   6.750   4.082  0.7862 -0.0271 -0.3742
17278TIP3   OH273248   3.749   5.702   2.407 -0.2657  0.8789 -0.1889
17278TIP3    H173249   3.712   5.788   2.389 -0.0734  1.1388  0.6195
17278TIP3    H273250   3.830   5.720   2.454 -0.9384  0.2569  1.3109
17279TIP3   OH273251   3.847   0.491   4.453 -0.2370 -0.3684 -0.2093
17279TIP3    H173252   3.913   0.537   4.505 -1.1196 -0.0956  0.6773
17279TIP3    H273253   3.781   0.462   4.516 -1.2555 -0.1592 -1.1434
17280TIP3   OH273254   2.307   4.007   1.111  0.4817 -0.5520  0.2311
17280TIP3    H173255   2.234   3.949   1.128  0.7383 -0.8350  0.3687
17280TIP3    H273256   2.286   4.087   1.160  1.3364 -1.4498  2.1133
17281TIP3   OH273257   5.336   3.546   6.292 -0.3777  0.1271 -0.4277
17281TIP3    H173258   5.247   3.522   6.317 -0.0762  0.8730  1.5679
17281TIP3    H273259   5.338   3.641   6.298  0.5727  0.1193 -0.3485
17282TIP3   OH273260   4.818   3.930  14.949  0.9162  0.5381  0.9118
17282TIP3    H173261   4.905   3.961  14.924 -0.2027  3.2419  0.1092
17282TIP3    H273262   4.795   3.867  14.880  1.0313  2.1438 -0.6796
17283TIP3   OH273263   6.442   1.658   3.423  0.4770 -0.1607  0.7201
17283TIP3    H173264   6.457   1.564   3.412  0.3034 -0.1555  0.4189
17283TIP3    H273265   6.389   1.683   3.347 -0.2511  0.0004  1.2642
17284TIP3   OH273266   4.248   3.918  15.222 -0.1771 -0.0537  0.3222
17284TIP3    H173267   4.341   3.897  15.217 -0.3380 -0.6030 -0.7749
17284TIP3    H273268   4.241   4.006  15.185 -0.0742  0.0396  0.5261
17285TIP3   OH273269   4.120   4.372  14.707  0.7822 -0.0482 -0.1244
17285TIP3    H173270   4.215   4.370  14.700  0.7664  0.1695 -0.4300
17285TIP3    H273271   4.098   4.465  14.701  0.7035  0.1292  2.1174
17286TIP3   OH273272   0.469   0.909   0.450 -0.0257 -0.5475  0.5983
17286TIP3    H173273   0.378   0.878   0.449 -0.1646 -0.1584 -0.6710
17286TIP3    H273274   0.465   0.995   0.408  0.6427  0.3921  2.3442
17287TIP3   OH273275   2.930   5.360   3.795  0.0952 -0.2767 -0.0483
17287TIP3    H173276   2.905   5.364   3.703 -0.3044  0.1234  0.0707
17287TIP3    H273277   2.893   5.440   3.833 -2.0333 -1.6670  1.0123
17288TIP3   OH273278   2.784   0.484  12.569 -0.5033 -0.1804 -0.2880
17288TIP3    H173279   2.847   0.414  12.552 -0.7307 -0.6938  0.8763
17288TIP3    H273280   2.829   0.564  12.542 -1.0500 -0.8838 -3.8546
17289TIP3   OH273281   6.093   2.857   1.149  0.4384 -0.3563  0.1344
17289TIP3    H173282   6.024   2.825   1.091  1.5597  0.7761 -1.9162
17289TIP3    H273283   6.046   2.912   1.213 -0.7436 -0.9945 -0.1483
17290TIP3   OH273284   0.780   3.986   3.143  0.5509  0.1316  0.1436
17290TIP3    H173285   0.780   3.947   3.231  1.1612  0.4456  0.2887
17290TIP3    H273286   0.840   4.060   3.150  0.5631  0.1877 -0.5260
17291TIP3   OH273287   5.636   4.442  15.064 -0.1557  0.0105 -0.0676
17291TIP3    H173288   5.633   4.461  14.971 -2.6702  0.2979  0.0129
17291TIP3    H273289   5.561   4.489  15.101  1.4847  0.9571  2.3211
17292TIP3   OH273290   2.231   1.179  10.571 -0.1744 -0.3111  0.2312
17292TIP3    H173291   2.173   1.135  10.509  0.4888  0.6753 -1.1523
17292TIP3    H273292   2.311   1.127  10.570  0.4031  0.5573 -0.9715
17293TIP3   OH273293   4.531   2.450   2.079 -0.0280  0.0862 -0.1514
17293TIP3    H173294   4.493   2.434   1.993  0.2836 -0.6686 -0.1582
17293TIP3    H273295   4.456   2.451   2.138 -0.3161  1.3420 -0.5185
17294TIP3   OH273296   3.965   1.675  12.183 -0.1724  0.5162  0.4103
17294TIP3    H173297   4.035   1.690  12.246  0.6494 -1.1635 -0.0524
17294TIP3    H273298   3.918   1.599  12.217 -0.5182  0.3971 -0.3234
17295TIP3   OH273299   3.901   4.856  14.059 -0.1409 -0.4463 -0.2195
17295TIP3    H173300   3.949   4.782  14.097 -1.3462 -2.1867 -1.8323
17295TIP3    H273301   3.887   4.830  13.968  1.9497  3.1495 -1.7648
17296TIP3   OH273302   0.121   0.872   2.349 -0.0863 -0.4991 -0.0680
17296TIP3    H173303   0.046   0.851   2.293 -1.1723 -0.2401  1.2271
17296TIP3    H273304   0.180   0.798   2.339 -0.8907 -1.1003 -0.5200
17297TIP3   OH273305   3.705   1.519   4.260  0.5198  0.3996  0.3364
17297TIP3    H173306   3.628   1.495   4.208  0.2729  0.7635  0.5255
17297TIP3    H273307   3.769   1.451   4.241  0.9587  1.2626 -1.5864
17298TIP3   OH273308   1.619   5.338  16.333  0.0144 -0.7887 -0.1499
17298TIP3    H173309   1.557   5.267  16.352 -1.3974  0.5594  0.5637
17298TIP3    H273310   1.690   5.326  16.396 -1.7373  0.1764  2.1409
17299TIP3   OH273311   5.727   1.060   3.259  0.4911  0.2990 -0.3268
17299TIP3    H173312   5.661   1.006   3.303 -0.1739  0.8934 -0.5719
17299TIP3    H273313   5.786   1.087   3.329 -1.3519  2.4198  0.5529
17300TIP3   OH273314   3.020   4.194   5.518 -0.0851  0.4056  0.3793
17300TIP3    H173315   2.997   4.120   5.574  2.0961 -2.0728 -1.7462
17300TIP3    H273316   2.959   4.188   5.444  2.0554 -1.4070 -1.3887
17301TIP3   OH273317   4.545   1.178  15.829  0.1283 -0.2739 -0.3900
17301TIP3    H173318   4.455   1.162  15.798 -0.0677  1.8235 -1.0907
17301TIP3    H273319   4.600   1.142  15.760 -0.2277 -0.0691 -0.7890
17302TIP3   OH273320   2.082   0.540  13.442  0.1682 -0.5629  0.2965
17302TIP3    H173321   2.158   0.538  13.501  1.1725  0.9608 -0.8435
17302TIP3    H273322   2.117   0.509  13.359 -0.1561  1.1152 -0.5074
17303TIP3   OH273323   6.032   0.597  11.297 -0.2053 -0.1572 -0.3903
17303TIP3    H173324   6.051   0.670  11.238 -1.0574 -0.8013 -1.5080
17303TIP3    H273325   5.970   0.633  11.361  0.1791  0.3588 -0.2999
17304TIP3   OH273326   5.580   0.596  11.141 -0.7447  0.1154  0.0828
17304TIP3    H173327   5.554   0.548  11.220 -0.7876 -0.1464 -0.0892
17304TIP3    H273328   5.662   0.555  11.114 -0.6030  0.3650  0.1276
17305TIP3   OH273329   3.538   6.234   5.389  0.3795  0.1736 -0.4171
17305TIP3    H173330   3.447   6.253   5.369  0.4585 -0.8204 -1.8667
17305TIP3    H273331   3.544   6.139   5.390  1.1151  0.2120  1.1339
17306TIP3   OH273332   6.502   0.580   3.589 -0.5240  0.6537 -0.0227
17306TIP3    H173333   6.513   0.485   3.593 -1.6420  0.5408  3.4932
17306TIP3    H273334   6.586   0.615   3.619  0.2107  0.9214 -2.1752
17307TIP3   OH273335   5.659   3.173   5.676  0.2145  0.0714  0.8045
17307TIP3    H173336   5.740   3.151   5.723  0.9818 -0.2761 -0.6372
17307TIP3    H273337   5.638   3.094   5.627  0.6291  1.1012 -1.1095
17308TIP3   OH273338   2.144   1.822  11.978  0.8129  0.4290 -0.6478
17308TIP3    H173339   2.126   1.728  11.973  1.4178  0.1425  1.4371
17308TIP3    H273340   2.059   1.862  11.998  0.9527 -0.0076  1.0080
17309TIP3   OH273341   3.487   0.855  11.911 -0.4740  0.2737 -0.1676
17309TIP3    H173342   3.572   0.833  11.874 -0.6789  1.2430 -1.2770
17309TIP3    H273343   3.507   0.904  11.991 -0.0047 -0.1696 -0.0105
17310TIP3   OH273344   4.704   2.524   0.732  0.0224  0.4355  0.1149
17310TIP3    H173345   4.702   2.620   0.743  1.4383  0.3035  2.0614
17310TIP3    H273346   4.786   2.508   0.686  1.0043  0.0624  1.8884
17311TIP3   OH273347   4.558   6.420   0.676  0.1365 -0.6147  0.3640
17311TIP3    H173348   4.478   6.471   0.665 -0.1399 -0.8400  1.2140
17311TIP3    H273349   4.536   6.355   0.743  0.7088 -1.3648 -0.1579
17312TIP3   OH273350   3.824   1.216   0.907  0.2577 -0.1678 -0.0765
17312TIP3    H173351   3.735   1.245   0.923  0.0332 -0.2730 -1.0759
17312TIP3    H273352   3.836   1.141   0.966  0.4165  1.1140  1.5736
17313TIP3   OH273353   2.762   3.450  16.501  0.4546 -1.0120  0.6715
17313TIP3    H173354   2.836   3.397  16.532 -0.2420 -1.9277  0.8036
17313TIP3    H273355   2.749   3.422  16.411  0.1199 -1.0227  0.7237
17314TIP3   OH273356   4.488   0.148  12.437  0.2739 -0.3092 -0.1584
17314TIP3    H173357   4.444   0.174  12.518 -1.3073  2.7997 -1.7935
17314TIP3    H273358   4.571   0.195  12.438 -0.0608  0.3061 -0.6150
17315TIP3   OH273359   3.566   4.628   4.163 -0.3843  0.3265  0.2526
17315TIP3    H173360   3.516   4.710   4.160 -1.2535 -0.0909  2.0096
17315TIP3    H273361   3.648   4.652   4.207 -0.2335  0.4332 -0.0823
17316TIP3   OH273362   6.703   0.921  11.293  0.3968  0.5241  0.3026
17316TIP3    H173363   6.646   0.847  11.272  0.4676  1.2976 -3.3228
17316TIP3    H273364   6.778   0.910  11.234  0.6132  3.1949 -0.0470
17317TIP3   OH273365   4.222   3.292   0.458  0.5389  0.1852 -0.1375
17317TIP3    H173366   4.276   3.359   0.416  0.0023  1.3768  0.9887
17317TIP3    H273367   4.165   3.260   0.388  1.1910  0.4839 -0.8270
17318TIP3   OH273368   2.632   4.327   3.169 -0.1741  0.1052 -0.0125
17318TIP3    H173369   2.548   4.291   3.141  0.3712 -0.0946 -1.5473
17318TIP3    H273370   2.697   4.280   3.116  0.7884  1.2367  0.1042
17319TIP3   OH273371   3.220   0.490  12.446  0.6956  0.3422 -0.4937
17319TIP3    H173372   3.287   0.429  12.414  0.4502 -0.4206  0.3973
17319TIP3    H273373   3.216   0.474  12.540 -0.3776  0.7386 -0.4566
17320TIP3   OH273374   5.983   5.570   4.500  0.0617  0.3770  0.3852
17320TIP3    H173375   5.932   5.506   4.550  0.2436  1.2379  1.7341
17320TIP3    H273376   6.041   5.610   4.565  2.0020 -0.0979 -0.9706
17321TIP3   OH273377   1.685   3.999   4.478 -0.3860 -0.5294  0.2440
17321TIP3    H173378   1.643   4.075   4.438 -1.6811 -1.0013  0.6781
17321TIP3    H273379   1.673   4.011   4.572 -0.8534 -1.4027  0.3095
17322TIP3   OH273380   5.985   6.739   4.974 -0.0005 -0.3400  0.0892
17322TIP3    H173381   5.939   6.723   4.891 -0.4060 -0.0920  0.2641
17322TIP3    H273382   6.078   6.730   4.952  0.3080  4.2188 -1.4834
17323TIP3   OH273383   3.774   0.567  13.166 -0.0468 -0.0835  0.4875
17323TIP3    H173384   3.757   0.638  13.228  0.2098  0.0860  0.3645
17323TIP3    H273385   3.838   0.603  13.105  1.2366 -0.9102  1.3072
17324TIP3   OH273386   3.895   4.951   0.415 -0.0279 -0.0724 -0.4559
17324TIP3    H173387   3.834   4.920   0.482 -0.3237  0.6972 -0.3604
17324TIP3    H273388   3.937   4.871   0.383 -1.6007 -0.7201 -1.0366
17325TIP3   OH273389   0.519   2.373   1.184 -0.2082 -0.6037  0.0895
17325TIP3    H173390   0.461   2.448   1.168  1.4419  0.8303  0.5607
17325TIP3    H273391   0.490   2.307   1.122 -1.2108  0.7142 -0.8973
17326TIP3   OH273392   0.569   4.545  11.578 -0.5921  0.7111  0.0438
17326TIP3    H173393   0.553   4.488  11.503  0.6796  1.1611 -0.6103
17326TIP3    H273394   0.495   4.605  11.578 -0.1118  1.3809 -1.5453
17327TIP3   OH273395   0.724   5.508   2.345 -0.1252  0.0052 -0.2354
17327TIP3    H173396   0.697   5.449   2.415  0.6087 -0.1985 -0.1161
17327TIP3    H273397   0.674   5.479   2.269 -0.6077 -0.0457  0.0915
17328TIP3   OH273398   2.593   0.045   0.095  0.3091  0.4717 -0.2658
17328TIP3    H173399   2.545   0.108   0.041  1.9123  1.4434 -0.6165
17328TIP3    H273400   2.530   0.019   0.163 -1.3313  0.2045 -1.7865
17329TIP3   OH273401   4.396   3.024  17.307  0.4147  0.4210  0.0837
17329TIP3    H173402   4.431   3.072  17.232  0.2515 -0.7514 -0.7733
17329TIP3    H273403   4.394   3.089  17.378  1.2252  1.3723 -0.7222
17330TIP3   OH273404   3.113   3.241   4.709 -0.3987 -0.1855  0.1091
17330TIP3    H173405   3.138   3.160   4.753 -0.2872  0.3918  1.1408
17330TIP3    H273406   3.024   3.226   4.678 -0.7536 -0.3536  1.1790
17331TIP3   OH273407   3.015   2.727  15.621  0.2063 -0.4224 -0.0932
17331TIP3    H173408   2.961   2.800  15.654 -0.9674 -0.7933 -1.1276
17331TIP3    H273409   2.953   2.657  15.605  0.9136 -0.6906 -1.8479
17332TIP3   OH273410   5.391   5.437   4.137 -0.3611 -0.5310  0.2785
17332TIP3    H173411   5.370   5.530   4.141 -3.4404 -1.0630 -0.5874
17332TIP3    H273412   5.457   5.430   4.068 -0.8009  0.9276 -0.3336
17333TIP3   OH273413   3.902   4.473   2.841 -0.0943  0.6078  0.6629
17333TIP3    H173414   3.992   4.456   2.813 -0.5474  0.1758 -0.5877
17333TIP3    H273415   3.858   4.505   2.762 -1.9275 -2.5380  0.2656
17334TIP3   OH273416   3.830   2.482  12.171  0.7310  0.1500 -0.0642
17334TIP3    H173417   3.840   2.576  12.185  3.2998 -0.4779  4.3650
17334TIP3    H273418   3.737   2.465  12.184  0.3722  1.9833  0.0135
17335TIP3   OH273419   6.657   2.106  12.839  0.0221  0.3107  0.4614
17335TIP3    H173420   6.625   2.191  12.870  2.0701  1.8036 -1.1208
17335TIP3    H273421   6.735   2.089  12.893  0.6181  0.3453 -0.3666
17336TIP3   OH273422   3.564   6.266   1.175 -0.1311  0.8334 -0.0461
17336TIP3    H173423   3.579   6.300   1.263 -1.2163  2.3182 -0.3929
17336TIP3    H273424   3.478   6.223   1.180  0.4873 -0.4711 -0.0338
17337TIP3   OH273425   4.127   0.398  15.859 -0.3625 -0.2409 -0.9044
17337TIP3    H173426   4.168   0.481  15.881  1.0589 -1.2139  0.3166
17337TIP3    H273427   4.041   0.401  15.902  0.2457  0.0571  0.3185
17338TIP3   OH273428   4.359   3.184  14.345  0.3378 -0.4087  0.1537
17338TIP3    H173429   4.451   3.206  14.361  1.2106 -3.7786  0.4101
17338TIP3    H273430   4.357   3.152  14.255 -0.6548 -0.2175  0.0906
17339TIP3   OH273431   0.634   1.879  12.982 -0.2005 -0.9504 -0.3551
17339TIP3    H173432   0.581   1.801  12.965 -2.1267  0.3675 -0.7143
17339TIP3    H273433   0.592   1.921  13.057 -0.7760  1.0049 -1.6864
17340TIP3   OH273434   4.366   3.501   0.293  0.3220  0.2683  0.0813
17340TIP3    H173435   4.444   3.479   0.242 -0.3139 -0.5411 -0.5536
17340TIP3    H273436   4.375   3.595   0.310  0.7572  0.4748 -1.1662
17341TIP3   OH273437   6.511   2.702  14.482 -0.3677 -0.1815 -0.1073
17341TIP3    H173438   6.599   2.715  14.447 -0.6148  4.5252  0.4204
17341TIP3    H273439   6.459   2.675  14.406  0.9631 -0.0461 -1.0983
17342TIP3   OH273440   1.148   3.963  11.711  0.2308  0.0130  0.0986
17342TIP3    H173441   1.135   3.878  11.754  0.8873  1.2027  2.8487
17342TIP3    H273442   1.069   3.974  11.657 -0.2864 -1.9257  0.3475
17343TIP3   OH273443   4.416   0.097   0.587 -0.1624  0.1304  0.4655
17343TIP3    H173444   4.430   0.103   0.682 -0.6370 -0.7734  0.6060
17343TIP3    H273445   4.504   0.095   0.550  0.1061 -1.7606  1.0666
17344TIP3   OH273446   4.714   5.086   3.468  0.7851 -0.0694 -0.5656
17344TIP3    H173447   4.621   5.066   3.469  0.4008  1.5246  0.9174
17344TIP3    H273448   4.757   5.001   3.473 -0.6760 -0.8609  4.5841
17345TIP3   OH273449   2.929   0.650   1.678 -0.4895  0.0184 -0.1308
17345TIP3    H173450   2.971   0.698   1.749 -1.9984  0.2009  0.6773
17345TIP3    H273451   2.836   0.650   1.700 -0.7517 -1.7820 -1.0000
17346TIP3   OH273452   5.564   0.927   4.164  0.2293 -0.2218  0.4030
17346TIP3    H173453   5.608   0.843   4.158 -0.8411 -0.8118  0.6201
17346TIP3    H273454   5.474   0.909   4.137 -0.4819  0.4699  2.1607
17347TIP3   OH273455   0.304   3.476   2.856  0.4217 -0.3133  0.3414
17347TIP3    H173456   0.273   3.559   2.893  0.2413 -0.5912  0.8200
17347TIP3    H273457   0.227   3.420   2.855  0.2107 -0.0517 -1.2515
17348TIP3   OH273458   0.386   2.715  13.510 -0.3977 -0.0828  0.0399
17348TIP3    H173459   0.384   2.626  13.545 -0.9258  0.0127  0.2686
17348TIP3    H273460   0.320   2.762  13.560 -0.8770  0.1676 -0.7999
17349TIP3   OH273461   4.305   6.437  13.444 -0.4509 -0.2184 -0.0239
17349TIP3    H173462   4.229   6.381  13.460 -1.0919  0.6128 -0.0897
17349TIP3    H273463   4.343   6.404  13.363 -0.4477 -0.9505  0.2682
17350TIP3   OH273464   3.769   1.693   0.933 -0.0397 -0.4348  0.2183
17350TIP3    H173465   3.777   1.711   0.840  1.6372 -1.1392  0.1796
17350TIP3    H273466   3.842   1.633   0.952  1.3261  1.7466  2.4867
17351TIP3   OH273467   4.920   4.754   1.118 -0.0530 -0.2169 -0.0534
17351TIP3    H173468   4.964   4.839   1.122 -0.1661 -0.1990  0.9928
17351TIP3    H273469   4.834   4.773   1.081  1.0286 -0.3647 -2.8951
17352TIP3   OH273470   4.330   1.544  11.821 -0.1706  1.0787 -0.0260
17352TIP3    H173471   4.289   1.507  11.899  0.3695  0.1533 -0.1565
17352TIP3    H273472   4.396   1.605  11.855  0.2144  0.5158  0.2640
17353TIP3   OH273473   4.404   5.491   6.203  0.2342  0.5072  0.2279
17353TIP3    H173474   4.317   5.525   6.225  0.1632  0.7603 -0.4464
17353TIP3    H273475   4.426   5.433   6.276 -0.3351  0.7425  0.5900
17354TIP3   OH273476   5.106   6.372  14.443  0.5246  0.9349 -0.1183
17354TIP3    H173477   5.114   6.325  14.360  1.7737 -0.6773  0.8733
17354TIP3    H273478   5.196   6.385  14.472  0.0922  1.1882  1.1655
17355TIP3   OH273479   6.524   2.947  11.708  0.0676  0.7140 -0.9294
17355TIP3    H173480   6.507   2.875  11.647 -2.4843  2.3339 -2.3479
17355TIP3    H273481   6.474   2.924  11.786 -1.2941  1.1596 -1.6271
17356TIP3   OH273482   3.371   2.810  12.312  0.1863 -0.6294  0.3542
17356TIP3    H173483   3.332   2.768  12.235 -0.0520  0.2907 -0.0516
17356TIP3    H273484   3.437   2.869  12.275 -1.4171  1.4644  0.6422
17357TIP3   OH273485   6.345   4.782  14.818  0.1116 -0.1574  0.0308
17357TIP3    H173486   6.262   4.737  14.801  0.4762  0.1164 -2.8757
17357TIP3    H273487   6.411   4.730  14.773  1.1431  1.0746  0.0548
17358TIP3   OH273488   6.129   2.137  15.518  0.5375  0.3039 -0.6778
17358TIP3    H173489   6.124   2.185  15.436  1.6434  0.5893 -0.5949
17358TIP3    H273490   6.048   2.085  15.521 -0.2553  1.4615 -1.1971
17359TIP3   OH273491   0.855   4.145  13.340 -0.1255  0.1922 -1.1231
17359TIP3    H173492   0.793   4.199  13.290 -0.2259 -0.9908 -2.3248
17359TIP3    H273493   0.884   4.078  13.278 -0.7364 -1.7515  0.5805
17360TIP3   OH273494   2.776   5.451   1.958 -0.3181 -0.1006  0.3356
17360TIP3    H173495   2.818   5.536   1.938  2.2658 -1.3723 -0.0961
17360TIP3    H273496   2.810   5.428   2.044  0.1563 -1.3170 -0.1582
17361TIP3   OH273497   5.148   4.389   0.492  0.2207 -0.3976  0.1299
17361TIP3    H173498   5.100   4.454   0.543  1.3582 -0.2531  1.0499
17361TIP3    H273499   5.094   4.310   0.498 -1.1694  0.4080 -0.9900
17362TIP3   OH273500   4.914   3.261  12.015  0.1623 -0.5078  0.0030
17362TIP3    H173501   4.954   3.305  11.940 -0.3744  2.3635  1.2674
17362TIP3    H273502   4.859   3.328  12.055  2.9929 -0.6810  4.9064
17363TIP3   OH273503   6.456   6.703  13.045 -0.3047 -0.1899  0.1822
17363TIP3    H173504   6.403   6.781  13.059  0.0168 -0.1004  0.9335
17363TIP3    H273505   6.418   6.662  12.967 -0.1674  0.9805 -0.5282
17364TIP3   OH273506   3.904   3.957  14.788  0.1807 -0.1606  0.4981
17364TIP3    H173507   3.928   4.045  14.818 -1.7488  0.8189 -0.5752
17364TIP3    H273508   3.984   3.922  14.750  1.4949  0.3356  2.6242
17365TIP3   OH273509   1.605   3.657   0.152  0.0059  0.3828  0.3555
17365TIP3    H173510   1.612   3.720   0.224  0.2839  0.2000  0.4907
17365TIP3    H273511   1.552   3.701   0.086  0.2793  0.7936  0.4087
17366TIP3   OH273512   5.501   5.221   4.982  0.2225 -0.1432 -0.4972
17366TIP3    H173513   5.572   5.231   5.045 -0.3682  1.4582 -0.0266
17366TIP3    H273514   5.462   5.308   4.975 -0.7650 -0.6492 -1.8587
17367TIP3   OH273515   4.254   2.445   1.304  0.5023  0.6311 -0.8356
17367TIP3    H173516   4.172   2.402   1.280 -0.4256  2.7311 -1.7585
17367TIP3    H273517   4.227   2.529   1.342  2.1879  0.3440  1.1683
17368TIP3   OH273518   1.851   2.125   4.977 -0.2620  0.6008 -0.2120
17368TIP3    H173519   1.804   2.207   4.968  0.0326  1.1201  2.1334
17368TIP3    H273520   1.927   2.147   5.031 -0.7937 -1.3824  1.4806
17369TIP3   OH273521   3.623   5.319  15.835  0.1205 -0.3236 -0.1323
17369TIP3    H173522   3.596   5.327  15.926 -2.1833 -0.3850 -0.7367
17369TIP3    H273523   3.643   5.227  15.823  2.2238 -0.0244  0.7111
17370TIP3   OH273524   5.827   4.392   3.753 -0.2396 -0.5163 -0.6658
17370TIP3    H173525   5.777   4.384   3.834  0.6286  1.0419  0.0844
17370TIP3    H273526   5.829   4.486   3.736  2.6189 -0.4416 -0.4684
17371TIP3   OH273527   5.322   6.406   1.793  0.0783 -0.3561  0.2557
17371TIP3    H173528   5.396   6.406   1.732  0.2385 -4.1460  0.2289
17371TIP3    H273529   5.245   6.419   1.737  0.5215  2.1992  0.1138
17372TIP3   OH273530   3.289   5.983  12.189 -0.1845 -0.1984  1.0603
17372TIP3    H173531   3.336   5.921  12.133  0.5513  0.2402  1.1807
17372TIP3    H273532   3.226   5.929  12.236  0.4470 -0.8756  1.1582
17373TIP3   OH273533   6.548   3.072  10.767 -0.1212  0.5506 -0.6145
17373TIP3    H173534   6.619   3.079  10.704 -0.0638 -3.8508 -1.3568
17373TIP3    H273535   6.468   3.070  10.713 -0.3175 -0.0911 -0.3134
17374TIP3   OH273536   4.443   5.289  11.608  0.2009 -0.3181 -0.0833
17374TIP3    H173537   4.364   5.342  11.595  0.0525 -0.5278 -0.0352
17374TIP3    H273538   4.504   5.320  11.542  0.6258  0.9042  0.8435
17375TIP3   OH273539   6.275   3.855   5.907 -0.1639  0.1340  0.2376
17375TIP3    H173540   6.265   3.794   5.980 -0.1350 -0.2520 -0.0790
17375TIP3    H273541   6.323   3.806   5.840 -1.5655 -0.0533 -0.6796
17376TIP3   OH273542   5.314   2.183  14.986  0.1677 -0.5835 -0.2987
17376TIP3    H173543   5.407   2.159  14.986 -0.5172 -3.7079  0.9843
17376TIP3    H273544   5.314   2.276  15.010  2.9295 -0.6227  0.2411
17377TIP3   OH273545   6.032   1.162  14.800  0.6060  0.1725 -0.0080
17377TIP3    H173546   6.033   1.100  14.727 -0.5048  0.9458 -0.7172
17377TIP3    H273547   6.124   1.170  14.826  1.1586  0.5813 -1.9326
17378TIP3   OH273548   2.336   5.019   2.833  0.0488  0.5135 -0.7586
17378TIP3    H173549   2.368   5.109   2.840 -0.2273  0.6413 -1.0967
17378TIP3    H273550   2.271   5.022   2.762 -0.4065  0.1765 -0.3630
17379TIP3   OH273551   1.405   1.295   1.326 -0.0178 -0.1554 -0.2733
17379TIP3    H173552   1.362   1.211   1.309 -0.1738 -0.2762  0.7033
17379TIP3    H273553   1.477   1.298   1.263  0.3936 -1.3206  0.1153
17380TIP3   OH273554   2.105   2.684   2.117 -0.5612  0.6410  0.2221
17380TIP3    H173555   2.188   2.681   2.164 -0.0014  2.2223 -0.5878
17380TIP3    H273556   2.128   2.714   2.029 -1.7004 -1.2273 -0.7908
17381TIP3   OH273557   5.918   4.557  11.978 -0.5042  0.6093  0.0079
17381TIP3    H173558   5.923   4.542  11.884  1.1300  1.9215 -0.1738
17381TIP3    H273559   5.919   4.469  12.017  2.4936  0.0134 -1.1305
17382TIP3   OH273560   4.931   2.763  10.946 -0.1311 -0.2344 -0.2126
17382TIP3    H173561   5.011   2.749  10.896 -1.1140 -0.8039 -1.7034
17382TIP3    H273562   4.882   2.681  10.936 -1.3734  0.4923 -0.2635
17383TIP3   OH273563   4.197   0.379  12.020  0.4645 -0.5205 -0.1665
17383TIP3    H173564   4.143   0.437  12.074  0.8195 -0.1173 -0.2304
17383TIP3    H273565   4.135   0.320  11.977  0.2079 -1.1362  1.0120
17384TIP3   OH273566   1.234   3.950   3.063 -0.1282  0.4479 -0.1205
17384TIP3    H173567   1.152   3.900   3.065 -0.1653  0.4938  1.7525
17384TIP3    H273568   1.290   3.905   3.126  0.3122  1.9809  0.6207
17385TIP3   OH273569   1.941   6.214  14.346  0.5427  0.0626  0.0419
17385TIP3    H173570   1.939   6.119  14.356 -0.7276  0.2889  2.8516
17385TIP3    H273571   1.931   6.229  14.252 -0.9447 -2.5807 -0.3052
17386TIP3   OH273572   4.544   0.453  13.569 -0.2513  0.3370 -0.4043
17386TIP3    H173573   4.470   0.506  13.600 -1.7907 -1.3984 -0.9410
17386TIP3    H273574   4.590   0.427  13.649 -0.1363  1.4980 -0.0680
17387TIP3   OH273575   3.630   6.437   0.655 -0.1407  0.3622  0.0609
17387TIP3    H173576   3.682   6.418   0.733  0.4207  1.8759  0.0864
17387TIP3    H273577   3.694   6.446   0.585 -0.2263  2.8137  0.1987
17388TIP3   OH273578   4.514   2.689  15.551 -0.2789 -0.5207  0.3926
17388TIP3    H173579   4.552   2.601  15.551 -1.8912 -1.2709 -0.8375
17388TIP3    H273580   4.580   2.743  15.508  0.7146 -1.1189  1.1230
17389TIP3   OH273581   3.460   0.705   2.661  0.2878 -0.3093  0.5539
17389TIP3    H173582   3.491   0.793   2.679  2.9112 -0.9429 -0.3989
17389TIP3    H273583   3.386   0.717   2.601  0.2357  1.2245  0.8822
17390TIP3   OH273584   1.601   3.819  11.373  0.4020 -0.1718  0.4190
17390TIP3    H173585   1.564   3.756  11.436  0.4415 -1.9315 -1.2226
17390TIP3    H273586   1.528   3.842  11.317  0.9898 -1.0514 -0.7633
17391TIP3   OH273587   0.602   3.469   1.730  0.5468 -0.3254  0.2639
17391TIP3    H173588   0.647   3.540   1.775  0.3746 -0.1664  0.1824
17391TIP3    H273589   0.633   3.475   1.639  0.9874 -0.7191  0.3783
17392TIP3   OH273590   3.143   5.994   2.202  0.7287  0.4628 -0.5795
17392TIP3    H173591   3.228   5.970   2.164  1.7558  0.7540  1.4371
17392TIP3    H273592   3.161   6.072   2.254 -1.0117  1.1279 -0.9184
17393TIP3   OH273593   1.161   4.636  12.358 -0.1219 -0.6458 -0.0660
17393TIP3    H173594   1.172   4.730  12.347  0.0848 -0.6433  0.1528
17393TIP3    H273595   1.144   4.625  12.452 -1.1463 -0.7284 -0.2456
17394TIP3   OH273596   2.948   2.807  13.784  0.0971 -0.3899 -0.2112
17394TIP3    H173597   2.879   2.741  13.784  0.3496 -0.7121  1.5315
17394TIP3    H273598   3.029   2.757  13.776  0.1992 -0.0514 -1.7022
17395TIP3   OH273599   0.808   2.521  13.267  0.3683 -0.0391 -0.2585
17395TIP3    H173600   0.892   2.565  13.260  0.1088  0.6927  0.9202
17395TIP3    H273601   0.759   2.573  13.331 -0.0599 -1.8569  0.9692
17396TIP3   OH273602   5.897   5.272  15.632 -0.5630  0.5215 -0.1094
17396TIP3    H173603   5.866   5.184  15.653 -2.4599  1.2698  0.4430
17396TIP3    H273604   5.942   5.262  15.548 -1.5893 -0.8404 -0.5393
17397TIP3   OH273605   2.015   2.464   2.623 -0.1873  0.2463 -0.5581
17397TIP3    H173606   1.954   2.408   2.670 -1.2944  1.4089 -0.5496
17397TIP3    H273607   1.981   2.466   2.533  0.5478 -0.0634 -0.8503
17398TIP3   OH273608   4.000   1.306  16.464  0.3722 -0.5894 -0.2527
17398TIP3    H173609   4.031   1.342  16.381  0.7437  0.1782  0.2029
17398TIP3    H273610   3.957   1.224  16.441 -1.0209  0.4074 -1.4243
17399TIP3   OH273611   2.814   6.317  12.188  0.0645  0.1123  0.2365
17399TIP3    H173612   2.839   6.247  12.129 -0.4757  0.2205 -0.1204
17399TIP3    H273613   2.724   6.298  12.213 -0.4166  1.1698 -0.5998
17400TIP3   OH273614   2.285   3.620  11.502  0.1161 -0.3656 -0.4361
17400TIP3    H173615   2.309   3.691  11.442 -0.5498  1.3636  1.2438
17400TIP3    H273616   2.189   3.618  11.500  0.1277 -1.7560 -1.0064
17401TIP3   OH273617   1.722   4.720   4.574 -0.0228  0.5142  0.1675
17401TIP3    H173618   1.745   4.654   4.508  2.6895  0.5416  0.9519
17401TIP3    H273619   1.747   4.803   4.534  1.3837  0.5521  1.0704
17402TIP3   OH273620   0.081   6.725  14.361 -0.5855 -0.1353 -0.3554
17402TIP3    H173621   0.165   6.680  14.366 -0.5979 -0.3749 -1.8821
17402TIP3    H273622   0.024   6.678  14.422  0.9341  1.4108  2.4820
17403TIP3   OH273623   0.010   5.361   0.485  0.0305  0.3445 -0.5133
17403TIP3    H173624   0.011   5.419   0.408 -0.7887  1.2696  0.1465
17403TIP3    H273625   0.073   5.400   0.545 -0.2580  0.3497 -0.2115
17404TIP3   OH273626   3.553   4.170   3.118  0.1125 -0.1253  0.1737
17404TIP3    H173627   3.566   4.215   3.201  3.0941 -0.4508 -0.0086
17404TIP3    H273628   3.520   4.237   3.059  0.7739  0.8667  0.8970
17405TIP3   OH273629   4.636   5.967   2.028  0.3648 -0.3973  0.0091
17405TIP3    H173630   4.670   5.965   1.938 -1.3475 -1.3766 -0.6543
17405TIP3    H273631   4.593   6.052   2.036 -0.2787 -0.6817 -0.4127
17406TIP3   OH273632   4.232   1.101   2.264 -0.4123 -0.0943 -0.3793
17406TIP3    H173633   4.201   1.017   2.298 -0.0898 -0.0654 -0.0069
17406TIP3    H273634   4.311   1.120   2.314 -2.1889  1.9903  1.8653
17407TIP3   OH273635   2.917   4.167   5.255 -0.2243 -0.2238  0.4939
17407TIP3    H173636   2.960   4.165   5.170  1.9221 -1.2721  1.5344
17407TIP3    H273637   2.904   4.260   5.273  0.9837  0.0941 -0.1696
17408TIP3   OH273638   4.076   3.388   5.263  0.3720  0.1872 -0.0070
17408TIP3    H173639   4.171   3.387   5.251  0.8047  0.6018  2.7453
17408TIP3    H273640   4.058   3.316   5.324 -1.0696  0.1841 -0.3952
17409TIP3   OH273641   3.147   3.481  13.802 -0.1934 -0.1448  0.0768
17409TIP3    H173642   3.163   3.457  13.711 -0.2387 -0.7283  0.2176
17409TIP3    H273643   3.052   3.497  13.806 -0.0786  0.6279 -0.1438
17410TIP3   OH273644   0.896   1.993  14.765  0.6198 -0.6143  0.3201
17410TIP3    H173645   0.949   2.070  14.746 -0.6210  0.7923  2.1494
17410TIP3    H273646   0.835   2.022  14.833 -1.5585 -2.5124 -0.6640
17411TIP3   OH273647   1.340   1.918  10.932 -0.4459  0.1515 -0.2629
17411TIP3    H173648   1.321   1.874  10.849 -0.3499  0.5190 -0.4798
17411TIP3    H273649   1.294   2.002  10.926  0.0226  0.4178 -0.1742
17412TIP3   OH273650   2.868   5.386  16.750  0.2469  0.0708  0.8423
17412TIP3    H173651   2.919   5.458  16.787 -0.5313  1.2380 -0.2779
17412TIP3    H273652   2.800   5.429  16.698  0.0673 -1.4817 -0.2699
17413TIP3   OH273653   3.648   3.244   1.775 -0.1098 -0.3271  0.1594
17413TIP3    H173654   3.640   3.330   1.735 -1.2769  0.5892  2.2313
17413TIP3    H273655   3.654   3.184   1.701 -2.0755  1.2785 -1.4204
17414TIP3   OH273656   3.321   2.825   6.423 -0.4226 -0.5602  0.2034
17414TIP3    H173657   3.244   2.859   6.378 -1.2570 -0.8647  1.3647
17414TIP3    H273658   3.337   2.886   6.494  2.5698  1.5062 -1.9740
17415TIP3   OH273659   3.035   4.884   6.412  0.0131 -0.2658  0.1354
17415TIP3    H173660   2.948   4.897   6.450 -0.7615 -1.3218 -1.1896
17415TIP3    H273661   3.024   4.904   6.319  1.0343 -0.9735 -0.1606
17416TIP3   OH273662   3.659   4.659   0.905  0.3818  0.0490  0.3971
17416TIP3    H173663   3.749   4.687   0.884  0.5886 -0.6882  0.2893
17416TIP3    H273664   3.604   4.726   0.865  0.8777  0.4271  0.3267
17417TIP3   OH273665   3.804   0.666  14.453  0.8050 -0.3189  0.4062
17417TIP3    H173666   3.756   0.679  14.535  0.4093 -0.4717  0.1993
17417TIP3    H273667   3.746   0.699  14.385  1.7712  1.2763  0.3110
17418TIP3   OH273668   3.618   0.987  12.346  0.2774  0.2253  0.1468
17418TIP3    H173669   3.657   0.909  12.309  0.6619  1.3237 -1.9443
17418TIP3    H273670   3.686   1.025  12.401  0.3512 -0.5140  0.5649
17419TIP3   OH273671   6.323   3.609   5.798  0.4762 -0.1033 -0.2570
17419TIP3    H173672   6.284   3.553   5.730  2.8444 -1.8447 -0.3420
17419TIP3    H273673   6.264   3.600   5.873 -0.3365 -1.0130 -0.9674
17420TIP3   OH273674   4.713   2.398  13.252  0.4081  0.2430  0.5899
17420TIP3    H173675   4.763   2.479  13.246  0.8328 -0.0737 -0.4527
17420TIP3    H273676   4.765   2.342  13.311  1.1269  0.0377 -0.2204
17421TIP3   OH273677   4.639   2.444  11.501  0.0910  0.1217 -0.2954
17421TIP3    H173678   4.653   2.356  11.536  2.7305  0.3003 -0.7179
17421TIP3    H273679   4.643   2.433  11.406  0.6776  0.7149 -0.3463
17422TIP3   OH273680   0.630   3.760  15.582 -0.1624 -0.0758  0.6914
17422TIP3    H173681   0.708   3.732  15.535 -0.2695  0.2985  0.2718
17422TIP3    H273682   0.559   3.706  15.546 -0.4714  1.0902 -0.5433
17423TIP3   OH273683   3.934   4.361   4.617 -0.8617  0.7624  0.7561
17423TIP3    H173684   3.916   4.357   4.523 -2.2862  0.6116  1.0112
17423TIP3    H273685   3.993   4.436   4.627  0.1315  0.1614 -0.3618
17424TIP3   OH273686   0.861   1.106  17.131 -0.3214 -0.4170  0.2531
17424TIP3    H173687   0.785   1.133  17.183 -0.1715 -1.3096  0.9684
17424TIP3    H273688   0.900   1.188  17.102  0.5660  0.2451  2.9809
17425TIP3   OH273689   6.099   2.140   5.847 -0.5908  0.3226 -0.4607
17425TIP3    H173690   6.005   2.144   5.831 -1.1411 -0.0175  2.1426
17425TIP3    H273691   6.113   2.197   5.923  0.9564 -1.0225  0.3381
17426TIP3   OH273692   3.814   2.523  14.671  0.0809 -0.3131  0.5094
17426TIP3    H173693   3.881   2.522  14.740 -0.2668 -0.3309  0.8537
17426TIP3    H273694   3.851   2.578  14.602  1.2443 -1.7946 -0.1052
17427TIP3   OH273695   6.279   6.393  13.754  0.1579 -0.2334 -0.2636
17427TIP3    H173696   6.228   6.465  13.716  1.2835  0.5326 -0.3645
17427TIP3    H273697   6.315   6.346  13.678 -1.3110 -1.5004 -0.2353
17428TIP3   OH273698   1.013   6.699   3.960 -0.2534 -0.0600 -0.4356
17428TIP3    H173699   1.089   6.757   3.959 -0.3424  0.2573  2.2268
17428TIP3    H273700   1.051   6.611   3.965 -0.1225 -0.2005 -2.8875
17429TIP3   OH273701   4.347   4.698  15.802 -0.4812 -0.8957  0.0971
17429TIP3    H173702   4.433   4.678  15.839 -1.0195 -0.8421  1.4587
17429TIP3    H273703   4.310   4.612  15.779 -0.5383 -1.0198  0.6394
17430TIP3   OH273704   0.757   1.042  11.212 -0.0931  0.1966 -0.2864
17430TIP3    H173705   0.698   1.034  11.137 -0.9291 -1.8488  0.5045
17430TIP3    H273706   0.700   1.064  11.285  0.3261 -0.2999  0.1992
17431TIP3   OH273707   1.360   0.777  13.998  0.4330 -0.0536  0.1000
17431TIP3    H173708   1.411   0.712  13.950  1.3874  0.7870 -0.0732
17431TIP3    H273709   1.290   0.728  14.039  0.5225 -1.0273 -0.8755
17432TIP3   OH273710   0.756   6.215   1.563  0.2269  0.0152 -0.1674
17432TIP3    H173711   0.678   6.192   1.613  0.2743 -0.6652 -0.3994
17432TIP3    H273712   0.723   6.236   1.476  0.3627 -0.8224 -0.4203
17433TIP3   OH273713   5.548   1.687   1.007 -0.1649 -0.0881  0.0490
17433TIP3    H173714   5.516   1.776   1.018 -0.6763 -0.1601 -0.7302
17433TIP3    H273715   5.642   1.693   1.023 -0.0736  0.7379 -0.6768
17434TIP3   OH273716   2.220   0.343  14.357  0.0151  0.2445  0.1771
17434TIP3    H173717   2.125   0.346  14.347  0.1591  1.4192 -1.1418
17434TIP3    H273718   2.236   0.267  14.413 -1.6086 -0.6852 -0.5563
17435TIP3   OH273719   2.525   2.006   4.674  0.6155  0.0625  0.2402
17435TIP3    H173720   2.617   2.016   4.697  0.4323  1.3692  0.4837
17435TIP3    H273721   2.517   2.044   4.587  0.4842 -0.9566 -0.2034
17436TIP3   OH273722   0.363   0.079  15.647  0.3135  0.1710  0.2516
17436TIP3    H173723   0.312   0.157  15.670  0.5977  0.4273  0.0279
17436TIP3    H273724   0.316   0.040  15.573  1.5849  1.6140 -1.4027
17437TIP3   OH273725   5.432   3.745  16.728 -0.2135 -0.5698 -0.1813
17437TIP3    H173726   5.525   3.729  16.744 -0.5703 -0.9551  1.8127
17437TIP3    H273727   5.418   3.718  16.638  1.4493 -1.2316 -0.2736
17438TIP3   OH273728   5.371   1.991   3.082  0.0053 -0.1369 -0.3961
17438TIP3    H173729   5.365   2.007   2.988  0.7857 -1.8142 -0.7612
17438TIP3    H273730   5.437   1.922   3.091 -1.4935 -1.4733  1.1949
17439TIP3   OH273731   1.354   4.071  14.244 -0.3010 -0.3882 -0.4277
17439TIP3    H173732   1.437   4.068  14.197  0.2246  0.6329  0.3898
17439TIP3    H273733   1.287   4.067  14.176  0.4269  1.9239 -1.3854
17440TIP3   OH273734   1.687   6.222   0.684  0.0859 -0.3686 -0.2720
17440TIP3    H173735   1.672   6.167   0.761 -0.5763 -0.3409 -0.3770
17440TIP3    H273736   1.629   6.186   0.617  0.2667 -0.0599 -0.5988
17441TIP3   OH273737   2.293   3.854   4.555  0.1203  0.2134  0.1286
17441TIP3    H173738   2.310   3.765   4.524 -1.4496  0.6463 -2.1980
17441TIP3    H273739   2.202   3.853   4.585 -1.2290  1.7545 -3.3586
17442TIP3   OH273740   6.282   3.588  15.890 -0.1257  0.0829 -0.4887
17442TIP3    H173741   6.281   3.683  15.903 -1.8901 -0.0999  1.2771
17442TIP3    H273742   6.375   3.565  15.886  0.3646  1.7485  0.2367
17443TIP3   OH273743   3.243   2.645   5.968 -0.4901 -0.7477 -0.4424
17443TIP3    H173744   3.196   2.616   6.047  0.4969  0.7294  0.7478
17443TIP3    H273745   3.264   2.736   5.986  1.3696 -0.9017 -1.6476
17444TIP3   OH273746   5.004   5.713   2.144 -0.6310 -0.2052 -0.2537
17444TIP3    H173747   5.091   5.751   2.129 -1.3923  1.2325 -1.2613
17444TIP3    H273748   4.998   5.704   2.239  0.1266  0.9265 -0.0774
17445TIP3   OH273749   6.373   5.453   3.232 -0.4383 -0.7144 -0.5501
17445TIP3    H173750   6.413   5.415   3.310 -1.4344  0.6298  0.6502
17445TIP3    H273751   6.279   5.451   3.249 -0.5850  1.3648 -0.8532
17446TIP3   OH273752   1.268   4.428   3.729 -0.4596  0.6141 -0.1950
17446TIP3    H173753   1.352   4.470   3.750  1.1042 -1.8925 -0.9494
17446TIP3    H273754   1.287   4.375   3.652 -1.8016 -2.5990  1.4975
17447TIP3   OH273755   4.697   2.504   6.017  0.5106 -0.1274  0.7320
17447TIP3    H173756   4.733   2.494   6.105  0.0536  1.3911  1.1116
17447TIP3    H273757   4.602   2.507   6.030  0.4235 -0.1778  0.1461
17448TIP3   OH273758   1.672   1.596  16.236 -0.1655  0.5422  0.5488
17448TIP3    H173759   1.766   1.607  16.227 -0.0590 -1.9232 -3.2864
17448TIP3    H273760   1.638   1.686  16.247  2.4348  1.6813 -0.0940
17449TIP3   OH273761   6.702   4.973   1.271  0.8114  0.3641  0.1508
17449TIP3    H173762   6.662   5.011   1.193 -1.0281 -2.7493 -0.5673
17449TIP3    H273763   6.630   4.960   1.332  2.0075  1.4235  1.8924
17450TIP3   OH273764   0.387   3.782  13.673 -0.0468  0.0485  0.4883
17450TIP3    H173765   0.362   3.746  13.588 -0.5895  0.0520  0.6417
17450TIP3    H273766   0.403   3.875  13.656  0.3601 -0.0533  0.2923
17451TIP3   OH273767   3.219   4.425  15.209  0.2003 -0.3467  1.4852
17451TIP3    H173768   3.185   4.383  15.130 -1.3382  3.0900  0.1311
17451TIP3    H273769   3.156   4.402  15.277 -0.8730  0.0709  0.6695
17452TIP3   OH273770   0.919   6.579  12.872  0.6035 -0.5152 -0.2258
17452TIP3    H173771   0.932   6.496  12.827  0.0899 -0.5178 -0.3683
17452TIP3    H273772   0.871   6.557  12.952  1.7562 -0.5490  0.4841
17453TIP3   OH273773   2.988   1.235   0.512 -0.6210 -0.2711 -0.2934
17453TIP3    H173774   3.078   1.267   0.513 -1.6822  3.4377 -2.2069
17453TIP3    H273775   2.944   1.286   0.580 -1.6509 -0.6347 -0.6670
17454TIP3   OH273776   6.577   0.176   3.892  0.4300 -0.3316  0.0270
17454TIP3    H173777   6.632   0.220   3.827  0.9871 -1.3537 -0.1996
17454TIP3    H273778   6.592   0.083   3.878  1.0181 -0.5804  2.0167
17455TIP3   OH273779   1.377   4.167  14.495  0.0150  0.3660 -0.4714
17455TIP3    H173780   1.357   4.147  14.404 -0.5190  0.0236 -0.2879
17455TIP3    H273781   1.391   4.262  14.497  0.2319  0.3447 -0.9402
17456TIP3   OH273782   1.687   5.748  12.369 -0.1364 -0.3180 -0.8522
17456TIP3    H173783   1.620   5.738  12.437  0.3357 -0.1563 -0.3555
17456TIP3    H273784   1.693   5.662  12.328 -1.6204  0.0063 -1.8385
17457TIP3   OH273785   3.902   4.670  12.921 -0.6832  0.0912  0.1168
17457TIP3    H173786   3.880   4.681  13.014 -2.7728  1.1890 -0.4607
17457TIP3    H273787   3.907   4.576  12.908 -0.5886 -0.0754  1.2837
17458TIP3   OH273788   0.498   3.104  14.909  0.1277  0.4210 -0.2720
17458TIP3    H173789   0.444   3.147  14.976 -0.8965 -1.5683  0.2497
17458TIP3    H273790   0.511   3.015  14.942  4.5065  0.9753  0.0115
17459TIP3   OH273791   1.803   0.596  12.160 -0.2664 -0.6013  0.1070
17459TIP3    H173792   1.835   0.618  12.248 -0.9829 -1.6024  0.6486
17459TIP3    H273793   1.749   0.671  12.136 -0.2725 -0.4254  0.6392
17460TIP3   OH273794   5.816   2.876   4.716 -0.2003  0.1001 -0.1746
17460TIP3    H173795   5.720   2.874   4.712 -0.1728 -0.5939 -1.0671
17460TIP3    H273796   5.841   2.957   4.672 -0.3482 -0.7968 -2.0372
17461TIP3   OH273797   5.175   3.165   0.750  0.0032  0.1542 -0.0806
17461TIP3    H173798   5.094   3.115   0.751  0.9069 -1.3807  1.4924
17461TIP3    H273799   5.178   3.210   0.834  0.0585  1.5321 -0.7719
17462TIP3   OH273800   5.183   2.478   0.307  0.7470  0.4832  0.1096
17462TIP3    H173801   5.156   2.411   0.244  1.7304  0.8125 -0.6773
17462TIP3    H273802   5.115   2.545   0.301  0.6928  0.3828 -0.3999
17463TIP3   OH273803   5.427   5.943   4.121  0.0104 -0.5160 -0.0157
17463TIP3    H173804   5.515   5.971   4.146 -0.4745  1.8531 -0.6793
17463TIP3    H273805   5.440   5.874   4.057  1.4653  0.7475 -1.1506
17464TIP3   OH273806   5.287   0.532  12.299 -0.0223 -0.0589 -0.8103
17464TIP3    H173807   5.343   0.534  12.221 -1.1183  1.3411 -1.6022
17464TIP3    H273808   5.200   0.553  12.266 -0.0429  3.7921  1.1435
17465TIP3   OH273809   5.086   3.066  11.735  0.0074 -0.9019 -0.5195
17465TIP3    H173810   5.136   2.997  11.778  0.4878 -1.6940 -2.2610
17465TIP3    H273811   5.131   3.147  11.761 -1.2496 -1.0220  2.4881
17466TIP3   OH273812   3.851   4.880  11.710 -0.0730 -0.2742  0.0361
17466TIP3    H173813   3.807   4.830  11.779  1.1758 -0.6961  0.5579
17466TIP3    H273814   3.928   4.828  11.688  1.4618  1.5187  0.8137
17467TIP3   OH273815   5.946   0.125  14.247  0.5764 -0.2823 -0.1087
17467TIP3    H173816   5.988   0.070  14.180 -0.3353 -1.8237  0.5251
17467TIP3    H273817   5.878   0.173  14.199  0.1796 -1.0919 -0.3855
17468TIP3   OH273818   2.091   6.002  14.148  0.5005 -0.1083 -0.3040
17468TIP3    H173819   2.024   6.045  14.096 -0.6129 -1.4560 -0.0513
17468TIP3    H273820   2.136   6.073  14.193  0.2544  0.9318 -1.6495
17469TIP3   OH273821   4.250   3.872  12.650 -0.0822 -0.1195 -0.2513
17469TIP3    H173822   4.211   3.825  12.724  1.2480  2.5207  2.3261
17469TIP3    H273823   4.175   3.896  12.596 -1.2995 -0.8635  1.0129
17470TIP3   OH273824   6.649   5.458   2.133  0.5376  0.1685  0.8108
17470TIP3    H173825   6.591   5.460   2.209  0.3536 -0.5314  0.7002
17470TIP3    H273826   6.666   5.365   2.119 -2.3224 -0.1000 -2.1262
17471TIP3   OH273827   6.348   5.106  16.695  0.2765  0.7736 -0.1679
17471TIP3    H173828   6.305   5.028  16.729 -0.7911  0.4508 -2.0834
17471TIP3    H273829   6.419   5.072  16.640  0.4698  1.1909 -0.1805
17472TIP3   OH273830   5.026   4.255   0.951 -0.1670 -0.3362 -0.0277
17472TIP3    H173831   5.076   4.210   0.883 -2.2266  0.0726 -1.9260
17472TIP3    H273832   5.000   4.338   0.911 -0.9183  0.2060  1.5050
17473TIP3   OH273833   3.788   3.449  13.681  0.2016 -0.6654 -0.4459
17473TIP3    H173834   3.727   3.402  13.625 -0.1489 -1.6133  0.6914
17473TIP3    H273835   3.777   3.541  13.656  0.7718 -1.1162 -2.5951
17474TIP3   OH273836   2.578   5.582  14.930 -0.1967 -0.1397 -0.4359
17474TIP3    H173837   2.513   5.643  14.966 -0.8413 -0.8245 -0.4195
17474TIP3    H273838   2.544   5.559  14.844 -0.1538 -0.7700 -0.2858
17475TIP3   OH273839   6.353   0.308  16.679  0.2662  0.2421  0.0698
17475TIP3    H173840   6.293   0.234  16.678 -1.3773  1.4460  1.9986
17475TIP3    H273841   6.360   0.332  16.771  2.7377  0.9745 -0.2375
17476TIP3   OH273842   3.218   4.017  14.422  0.3751  0.0163  0.2470
17476TIP3    H173843   3.142   4.041  14.474  1.6236  0.3989  1.9715
17476TIP3    H273844   3.182   3.982  14.340 -1.6105  0.7300  0.7837
17477TIP3   OH273845   2.543   5.288   4.722 -0.0873  0.5671 -0.1243
17477TIP3    H173846   2.595   5.210   4.704  0.9064  1.1406  0.1660
17477TIP3    H273847   2.496   5.267   4.803 -2.3689 -0.9290 -1.7110
17478TIP3   OH273848   2.551   4.462  14.107  0.0715 -0.3126 -0.1138
17478TIP3    H173849   2.501   4.389  14.144  0.0004 -0.3171 -0.2206
17478TIP3    H273850   2.599   4.498  14.182 -1.0156  0.4573  0.2259
17479TIP3   OH273851   1.846   0.003   0.971  0.5448 -1.0455  0.7271
17479TIP3    H173852   1.931  -0.041   0.969  2.8377  2.7940  2.0773
17479TIP3    H273853   1.868   0.096   0.980 -3.8475  0.2962 -0.1429
17480TIP3   OH273854   2.541   0.702   3.726 -0.0124  0.2302 -0.2867
17480TIP3    H173855   2.614   0.700   3.663  0.7062  0.0372  0.5351
17480TIP3    H273856   2.579   0.670   3.808 -0.6913  1.4060  0.5069
17481TIP3   OH273857   3.875   6.425  11.034  0.1693 -0.1746 -0.2049
17481TIP3    H173858   3.884   6.382  10.949 -0.4916 -0.8661  0.0581
17481TIP3    H273859   3.828   6.506  11.016  0.9120  0.1620 -0.6332
17482TIP3   OH273860   0.464   3.130   4.912  0.3077  0.3618 -0.2695
17482TIP3    H173861   0.436   3.221   4.917 -0.8342  0.0896 -1.0841
17482TIP3    H273862   0.557   3.131   4.935 -0.1296  1.4535  1.6143
17483TIP3   OH273863   4.777   6.681  17.149 -0.4129 -0.0223 -0.2171
17483TIP3    H173864   4.802   6.764  17.188 -0.9930  0.1107 -0.1309
17483TIP3    H273865   4.694   6.698  17.105 -0.8517 -0.7082  0.3247
17484TIP3   OH273866   4.656   5.109  11.254 -0.2426 -0.0057 -0.1998
17484TIP3    H173867   4.602   5.111  11.175 -0.9739 -0.3749  0.2805
17484TIP3    H273868   4.746   5.105  11.221 -0.5744 -1.1955 -1.0286
17485TIP3   OH273869   4.816   1.077   0.760  0.3223 -0.1846 -0.1918
17485TIP3    H173870   4.771   1.043   0.837 -0.7180  0.4664 -0.4989
17485TIP3    H273871   4.848   0.999   0.715 -1.9878 -0.7905 -0.8710
17486TIP3   OH273872   4.538   4.291   3.125  0.6387 -0.0794  0.4822
17486TIP3    H173873   4.448   4.267   3.147  0.7088  0.9419  2.0660
17486TIP3    H273874   4.546   4.274   3.031 -1.2231 -0.1041  0.3034
17487TIP3   OH273875   1.657   1.454   5.558 -0.3799 -0.0713 -0.6532
17487TIP3    H173876   1.743   1.494   5.561 -0.0148 -0.7499 -1.5454
17487TIP3    H273877   1.667   1.371   5.605 -1.1241  0.8270  1.1726
17488TIP3   OH273878   0.838   5.657  14.851 -0.3318 -0.1891  0.3424
17488TIP3    H173879   0.790   5.725  14.804 -0.9450  0.7449  2.2409
17488TIP3    H273880   0.783   5.636  14.926  0.2870 -2.1394  0.2968
17489TIP3   OH273881   1.064   6.773   5.043  0.4826 -0.0445 -0.2436
17489TIP3    H173882   1.056   6.678   5.051  1.1891 -0.1802 -0.9531
17489TIP3    H273883   0.988   6.799   4.992  0.0891 -0.1746  0.2666
17490TIP3   OH273884   1.989   1.331  10.388 -0.4817  0.2272  0.0840
17490TIP3    H173885   2.034   1.402  10.342  1.1711  0.9652  2.6354
17490TIP3    H273886   2.042   1.253  10.372 -1.7292 -0.2934 -1.8593
17491TIP3   OH273887   3.001   1.990   0.816  0.1317 -0.9089  0.1715
17491TIP3    H173888   2.925   1.946   0.854 -0.3859 -0.3361 -0.1848
17491TIP3    H273889   2.973   2.013   0.727  0.6760 -0.5615  0.0870
17492TIP3   OH273890   5.268   1.539  12.486 -0.1776 -0.3303  0.1744
17492TIP3    H173891   5.211   1.615  12.501  0.0849 -0.2095  0.5740
17492TIP3    H273892   5.333   1.569  12.422  0.7780  0.2340  1.3682
17493TIP3   OH273893   2.130   5.143   1.234 -0.0192 -0.1589  0.2006
17493TIP3    H173894   2.084   5.164   1.152 -0.4373  0.5634  0.6073
17493TIP3    H273895   2.217   5.179   1.223 -0.0814 -0.0458  0.0775
17494TIP3   OH273896   3.177   0.072  15.766  0.1346  0.0048 -0.2187
17494TIP3    H173897   3.094   0.119  15.763  0.7219  1.1111  0.1257
17494TIP3    H273898   3.227   0.118  15.834  0.9331 -0.7944 -0.2582
17495TIP3   OH273899   3.596   3.977  14.354 -0.1387 -0.0027  0.5842
17495TIP3    H173900   3.552   4.060  14.371 -0.3031 -0.2250  1.2953
17495TIP3    H273901   3.681   3.986  14.396  0.5626  0.4666 -0.8813
17496TIP3   OH273902   4.544   5.354  14.563  0.4445  0.1165 -0.4574
17496TIP3    H173903   4.625   5.357  14.613  1.8500  1.1629 -2.6373
17496TIP3    H273904   4.550   5.273  14.512  1.2198  1.1911 -2.1964
17497TIP3   OH273905   4.790   5.134   3.935  0.1991 -0.9108  0.2133
17497TIP3    H173906   4.802   5.052   3.888  0.3717 -0.9821  0.3784
17497TIP3    H273907   4.711   5.172   3.897  0.1117 -1.1577  0.1417
17498TIP3   OH273908   3.642   4.616   3.663 -0.2113 -0.0570 -0.1636
17498TIP3    H173909   3.732   4.584   3.669 -0.2422 -0.3730 -1.1880
17498TIP3    H273910   3.640   4.694   3.718  0.6109 -0.2120  0.0965
17499TIP3   OH273911   0.787   4.045  14.426 -0.0428 -0.4169  0.0607
17499TIP3    H173912   0.863   4.074  14.375 -0.7230 -0.0574 -0.7774
17499TIP3    H273913   0.799   3.950  14.433  0.9152 -0.2658  0.6791
17500TIP3   OH273914   2.196   0.948   4.768  0.1910  0.1522 -0.0078
17500TIP3    H173915   2.116   0.995   4.745  0.0631 -0.8755 -1.8796
17500TIP3    H273916   2.265   0.988   4.714  0.4889 -0.4110 -0.0589
17501TIP3   OH273917   5.009   1.966  16.589 -0.0379 -0.3214 -0.1661
17501TIP3    H173918   4.967   1.970  16.503  1.9455 -1.1304 -1.2323
17501TIP3    H273919   4.938   1.986  16.650 -1.3166  1.1967 -2.0007
17502TIP3   OH273920   6.383   2.416   1.311 -0.1802  0.0669  0.3133
17502TIP3    H173921   6.289   2.424   1.327 -0.2615  1.4276 -0.5974
17502TIP3    H273922   6.396   2.324   1.288 -1.3584 -0.0614  0.0710
17503TIP3   OH273923   5.182   0.617   5.038 -0.2790 -0.3188  0.2095
17503TIP3    H173924   5.131   0.567   5.103 -0.9951 -1.0664 -0.8948
17503TIP3    H273925   5.136   0.602   4.955 -0.3309  1.9424 -0.2153
17504TIP3   OH273926   1.994   2.779  13.352 -0.3330  0.0179 -0.5965
17504TIP3    H173927   1.964   2.765  13.442 -2.5407  1.0295 -1.0896
17504TIP3    H273928   2.037   2.698  13.328 -0.0336 -0.4113  1.2507
17505TIP3   OH273929   4.781   0.676   3.172  0.1238  0.2915  0.5406
17505TIP3    H173930   4.759   0.759   3.130  0.5335  0.2362  0.2181
17505TIP3    H273931   4.807   0.618   3.101  1.1786  0.3114  0.8908
17506TIP3   OH273932   5.441   3.131  11.776 -0.7641 -0.3307  0.0198
17506TIP3    H173933   5.478   3.216  11.751 -1.4054  0.0073  0.1903
17506TIP3    H273934   5.350   3.151  11.799 -1.0208 -1.1294 -0.2985
17507TIP3   OH273935   2.871   2.373   0.309  0.0764 -0.5815 -0.2190
17507TIP3    H173936   2.877   2.334   0.222  1.0696  0.6499 -0.7229
17507TIP3    H273937   2.954   2.352   0.351  0.5937  0.8651 -0.4664
17508TIP3   OH273938   4.275   6.036  11.077 -0.2613  0.5135  0.2680
17508TIP3    H173939   4.238   6.123  11.093  0.3811  0.8115  0.1471
17508TIP3    H273940   4.270   6.024  10.983  2.1535  1.5795 -0.0650
17509TIP3   OH273941   3.236   5.981   0.640 -0.2586 -0.0705  0.1638
17509TIP3    H173942   3.177   6.019   0.706 -0.4039 -2.2181  1.4045
17509TIP3    H273943   3.305   5.940   0.692  0.2069 -0.9104 -1.0828
17510TIP3   OH273944   5.780   2.955  13.771 -0.3825  0.3012  0.3702
17510TIP3    H173945   5.870   2.971  13.743 -0.5837  0.5495 -0.1376
17510TIP3    H273946   5.726   2.988  13.700 -0.8670 -0.3787  0.4080
17511TIP3   OH273947   2.884   2.740  12.234  0.3295 -0.7727  0.4273
17511TIP3    H173948   2.865   2.647  12.236 -1.6133 -0.4592  2.9401
17511TIP3    H273949   2.812   2.779  12.184  0.1123 -0.5005  0.9348
17512TIP3   OH273950   0.134   3.722   5.392  0.1718 -0.0714 -0.1016
17512TIP3    H173951   0.066   3.702   5.456 -0.7912 -1.4735 -1.5081
17512TIP3    H273952   0.187   3.643   5.387  0.9817  0.4619 -0.1640
17513TIP3   OH273953   4.496   4.545   2.797 -0.0145 -0.1355  0.1061
17513TIP3    H173954   4.493   4.637   2.822 -2.2123 -0.0659 -0.2278
17513TIP3    H273955   4.466   4.498   2.875 -0.4260 -0.4234 -0.2185
17514TIP3   OH273956   1.158   5.228   4.125 -0.4710  0.3762 -0.0713
17514TIP3    H173957   1.205   5.187   4.198 -1.3324  1.5021  1.1772
17514TIP3    H273958   1.166   5.166   4.053  0.3660 -0.8124  0.9964
17515TIP3   OH273959   0.742   4.036  14.729  0.5372 -0.3116  0.4829
17515TIP3    H173960   0.756   4.051  14.635 -0.8135 -0.2132  0.2772
17515TIP3    H273961   0.749   3.941  14.739  0.1331 -0.3796  0.1717
17516TIP3   OH273962   4.324   1.010   2.581  0.2256 -0.7520  0.4222
17516TIP3    H173963   4.328   0.915   2.591  0.0170 -0.9008 -0.8062
17516TIP3    H273964   4.259   1.024   2.512 -0.9814  0.3730  1.7299
17517TIP3   OH273965   3.766   1.598   3.978  0.1648  1.0927  0.7661
17517TIP3    H173966   3.737   1.576   4.067  0.0617  3.2169  1.3310
17517TIP3    H273967   3.861   1.606   3.985  0.2951 -0.0281  0.3548
17518TIP3   OH273968   3.948   2.319  13.944 -0.4779 -0.0053 -0.3943
17518TIP3    H173969   3.862   2.302  13.981 -0.7762  1.4197 -0.3839
17518TIP3    H273970   4.006   2.257  13.989 -1.2096  0.1680  0.8373
17519TIP3   OH273971   3.479   3.164  15.551  0.2362  0.2735 -0.4870
17519TIP3    H173972   3.570   3.188  15.568  0.4808 -0.2206 -1.0522
17519TIP3    H273973   3.483   3.109  15.473 -0.2065 -2.2334  1.1495
17520TIP3   OH273974   1.046   5.535  10.987  0.3168 -0.4782  0.1986
17520TIP3    H173975   1.076   5.623  11.011 -0.8641 -0.3178  1.2279
17520TIP3    H273976   1.126   5.483  10.980  1.0688  0.7752 -0.9239
17521TIP3   OH273977   1.339   6.662   4.168  0.1283 -0.0657  0.0506
17521TIP3    H173978   1.372   6.672   4.258  0.5658 -0.4009 -0.0649
17521TIP3    H273979   1.412   6.621   4.121 -0.5004 -0.9627 -0.1798
17522TIP3   OH273980   5.086   0.383   3.758 -0.2824  0.6558 -0.1557
17522TIP3    H173981   5.048   0.295   3.756 -1.9776  1.3390 -0.8719
17522TIP3    H273982   5.130   0.392   3.673  1.1912  0.0050  0.5123
17523TIP3   OH273983   3.782   4.860   5.033 -0.4358 -0.3892  0.8266
17523TIP3    H173984   3.724   4.805   4.981 -0.6813 -0.9792  1.7056
17523TIP3    H273985   3.741   4.946   5.032  0.2811 -0.0129 -1.0998
17524TIP3   OH273986   3.560   1.280   3.949 -0.0024 -0.4510 -0.1788
17524TIP3    H173987   3.541   1.371   3.927  1.5218  0.2926  1.3703
17524TIP3    H273988   3.483   1.250   3.998 -0.8295 -0.2620 -1.3209
17525TIP3   OH273989   4.775   1.757   5.686  1.0332 -0.0033  0.3047
17525TIP3    H173990   4.734   1.674   5.710  0.8197  0.4500  1.6088
17525TIP3    H273991   4.734   1.821   5.745  0.9625  1.0873 -0.8927
17526TIP3   OH273992   0.346   6.341   3.280  0.6908 -0.2469  0.3496
17526TIP3    H173993   0.319   6.249   3.270  1.2049 -0.3270 -0.3567
17526TIP3    H273994   0.405   6.340   3.354 -1.1030 -0.0901  1.8634
17527TIP3   OH273995   2.966   5.826   3.931 -0.0085 -0.4400  0.1277
17527TIP3    H173996   2.871   5.820   3.930 -0.0695  0.3714 -0.1551
17527TIP3    H273997   2.995   5.748   3.978 -0.7863 -0.9837 -0.2724
17528TIP3   OH273998   2.026   4.810   6.097 -0.4640 -0.3272  0.4344
17528TIP3    H173999   1.951   4.860   6.130 -0.1655 -0.0592  0.7133
17528TIP3    H274000   2.071   4.779   6.175 -0.6178 -1.0010  0.2641
17529TIP3   OH274001   0.838   4.944  14.429  0.5423 -0.0648 -0.3373
17529TIP3    H174002   0.778   4.889  14.379  1.0223 -0.1620 -0.8195
17529TIP3    H274003   0.849   5.023  14.376  0.8839 -0.0746 -0.2877
17530TIP3   OH274004   3.192   6.429   5.995  0.0328 -0.0520 -0.5529
17530TIP3    H174005   3.101   6.408   6.015  0.4354 -0.0846  1.5221
17530TIP3    H274006   3.241   6.352   6.023  0.8686  0.8008  0.4053
17531TIP3   OH274007   4.310   5.225   6.041  0.0190  0.6764  0.1974
17531TIP3    H174008   4.287   5.318   6.051 -0.5875  0.4600  0.9460
17531TIP3    H274009   4.404   5.222   6.058 -0.2336  0.9492  1.8911
17532TIP3   OH274010   6.187   1.166  13.479 -0.4646 -0.1041 -0.1689
17532TIP3    H174011   6.280   1.190  13.480 -0.1002 -1.4428  0.1890
17532TIP3    H274012   6.141   1.248  13.496  0.7305  0.2955  1.3862
17533TIP3   OH274013   5.858   0.839  16.294  0.5021 -0.2369 -0.4130
17533TIP3    H174014   5.891   0.913  16.243  1.0678 -0.2188 -0.0248
17533TIP3    H274015   5.765   0.859  16.305  0.1071 -0.7860 -2.3444
17534TIP3   OH274016   6.034   3.726   3.649  0.4778  0.2861  0.4155
17534TIP3    H174017   6.044   3.658   3.716  0.7051  0.7525  0.8596
17534TIP3    H274018   5.961   3.696   3.595  0.5651 -0.3026  0.6139
17535TIP3   OH274019   6.100   5.134  14.979 -0.1337 -0.0369  0.1845
17535TIP3    H174020   6.025   5.184  14.947  0.1769  1.1243  1.2149
17535TIP3    H274021   6.065   5.077  15.047 -0.2807 -0.4087 -0.1932
17536TIP3   OH274022   3.704   3.195   2.613 -0.6145  0.1830 -0.0717
17536TIP3    H174023   3.646   3.131   2.653 -0.1365 -1.0924 -1.3138
17536TIP3    H274024   3.702   3.270   2.672 -0.9983 -1.0629  1.5635
17537TIP3   OH274025   2.986   4.956  16.896  0.8448  0.3237  0.2069
17537TIP3    H174026   2.949   4.922  16.814  1.5602  0.6701 -0.2642
17537TIP3    H274027   2.957   4.893  16.962  0.6356 -0.2094 -0.3762
17538TIP3   OH274028   5.875   1.636  14.063 -0.4657 -0.2427  0.2396
17538TIP3    H174029   5.785   1.623  14.095 -0.1004  0.8382  1.8142
17538TIP3    H274030   5.876   1.593  13.978 -2.4492 -0.4037  0.2393
17539TIP3   OH274031   5.086   5.797   3.841  0.0720  0.2449 -0.2200
17539TIP3    H174032   5.166   5.809   3.791  0.2605  3.1759  0.5957
17539TIP3    H274033   5.026   5.753   3.781  1.6238 -0.1099 -1.5541
17540TIP3   OH274034   5.946   2.424  11.022 -0.0688  0.2730 -0.2522
17540TIP3    H174035   5.972   2.502  11.071  0.5721  0.3784 -0.7370
17540TIP3    H274036   5.907   2.367  11.088 -1.9683  1.6075 -0.1515
17541TIP3   OH274037   0.707   6.639   0.611 -0.0760 -0.5101 -0.1142
17541TIP3    H174038   0.720   6.545   0.610 -2.2667 -0.8527 -0.6004
17541TIP3    H274039   0.615   6.651   0.635  0.6396  1.5799  1.9805
17542TIP3   OH274040   1.976   2.822   2.682  0.7509 -0.7023 -0.1704
17542TIP3    H174041   2.019   2.775   2.611  0.8562  0.5589 -0.9808
17542TIP3    H274042   2.033   2.809   2.758  0.5878 -2.1464 -0.2677
17543TIP3   OH274043   6.643   4.774   0.899 -0.2455  0.0807  0.0714
17543TIP3    H174044   6.729   4.757   0.939 -0.3396  0.0973  0.2852
17543TIP3    H274045   6.663   4.809   0.813 -0.0248 -1.7539 -0.6712
17544TIP3   OH274046   5.721   3.951   2.554  0.1316  0.1875  0.5335
17544TIP3    H174047   5.670   3.974   2.476  0.8489  1.0392  0.2959
17544TIP3    H274048   5.672   3.880   2.595 -0.0093 -0.6026 -0.9564
17545TIP3   OH274049   3.782   1.842  11.452  0.6249 -0.2065 -0.3929
17545TIP3    H174050   3.781   1.788  11.373  0.9133  0.5132 -0.8986
17545TIP3    H274051   3.847   1.801  11.508 -0.6573 -1.6116  0.1215
17546TIP3   OH274052   2.303   4.912  13.160  0.5067 -0.3102 -0.8823
17546TIP3    H174053   2.246   4.899  13.085  0.2932  0.1000 -0.7954
17546TIP3    H274054   2.246   4.952  13.227  1.1034  1.0153 -1.1241
17547TIP3   OH274055   0.820   5.809   0.947 -0.5563  0.2694  0.1942
17547TIP3    H174056   0.802   5.901   0.931  2.7974  1.0645  0.3433
17547TIP3    H274057   0.806   5.766   0.862  0.2357  1.3684 -0.5081
17548TIP3   OH274058   4.888   3.276  16.507 -0.7011  0.0578 -0.4277
17548TIP3    H174059   4.828   3.307  16.439  0.1843 -1.4108 -1.9747
17548TIP3    H274060   4.974   3.277  16.464  0.4296  2.0587  1.7025
17549TIP3   OH274061   1.698   5.848  11.409 -0.7255 -0.0028 -0.1424
17549TIP3    H174062   1.614   5.886  11.436 -0.3245 -0.0332  1.1709
17549TIP3    H274063   1.747   5.922  11.373  0.3517  1.0397  3.0955
17550TIP3   OH274064   2.983   5.110  12.157 -0.3345  0.0836 -0.3741
17550TIP3    H174065   3.028   5.106  12.241  0.4110 -1.1079 -0.8048
17550TIP3    H274066   3.013   5.032  12.109 -3.2654 -1.1177 -0.4928
17551TIP3   OH274067   1.246   2.213  14.892 -0.1701 -0.1810 -0.3748
17551TIP3    H174068   1.180   2.154  14.855 -1.1298  0.5002  0.2188
17551TIP3    H274069   1.204   2.252  14.968  0.9552  0.2110  0.0712
17552TIP3   OH274070   1.138   3.867  12.108  0.0141  0.1489  0.6831
17552TIP3    H174071   1.149   3.872  12.203 -0.6082  1.2468  0.7248
17552TIP3    H274072   1.127   3.959  12.082  1.5181 -0.0131 -0.6253
17553TIP3   OH274073   4.035   6.349  11.881 -0.3345 -0.5929 -0.1274
17553TIP3    H174074   3.996   6.262  11.872 -1.3157 -0.0896 -0.9619
17553TIP3    H274075   4.015   6.375  11.971  0.0665 -1.2711  0.1639
17554TIP3   OH274076   1.733   5.604  13.999  0.0257  0.0832  0.4516
17554TIP3    H174077   1.649   5.650  14.004 -0.9177 -1.0433 -2.8205
17554TIP3    H274078   1.711   5.512  14.017  0.8877  0.0199  1.2391
17555TIP3   OH274079   6.181   6.438  12.571 -0.4058  0.4664  0.3916
17555TIP3    H174080   6.174   6.373  12.641  2.7667 -0.3948  0.0662
17555TIP3    H274081   6.165   6.388  12.491  3.6814 -0.5634 -0.0113
17556TIP3   OH274082   5.653   5.330  12.246 -0.2760  0.2625  0.6147
17556TIP3    H174083   5.566   5.319  12.284  0.0870 -0.5007  1.2496
17556TIP3    H274084   5.686   5.411  12.283 -0.5961  0.4002  0.6014
17557TIP3   OH274085   1.386   4.684  11.097 -0.0067 -0.1964 -0.3301
17557TIP3    H174086   1.464   4.670  11.042  0.4985  1.3635 -0.0729
17557TIP3    H274087   1.315   4.640  11.050  0.9206 -1.2023 -0.8372
17558TIP3   OH274088   0.736   1.312  11.738  0.7839  0.7272 -0.0193
17558TIP3    H174089   0.700   1.224  11.734  1.2605  0.3091  2.8220
17558TIP3    H274090   0.827   1.300  11.766  1.0543  2.0839 -0.2260
17559TIP3   OH274091   0.709   4.648  15.649  0.0863 -0.6493 -0.2430
17559TIP3    H174092   0.657   4.576  15.615  0.1426 -0.4574 -0.7422
17559TIP3    H274093   0.797   4.612  15.660  0.9508  0.1600 -3.5769
17560TIP3   OH274094   5.554   5.955  14.929 -0.0014  0.0897  1.2055
17560TIP3    H174095   5.597   6.014  14.866  0.6034 -0.7557  0.8075
17560TIP3    H274096   5.499   5.898  14.875 -0.9258  0.5574  1.6313
17561TIP3   OH274097   2.936   2.149  14.609  0.2279 -0.3109 -0.1105
17561TIP3    H174098   2.959   2.129  14.700 -0.1590  0.5758  0.1939
17561TIP3    H274099   2.853   2.197  14.616  0.4624  0.2176 -0.9002
17562TIP3   OH274100   4.014   2.622   2.386 -0.2830  0.1048 -0.4766
17562TIP3    H174101   4.079   2.670   2.336  0.1055 -1.3850 -1.4750
17562TIP3    H274102   4.034   2.530   2.369 -1.3808 -0.4144  0.8524
17563TIP3   OH274103   1.478   4.754  11.832 -0.0475 -0.4905 -0.0669
17563TIP3    H174104   1.524   4.720  11.908  1.7055  1.7733  0.0056
17563TIP3    H274105   1.432   4.832  11.864  1.6831  1.2093 -1.4451
17564TIP3   OH274106   1.800   4.223  16.089  0.2653 -0.4080 -0.6895
17564TIP3    H174107   1.874   4.233  16.149 -0.5125 -2.0020  0.5998
17564TIP3    H274108   1.729   4.273  16.129  0.6866  1.4395 -2.1205
17565TIP3   OH274109   0.501   5.750   1.579  0.2484 -0.3773 -0.2898
17565TIP3    H174110   0.560   5.771   1.506 -0.9688  3.9167 -0.3447
17565TIP3    H274111   0.555   5.759   1.657  0.8839 -2.0827 -0.5068
17566TIP3   OH274112   2.813   5.691  15.629 -0.5313 -0.6010  0.6824
17566TIP3    H174113   2.860   5.613  15.659 -0.4234 -1.7981 -2.2136
17566TIP3    H274114   2.881   5.759  15.624  0.2324 -1.4049 -0.3313
17567TIP3   OH274115   6.103   4.008   6.249  0.1871  0.8995  0.2931
17567TIP3    H174116   6.078   4.058   6.326  0.8491  0.4237  0.8364
17567TIP3    H274117   6.197   3.996   6.258  0.0477 -0.4291  0.1838
17568TIP3   OH274118   1.027   0.445   6.417  0.1122  0.2265  0.4733
17568TIP3    H174119   1.034   0.350   6.414  0.2366  0.2259  0.7187
17568TIP3    H274120   0.992   0.470   6.332 -1.4904 -0.1706  0.9741
17569TIP3   OH274121   0.651   6.611   1.164 -0.3784 -0.2289  0.3251
17569TIP3    H174122   0.612   6.637   1.080 -0.1404  0.3455  0.3879
17569TIP3    H274123   0.602   6.534   1.190 -0.0427 -0.7997 -0.6621
17570TIP3   OH274124   0.876   1.812  15.618  0.3189  0.6816 -0.3196
17570TIP3    H174125   0.816   1.826  15.691  0.5765 -2.6580  0.6842
17570TIP3    H274126   0.962   1.834  15.653  0.5603 -1.7418  0.7953
17571TIP3   OH274127   5.626   0.380  16.860 -0.1406 -0.2470 -0.0693
17571TIP3    H174128   5.594   0.457  16.907 -1.0137 -0.6006 -0.0688
17571TIP3    H274129   5.636   0.408  16.770  2.6147  0.7626  0.4625
17572TIP3   OH274130   2.314   2.966   1.397 -0.7143 -0.4417 -0.3530
17572TIP3    H174131   2.304   3.058   1.420 -0.2721 -0.6766  0.8222
17572TIP3    H274132   2.354   2.967   1.310  1.3742  0.5077  0.5539
17573TIP3   OH274133   2.376   1.770   3.419 -0.1702 -0.8135 -0.0294
17573TIP3    H174134   2.380   1.696   3.359 -0.4926 -0.5634 -0.3563
17573TIP3    H274135   2.458   1.818   3.403 -0.1849 -0.8314 -0.1591
17574TIP3   OH274136   3.433   0.761  14.672  0.3510 -0.4520 -0.0774
17574TIP3    H174137   3.421   0.856  14.671  0.5401 -0.4086 -2.2180
17574TIP3    H274138   3.370   0.729  14.737 -1.5653  0.9250 -1.1710
17575TIP3   OH274139   2.053   3.886  15.021 -0.1390 -0.2257  0.5922
17575TIP3    H174140   2.052   3.903  15.115  0.2093 -0.0853  0.5725
17575TIP3    H274141   1.961   3.872  14.998 -0.1568 -0.9974  1.0859
17576TIP3   OH274142   2.618   3.763   6.039  0.6257  0.0507  0.1833
17576TIP3    H174143   2.685   3.830   6.028 -0.6484  1.6490  1.6022
17576TIP3    H274144   2.665   3.680   6.034  2.3989  1.0618 -0.6952
17577TIP3   OH274145   5.249   5.853  11.746  0.0283 -0.7820  0.4387
17577TIP3    H174146   5.305   5.868  11.670 -0.2246 -2.8665 -0.2284
17577TIP3    H274147   5.160   5.849  11.709 -0.0270 -2.5686  0.6727
17578TIP3   OH274148   3.954   5.825   1.640  0.0502  0.0970 -0.2181
17578TIP3    H174149   3.880   5.779   1.602 -0.1165  1.9786 -2.4101
17578TIP3    H274150   4.029   5.769   1.624 -0.6543 -1.1403  0.6758
17579TIP3   OH274151   1.854   2.527   4.765 -0.2193 -0.3861 -0.3324
17579TIP3    H174152   1.907   2.451   4.789  0.6001  0.2352 -0.1219
17579TIP3    H274153   1.785   2.531   4.832  0.2136 -0.4715  0.1186
17580TIP3   OH274154   3.411   3.527   4.729 -0.1707  0.0350 -0.0106
17580TIP3    H174155   3.408   3.522   4.825 -1.2769  0.5249 -0.0034
17580TIP3    H274156   3.364   3.607   4.708  1.9418  1.1226 -0.8850
17581TIP3   OH274157   2.743   4.494   3.673 -0.2933 -0.3115 -0.6172
17581TIP3    H174158   2.713   4.482   3.583  0.6776  0.3757 -1.0535
17581TIP3    H274159   2.830   4.453   3.675  0.3302  0.9773 -0.4046
17582TIP3   OH274160   6.747   0.477  16.328 -0.5292 -0.4458 -0.4991
17582TIP3    H174161   6.742   0.542  16.258 -1.0090 -0.4505 -0.4662
17582TIP3    H274162   6.774   0.396  16.283  1.9479  0.1639 -0.2937
17583TIP3   OH274163   0.770   5.051  15.422  0.1432 -0.3282  0.4805
17583TIP3    H174164   0.735   4.968  15.454 -1.2343  0.2228  0.4702
17583TIP3    H274165   0.805   5.095  15.499 -0.5150 -0.2569  0.7365
17584TIP3   OH274166   0.567   3.291   6.344 -0.1156  0.3588  0.4130
17584TIP3    H174167   0.606   3.368   6.304  0.7628  0.0979  0.7511
17584TIP3    H274168   0.632   3.221   6.332 -0.1280  0.1033  1.6603
17585TIP3   OH274169   4.786   3.349  16.754 -0.0856 -0.4117  0.2029
17585TIP3    H174170   4.833   3.327  16.674 -1.7216 -2.1362 -0.3446
17585TIP3    H274171   4.714   3.406  16.725  2.0046  3.0583  1.1608
17586TIP3   OH274172   5.266   1.897  16.548 -0.0559  0.3720 -0.3706
17586TIP3    H174173   5.172   1.915  16.558 -0.1003 -0.4765  1.0849
17586TIP3    H274174   5.294   1.954  16.477 -1.3270  1.8685  0.2762
17587TIP3   OH274175   1.367   3.157  12.272 -0.2006  0.0757 -0.7003
17587TIP3    H174176   1.313   3.207  12.210 -1.2809 -0.2322 -0.0404
17587TIP3    H274177   1.308   3.090  12.306  0.8914 -0.9054 -0.6755
17588TIP3   OH274178   0.586   2.113  17.006  0.2767 -0.2754 -0.5672
17588TIP3    H174179   0.658   2.099  16.945  1.4933 -1.3044  1.0323
17588TIP3    H274180   0.623   2.166  17.077 -0.3129 -1.3446  0.5975
17589TIP3   OH274181   3.102   5.779  12.471 -0.1071 -0.4453 -0.2923
17589TIP3    H174182   3.076   5.865  12.503  1.2690  0.4431 -1.4505
17589TIP3    H274183   3.092   5.785  12.376 -1.3120 -2.0420 -0.2991
17590TIP3   OH274184   4.575   6.747  16.282  0.6659  0.6956 -0.1742
17590TIP3    H174185   4.609   6.821  16.233 -0.7011  0.8597 -0.9183
17590TIP3    H274186   4.519   6.786  16.350  0.0982  0.3642 -0.4444
17591TIP3   OH274187   1.030   5.676   0.778 -0.0915  0.2809 -0.3476
17591TIP3    H174188   0.967   5.613   0.743  2.1114 -1.9455 -0.5701
17591TIP3    H274189   1.055   5.640   0.863  1.9292  0.2741 -0.8923
17592TIP3   OH274190   0.578   3.626   3.638  0.1525 -0.2093  0.0178
17592TIP3    H174191   0.665   3.618   3.676  0.2989  1.1850  0.0310
17592TIP3    H274192   0.522   3.651   3.711  0.2790  1.6441 -0.4671
17593TIP3   OH274193   4.215   5.691   3.071  0.7139  0.2108 -0.1176
17593TIP3    H174194   4.146   5.742   3.113  1.0496  0.5118  0.0719
17593TIP3    H274195   4.198   5.601   3.099 -0.5350  0.0314 -1.3285
17594TIP3   OH274196   4.175   0.158   1.821  0.1920 -0.2377  0.0413
17594TIP3    H174197   4.153   0.134   1.911 -0.8132  0.5698  0.0176
17594TIP3    H274198   4.093   0.190   1.784  1.0087  1.1657 -0.5993
17595TIP3   OH274199   2.230   4.458   2.218  0.2284  0.3293  0.1016
17595TIP3    H174200   2.259   4.437   2.129 -1.6181 -0.2407 -0.4194
17595TIP3    H274201   2.195   4.546   2.212 -0.7169 -0.0384  0.0261
17596TIP3   OH274202   4.589   5.891  11.790  0.1870  0.0723 -0.3277
17596TIP3    H174203   4.675   5.850  11.781  0.3560  0.5297 -0.8342
17596TIP3    H274204   4.551   5.849  11.867  1.1607  0.3876  0.3487
17597TIP3   OH274205   5.325   0.706  11.189 -0.3692 -0.5222  0.2168
17597TIP3    H174206   5.418   0.696  11.169  0.0046  0.6433  1.2034
17597TIP3    H274207   5.310   0.648  11.263 -1.3061 -3.3961 -2.0776
17598TIP3   OH274208   4.121   1.983  12.502  0.4978 -0.3284  0.1573
17598TIP3    H174209   4.150   2.061  12.549  2.6909 -1.3091  0.5546
17598TIP3    H274210   4.140   2.001  12.410  3.6446 -1.3356  0.4925
17599TIP3   OH274211   2.907   5.334   3.543  0.0589  0.2391  0.2613
17599TIP3    H174212   2.934   5.250   3.505  1.3681  0.7792 -0.0736
17599TIP3    H274213   2.858   5.377   3.474 -0.2745 -0.0823  0.2945
17600TIP3   OH274214   0.377   5.826  15.104  0.6312 -0.1737 -0.6914
17600TIP3    H174215   0.412   5.750  15.057  0.2561 -1.1577  0.5567
17600TIP3    H274216   0.286   5.832  15.076  0.1440 -1.3261  0.5435
17601TIP3   OH274217   1.709   4.091  13.363  0.7509  0.5883  0.5930
17601TIP3    H174218   1.773   4.128  13.423 -0.8938  2.0817  1.5350
17601TIP3    H274219   1.676   4.166  13.314 -1.3265  0.1533  1.2175
17602TIP3   OH274220   6.366   3.830  16.671  0.1511  0.0318  0.2776
17602TIP3    H174221   6.340   3.755  16.618 -0.0817  0.1351  0.2445
17602TIP3    H274222   6.434   3.874  16.619  1.6675 -1.2022  1.1268
17603TIP3   OH274223   5.299   6.354  12.156  0.5318  0.5830 -0.4595
17603TIP3    H174224   5.381   6.341  12.109  0.3296  0.0248 -0.6645
17603TIP3    H274225   5.309   6.301  12.236  0.1875  0.1243 -0.7138
17604TIP3   OH274226   2.632   2.934   6.186  0.2586  0.4238 -0.2049
17604TIP3    H174227   2.705   2.976   6.230 -0.0259 -0.1322  0.8379
17604TIP3    H274228   2.616   2.854   6.236 -1.0361  0.5114 -0.4218
17605TIP3   OH274229   5.420   3.143  12.932 -0.0114  0.4149  0.4984
17605TIP3    H174230   5.327   3.166  12.941  0.3573  1.7695  1.1457
17605TIP3    H274231   5.443   3.173  12.844 -0.5541 -1.3802 -0.2880
17606TIP3   OH274232   6.092   2.251  11.900 -0.1286 -0.2116  0.8533
17606TIP3    H174233   6.186   2.257  11.914  0.2335 -0.6022 -1.1572
17606TIP3    H274234   6.061   2.342  11.905  0.9562  0.4065 -1.9182
17607TIP3   OH274235   1.221   4.519   1.450  0.3559 -0.0671 -0.0774
17607TIP3    H174236   1.291   4.560   1.501 -0.2086 -0.3676  0.9532
17607TIP3    H274237   1.198   4.441   1.500  0.9630 -1.3238 -1.6651
17608TIP3   OH274238   0.165   1.557   0.365  0.3105 -0.2325 -0.4149
17608TIP3    H174239   0.075   1.541   0.394  0.0639  0.4710 -0.7603
17608TIP3    H274240   0.212   1.582   0.444  0.0220  0.1179 -0.3520
17609TIP3   OH274241   3.395   3.130  16.947  0.0178  0.1617  0.6109
17609TIP3    H174242   3.329   3.066  16.918 -1.5950  2.0688 -0.1641
17609TIP3    H274243   3.355   3.172  17.023  0.1538  1.5956 -0.0828
17610TIP3   OH274244   5.509   0.755  13.849  0.2215  0.3980 -0.0965
17610TIP3    H174245   5.603   0.742  13.864  0.1013  0.5423  0.8396
17610TIP3    H274246   5.479   0.804  13.926 -0.3754  1.5001 -1.0084
17611TIP3   OH274247   4.818   4.472  13.990  0.1583 -0.0128  0.1564
17611TIP3    H174248   4.881   4.484  14.062 -0.9147  0.1002  1.1075
17611TIP3    H274249   4.781   4.385  14.007  0.3910 -0.2739 -0.6674
17612TIP3   OH274250   3.852   4.628   1.584 -0.0199  0.1650  0.2138
17612TIP3    H174251   3.898   4.676   1.515  0.1842  1.5038  1.2291
17612TIP3    H274252   3.818   4.550   1.541  2.3823 -0.4172 -0.8170
17613TIP3   OH274253   0.550   6.275   0.808 -0.1461 -0.3762  0.1623
17613TIP3    H174254   0.601   6.333   0.864  1.6043  0.6528 -2.3551
17613TIP3    H274255   0.463   6.315   0.804  0.9512  2.0735 -1.3436
17614TIP3   OH274256   4.968   5.493  12.631  0.8605 -0.6025  0.4712
17614TIP3    H174257   4.947   5.416  12.577  1.6074 -1.4689  1.3716
17614TIP3    H274258   5.031   5.460  12.695  0.3869  0.5272  1.5472
17615TIP3   OH274259   3.549   2.377  16.624  0.4872 -0.5517 -0.4112
17615TIP3    H174260   3.458   2.348  16.623 -0.1358  1.0641  1.7438
17615TIP3    H274261   3.572   2.387  16.531 -2.5597  1.8760 -1.0687
17616TIP3   OH274262   2.897   1.100   4.981 -0.2053  0.2161 -0.1140
17616TIP3    H174263   2.919   1.070   5.069 -0.0545  0.2258 -0.1483
17616TIP3    H274264   2.833   1.036   4.950 -0.8652  0.6574  0.3026
17617TIP3   OH274265   3.052   2.680   6.237 -0.5540 -0.4830 -0.2138
17617TIP3    H174266   2.975   2.663   6.183 -0.2353 -0.3806 -0.7072
17617TIP3    H274267   3.058   2.776   6.239 -1.1611 -0.4560  0.8635
17618TIP3   OH274268   3.705   3.739   5.203 -0.8150 -0.4814  0.1409
17618TIP3    H174269   3.795   3.759   5.232 -0.5210 -0.4416 -0.7854
17618TIP3    H274270   3.672   3.679   5.270  0.1979 -1.1515  0.0611
17619TIP3   OH274271   5.482   5.205   3.377  0.0527  0.2263 -0.2909
17619TIP3    H174272   5.438   5.190   3.460  0.9157 -1.8102 -0.1525
17619TIP3    H274273   5.568   5.238   3.400 -0.2721  1.2130 -0.4522
17620TIP3   OH274274   5.796   0.643   3.405 -0.6247  0.3849 -0.2371
17620TIP3    H174275   5.788   0.549   3.419 -0.8795  0.3864 -0.3772
17620TIP3    H274276   5.848   0.673   3.480  0.9356 -0.1149 -1.0812
17621TIP3   OH274277   0.707   5.584  10.426  0.5804 -0.1374 -0.2035
17621TIP3    H174278   0.623   5.625  10.448 -0.8717 -2.6212 -0.6797
17621TIP3    H274279   0.702   5.498  10.467  2.7033 -0.5358 -0.7082
17622TIP3   OH274280   3.277   3.517   5.693  0.3668 -0.8215 -0.1710
17622TIP3    H174281   3.223   3.588   5.657 -1.8401 -2.2107  0.1655
17622TIP3    H274282   3.278   3.534   5.788  4.6175  1.7918 -0.4218
17623TIP3   OH274283   3.353   1.865  12.042 -0.5544  0.8514  0.0968
17623TIP3    H174284   3.437   1.819  12.035 -1.2389 -0.5024  0.5033
17623TIP3    H274285   3.359   1.936  11.978  0.6700  0.4226 -0.2864
17624TIP3   OH274286   3.322   3.879   5.206  0.2102  0.3635 -0.1550
17624TIP3    H174287   3.284   3.854   5.290 -0.3795  3.7736  0.7258
17624TIP3    H274288   3.405   3.921   5.228  0.5362  0.4190 -1.3908
17625TIP3   OH274289   1.495   0.459  14.380 -0.3557 -0.0345 -0.5899
17625TIP3    H174290   1.543   0.468  14.298  0.2301  0.9441 -0.1605
17625TIP3    H274291   1.551   0.403  14.434 -0.0281  0.5279 -0.3406
17626TIP3   OH274292   5.990   6.546  11.522 -0.0129  0.1000 -0.2412
17626TIP3    H174293   5.985   6.456  11.554  0.8894  0.9864  2.6335
17626TIP3    H274294   6.012   6.536  11.429  0.0177 -2.6265 -0.0334
17627TIP3   OH274295   4.551   2.317   3.222  0.5242  0.0226  0.5237
17627TIP3    H174296   4.551   2.229   3.185  1.0354  0.3601 -0.2974
17627TIP3    H274297   4.473   2.359   3.186  0.3809 -0.0236  0.7711
17628TIP3   OH274298   2.311   2.486   1.460 -0.2856 -0.1486  0.2455
17628TIP3    H174299   2.328   2.491   1.554  2.0130 -0.4272 -0.1061
17628TIP3    H274300   2.216   2.471   1.454 -0.2123 -2.1573  2.5675
17629TIP3   OH274301   2.292   2.315   4.632 -0.8198 -0.3105  0.3462
17629TIP3    H174302   2.366   2.373   4.649 -1.3247  0.9704 -1.6220
17629TIP3    H274303   2.331   2.238   4.589 -0.3780 -0.7243  1.4357
17630TIP3   OH274304   3.738   4.389   3.815 -0.5836  0.3859  0.1099
17630TIP3    H174305   3.677   4.415   3.884 -0.6288  2.6106 -0.6978
17630TIP3    H274306   3.686   4.390   3.735  0.4459  2.2033 -0.5795
17631TIP3   OH274307   1.353   3.567  10.768 -0.2072 -0.0322  0.2491
17631TIP3    H174308   1.409   3.496  10.798 -1.3138 -0.5768  1.0834
17631TIP3    H274309   1.281   3.524  10.723 -1.3485  0.4657  1.5171
17632TIP3   OH274310   6.754   2.031  14.804  0.3864 -0.2596 -0.0503
17632TIP3    H174311   6.838   1.994  14.832  0.1933 -0.8814 -0.2731
17632TIP3    H274312   6.765   2.125  14.813  1.5239 -0.2552 -1.2295
17633TIP3   OH274313   4.074   3.983  13.962  0.2084  0.5824 -0.4638
17633TIP3    H174314   4.112   3.901  13.933 -1.9108  0.1779 -2.3316
17633TIP3    H274315   4.085   3.982  14.057  2.6843 -0.5118 -0.6899
17634TIP3   OH274316   4.621   1.740  14.937  0.5539  0.3026 -0.1930
17634TIP3    H174317   4.545   1.756  14.882  2.0633  0.8417 -2.2162
17634TIP3    H274318   4.656   1.827  14.957  0.3047  0.0950  1.2593
17635TIP3   OH274319   0.236   4.304  15.994  0.1402 -0.0938  0.2272
17635TIP3    H174320   0.295   4.363  16.039 -1.7384  1.2244  1.0805
17635TIP3    H274321   0.228   4.340  15.906  1.1877 -0.7563 -0.1675
17636TIP3   OH274322   1.933   6.695  12.497  0.0329  0.3791 -0.3785
17636TIP3    H174323   1.858   6.668  12.445 -0.7989 -0.3840  1.1588
17636TIP3    H274324   1.997   6.726  12.433 -1.3750  0.5343 -1.7535
17637TIP3   OH274325   0.863   6.018  16.789 -0.1543 -0.3749 -0.9914
17637TIP3    H174326   0.876   6.005  16.882 -0.6338 -1.7612 -1.1015
17637TIP3    H274327   0.783   5.970  16.769 -1.6239  2.1532 -1.6129
17638TIP3   OH274328   1.796   0.527   0.438 -0.0350  0.0506  0.3970
17638TIP3    H174329   1.845   0.594   0.389  0.7277 -1.1638 -0.5918
17638TIP3    H274330   1.743   0.484   0.372 -2.2033  1.0635  1.3984
17639TIP3   OH274331   1.924   2.121   0.645  0.3435  0.0867 -0.0539
17639TIP3    H174332   2.010   2.135   0.687 -0.1668  2.5395  0.3108
17639TIP3    H274333   1.943   2.119   0.551  0.6785  2.5737 -0.1131
17640TIP3   OH274334   6.750   6.332   0.868 -0.3348  0.5434  0.3430
17640TIP3    H174335   6.703   6.326   0.784  0.1040  0.5339  0.0966
17640TIP3    H274336   6.775   6.242   0.888 -0.1768  0.5860  0.3357
17641TIP3   OH274337   4.653   4.264   4.387 -0.0781  0.6858  0.5032
17641TIP3    H174338   4.600   4.341   4.405  0.1955  0.6567  1.5190
17641TIP3    H274339   4.732   4.297   4.345 -1.0168  0.6961 -1.3256
17642TIP3   OH274340   1.889   5.418   1.307  0.8057 -0.7149  0.6785
17642TIP3    H174341   1.961   5.472   1.274  0.1647  0.1627  0.6725
17642TIP3    H274342   1.919   5.389   1.393  2.3105 -2.6755 -0.4270
17643TIP3   OH274343   2.713   1.739  14.145 -0.0353 -0.0469 -0.3988
17643TIP3    H174344   2.677   1.660  14.185 -0.9809  0.8733  0.6739
17643TIP3    H274345   2.673   1.743  14.058  1.4076 -1.6552 -1.1925
17644TIP3   OH274346   2.138   0.407   2.942 -0.1540 -0.2713 -0.1588
17644TIP3    H174347   2.143   0.321   2.901  0.7362 -0.8987  1.1899
17644TIP3    H274348   2.225   0.445   2.930 -0.4491  0.3210 -0.4748
17645TIP3   OH274349   2.102   2.458   0.872 -0.0590  0.5788 -0.1927
17645TIP3    H174350   2.136   2.494   0.790  0.1885  1.7882  0.4268
17645TIP3    H274351   2.177   2.410   0.909  0.3980  1.5831  0.2108
17646TIP3   OH274352   5.704   5.761   4.770 -0.4386  0.3174  0.0680
17646TIP3    H174353   5.675   5.806   4.850  2.2802  0.3683  1.1072
17646TIP3    H274354   5.658   5.807   4.699 -1.0303  1.8867  1.4033
17647TIP3   OH274355   1.195   4.475  11.919  0.2133 -0.2274 -0.7856
17647TIP3    H174356   1.123   4.503  11.862 -0.3542 -1.9664 -0.9838
17647TIP3    H274357   1.272   4.475  11.862  0.1804  0.6258 -0.8422
17648TIP3   OH274358   6.571   2.853   4.141 -0.0883  0.1715  0.6408
17648TIP3    H174359   6.556   2.940   4.104  0.1601 -0.0026  0.1275
17648TIP3    H274360   6.659   2.858   4.180 -0.2219  0.2589  0.9353
17649TIP3   OH274361   2.952   0.341   6.262 -0.2054  0.5894  0.3848
17649TIP3    H174362   2.882   0.397   6.295 -1.2236 -0.0818 -0.5526
17649TIP3    H274363   3.012   0.400   6.217 -2.1804  0.8297 -2.1762
17650TIP3   OH274364   1.532   3.762   2.406 -0.2992  0.2140  0.2723
17650TIP3    H174365   1.459   3.813   2.370 -0.3731  1.2420  1.7987
17650TIP3    H274366   1.551   3.803   2.490  1.2505 -0.8010  0.4606
17651TIP3   OH274367   5.152   6.362  16.477 -0.7862 -0.2263 -0.0025
17651TIP3    H174368   5.197   6.445  16.488  1.2759 -1.2999  0.0486
17651TIP3    H274369   5.066   6.377  16.516  0.9850  0.6152  4.0781
17652TIP3   OH274370   4.686   3.432  15.535  0.3416  0.5027 -0.1612
17652TIP3    H174371   4.743   3.449  15.610  0.1929 -1.7930  0.5535
17652TIP3    H274372   4.601   3.410  15.574  0.1849 -0.4479 -0.9933
17653TIP3   OH274373   1.179   4.051  12.851 -0.7953 -0.4766 -0.3690
17653TIP3    H174374   1.119   4.116  12.814  0.2185  1.7458  1.7024
17653TIP3    H274375   1.257   4.100  12.875 -0.1714 -2.3496  1.7833
17654TIP3   OH274376   6.066   2.352  10.751 -0.4893  0.5494  0.9082
17654TIP3    H174377   6.022   2.410  10.689  2.6887  1.7918 -0.4274
17654TIP3    H274378   6.061   2.398  10.835  0.7134  2.1314  0.1650
17655TIP3   OH274379   6.202   0.471   4.350 -0.1163 -0.0113 -0.1213
17655TIP3    H174380   6.235   0.412   4.282 -0.6246 -0.0165 -0.3694
17655TIP3    H274381   6.196   0.556   4.306 -0.8885 -0.1120 -0.2191
17656TIP3   OH274382   5.353   1.025   4.429 -0.2104  0.3065 -0.0405
17656TIP3    H174383   5.444   1.045   4.409 -0.1161  0.9218  0.9442
17656TIP3    H274384   5.352   0.930   4.444  0.3909  0.3920  0.5703
17657TIP3   OH274385   4.180   3.528  15.509 -0.2370  0.6238  0.1193
17657TIP3    H174386   4.181   3.617  15.474 -2.2478  0.6530  0.0502
17657TIP3    H274387   4.194   3.472  15.433  1.6407  0.8480  0.2451
17658TIP3   OH274388   5.874   5.116  11.617  0.8964 -0.1231 -0.5479
17658TIP3    H174389   5.808   5.073  11.563  0.4515 -2.0479  1.3669
17658TIP3    H274390   5.957   5.075  11.592  0.8726 -0.0830 -0.6887
17659TIP3   OH274391   2.958   6.194  14.354  0.0039 -0.6210 -0.4605
17659TIP3    H174392   2.907   6.274  14.365 -0.1800 -0.4963 -1.9941
17659TIP3    H274393   2.892   6.126  14.338  0.1920 -0.9937  0.2845
17660TIP3   OH274394   4.861   2.345   0.089  0.0401  0.3869  0.1689
17660TIP3    H174395   4.796   2.277   0.073 -0.0965 -0.6084  3.9599
17660TIP3    H274396   4.810   2.417   0.127  0.4851  1.8510 -1.8605
17661TIP3   OH274397   5.819   1.334   1.685  0.0529  0.3233 -0.4029
17661TIP3    H174398   5.803   1.416   1.732 -0.9806 -0.8511  1.4475
17661TIP3    H274399   5.736   1.287   1.691  1.3550 -1.9875  1.0171
17662TIP3   OH274400   1.293   2.654  16.659 -0.2417 -0.1184 -0.2394
17662TIP3    H174401   1.356   2.700  16.714  0.6310  0.3877 -1.6242
17662TIP3    H274402   1.228   2.721  16.636  0.6257  0.2866 -1.6431
17663TIP3   OH274403   0.130   0.758  11.875  0.2272  0.0514 -0.6629
17663TIP3    H174404   0.047   0.738  11.918 -0.6737  1.6481 -1.5817
17663TIP3    H274405   0.118   0.730  11.785  0.5668  0.5658 -0.8714
17664TIP3   OH274406   4.023   5.815  12.058 -0.3489  0.6513 -0.0923
17664TIP3    H174407   3.987   5.904  12.049  0.1507  1.0314  1.3465
17664TIP3    H274408   4.096   5.825  12.119 -1.7680 -1.1423  2.0157
17665TIP3   OH274409   0.647   4.966   2.831 -0.4326 -0.2240  0.4614
17665TIP3    H174410   0.729   5.013   2.841 -0.4218  0.0040 -0.6011
17665TIP3    H274411   0.671   4.883   2.790 -0.7600 -0.0387 -0.1142
17666TIP3   OH274412   5.472   5.420  13.115 -0.4139  0.1828  0.0532
17666TIP3    H174413   5.487   5.504  13.073 -0.5719  0.2912  0.2121
17666TIP3    H274414   5.553   5.371  13.101  0.2571  0.9020  1.2192
17667TIP3   OH274415   0.217   0.565  14.023  0.4872  0.7406 -0.3374
17667TIP3    H174416   0.302   0.542  14.061  0.3859  1.1023  0.1164
17667TIP3    H274417   0.172   0.612  14.093 -1.0693 -1.5792  0.3370
17668TIP3   OH274418   5.059   1.545  16.047 -0.0765 -0.4482  0.3339
17668TIP3    H174419   5.122   1.569  15.979 -0.8736 -1.4398 -0.7968
17668TIP3    H274420   5.063   1.617  16.110  1.2543  0.1141 -0.3526
17669TIP3   OH274421   5.177   1.045  13.202 -0.6452 -0.1531  0.3596
17669TIP3    H174422   5.149   0.976  13.263  0.0541 -0.4487  0.3515
17669TIP3    H274423   5.257   1.081  13.241 -2.2638  2.3751  1.6961
17670TIP3   OH274424   5.352   6.453  14.508 -0.1394 -0.7453  0.0790
17670TIP3    H174425   5.426   6.456  14.447  0.2243  0.5120  0.5590
17670TIP3    H274426   5.364   6.370  14.554  1.1828 -0.4094  0.3909
17671TIP3   OH274427   2.995   6.504  14.137 -0.0280  0.4776  0.6476
17671TIP3    H174428   2.993   6.598  14.153 -0.5469  0.2333  2.1829
17671TIP3    H274429   3.077   6.475  14.178  0.3592  0.3075 -0.2172
17672TIP3   OH274430   5.104   5.271  15.035 -1.0286  0.0180  0.2962
17672TIP3    H174431   5.036   5.245  15.097 -0.3337 -1.8451  0.3099
17672TIP3    H274432   5.186   5.263  15.084 -0.7268  2.0047  0.2031
17673TIP3   OH274433   4.327   3.668  11.402  0.2416 -0.0867 -0.2531
17673TIP3    H174434   4.307   3.587  11.355  1.6962 -1.1378  0.8088
17673TIP3    H274435   4.273   3.735  11.360  0.1420 -1.3029 -2.1847
17674TIP3   OH274436   3.790   6.167  11.659 -0.2596 -0.0793 -0.3126
17674TIP3    H174437   3.810   6.093  11.717 -1.5407  0.7132  1.2023
17674TIP3    H274438   3.754   6.234  11.717 -1.9503  0.6172 -2.0731
17675TIP3   OH274439   0.959   6.679   2.839  0.4441 -0.1390  0.4260
17675TIP3    H174440   0.996   6.712   2.921 -0.1900 -0.5970  0.9052
17675TIP3    H274441   0.902   6.607   2.865  1.7468 -1.6011 -0.5932
17676TIP3   OH274442   0.758   5.406  13.627 -0.0665  0.2589 -0.1011
17676TIP3    H174443   0.664   5.423  13.613  0.0333 -0.1692 -1.3642
17676TIP3    H274444   0.770   5.315  13.602  0.8824  0.6110 -0.9643
17677TIP3   OH274445   4.819   3.868  15.311 -0.1565 -0.1120  0.1285
17677TIP3    H174446   4.878   3.794  15.293 -1.7756 -1.1194 -1.4231
17677TIP3    H274447   4.873   3.946  15.299  1.0269 -1.0108 -0.5426
17678TIP3   OH274448   4.594   4.467   4.698 -0.9080  0.4821 -0.1211
17678TIP3    H174449   4.675   4.470   4.749 -1.6894 -0.5425  1.2278
17678TIP3    H274450   4.557   4.555   4.707 -0.7405  0.4863  0.6152
17679TIP3   OH274451   0.928   4.459   0.827  0.2040  0.4076  0.3075
17679TIP3    H174452   0.888   4.541   0.857 -2.3741 -0.9173  0.8197
17679TIP3    H274453   0.940   4.471   0.733 -0.6559  1.1793  0.2793
17680TIP3   OH274454   5.431   3.852  15.113 -0.2978  0.2781  0.2221
17680TIP3    H174455   5.508   3.813  15.154  1.0159  1.0426 -1.3696
17680TIP3    H274456   5.377   3.883  15.185  0.0249 -1.8397  1.4307
17681TIP3   OH274457   4.612   2.845  12.019 -0.2342  0.3885  0.0678
17681TIP3    H174458   4.651   2.851  11.932  0.8542 -1.2116  0.4060
17681TIP3    H274459   4.666   2.902  12.073 -1.1875  1.7468 -0.3512
17682TIP3   OH274460   0.559   0.631  15.944  0.0682  0.1371  0.5710
17682TIP3    H174461   0.633   0.692  15.941 -0.0139  0.2086 -0.6044
17682TIP3    H274462   0.491   0.673  15.891 -0.3303 -0.5315  0.5420
17683TIP3   OH274463   0.649   6.020  15.921  0.0174  0.1976  0.2299
17683TIP3    H174464   0.706   6.006  15.996 -1.2457 -1.1791  0.9833
17683TIP3    H274465   0.591   6.091  15.947  0.6282  0.8284 -0.0982
17684TIP3   OH274466   5.909   3.574   5.212  0.1138 -0.0060 -0.1115
17684TIP3    H174467   5.920   3.480   5.226  0.0494 -0.0308 -0.2267
17684TIP3    H274468   5.996   3.604   5.186  0.4164  0.1692  1.0529
17685TIP3   OH274469   2.978   3.076  14.956  0.1574 -0.3095  0.0949
17685TIP3    H174470   3.029   3.020  15.014  0.9428  0.1939 -0.0920
17685TIP3    H274471   2.992   3.040  14.869  0.1363 -0.2237  0.0555
17686TIP3   OH274472   1.246   1.750  15.533 -0.0099  0.1521  0.6101
17686TIP3    H174473   1.289   1.680  15.484 -0.4251  0.6742 -0.5369
17686TIP3    H274474   1.229   1.818  15.468  0.2997  1.2903  1.6771
17687TIP3   OH274475   1.162   4.622  16.036 -0.0429  0.1855  0.4308
17687TIP3    H174476   1.148   4.600  15.944 -0.0239  1.8648  0.0091
17687TIP3    H274477   1.238   4.680  16.036 -1.0097  1.4922  1.3202
17688TIP3   OH274478   2.751   0.275   4.381 -0.3510 -0.1574  0.0773
17688TIP3    H174479   2.842   0.276   4.350 -0.7513  3.2945 -1.4059
17688TIP3    H274480   2.757   0.299   4.473  0.2362  2.3750 -0.5341
17689TIP3   OH274481   6.531   4.244  12.323 -0.4570  0.3997 -0.3793
17689TIP3    H174482   6.617   4.236  12.363  0.0563  0.2159 -1.4835
17689TIP3    H274483   6.548   4.285  12.238 -1.2975 -0.7303 -1.1199
17690TIP3   OH274484   1.630   2.735   4.966 -0.1672  0.1617  0.1049
17690TIP3    H174485   1.644   2.643   4.989  1.4428 -0.1531 -1.8436
17690TIP3    H274486   1.674   2.784   5.035 -1.2343 -0.4968  1.2835
17691TIP3   OH274487   3.904   4.850   1.039 -0.0846  0.2747 -0.1421
17691TIP3    H174488   3.972   4.893   1.092 -2.4566  1.4420  2.1705
17691TIP3    H274489   3.862   4.789   1.100 -0.5547 -1.1188 -1.7884
17692TIP3   OH274490   5.092   1.499   2.251 -0.4132 -0.6400  0.4031
17692TIP3    H174491   5.183   1.477   2.270  0.4698  2.4493  0.3538
17692TIP3    H274492   5.087   1.500   2.155 -0.3130 -0.2710  0.3981
17693TIP3   OH274493   3.583   2.602   6.743  0.0078 -0.1621 -0.2318
17693TIP3    H174494   3.590   2.524   6.798  1.0089  0.0133 -0.0862
17693TIP3    H274495   3.515   2.581   6.679 -0.3559 -0.8078  0.3617
17694TIP3   OH274496   5.830   4.643  16.296 -0.1929  0.2174  0.3179
17694TIP3    H174497   5.823   4.698  16.374  0.3717  0.2809  0.3283
17694TIP3    H274498   5.920   4.611  16.297  0.2206  1.2327 -0.9725
17695TIP3   OH274499   2.432   3.456  12.246  0.6828  0.0807  0.1356
17695TIP3    H174500   2.373   3.431  12.316 -1.9334  2.5848 -0.9528
17695TIP3    H274501   2.477   3.534  12.279 -1.6692  2.2116 -1.2538
17696TIP3   OH274502   0.167   3.431  15.592 -0.4083  0.7242 -0.4874
17696TIP3    H174503   0.241   3.421  15.532 -0.3147  1.6384 -0.5408
17696TIP3    H274504   0.163   3.347  15.638  0.4217  0.5195 -0.7550
17697TIP3   OH274505   6.097   0.164  17.058  0.0076  1.0607  0.3221
17697TIP3    H174506   6.038   0.218  17.005  1.9991  1.0724 -2.1199
17697TIP3    H274507   6.067   0.074  17.044 -1.5752  1.2724  2.0716
17698TIP3   OH274508   2.555   6.495   3.770 -0.3038  0.4425 -0.3677
17698TIP3    H174509   2.475   6.479   3.720  0.3330  0.4422 -1.4131
17698TIP3    H274510   2.533   6.568   3.828 -1.1365  0.2632 -0.4482
17699TIP3   OH274511   0.897   2.043  14.368 -0.1439 -0.0055  0.2535
17699TIP3    H174512   0.932   1.962  14.406 -1.5266 -0.8283 -0.1800
17699TIP3    H274513   0.973   2.084  14.325  0.2922 -1.8138 -0.7806
17700TIP3   OH274514   0.629   1.457  15.941 -0.5585  0.2450  0.0314
17700TIP3    H174515   0.679   1.434  16.019 -0.2289 -0.2321 -0.3102
17700TIP3    H274516   0.546   1.490  15.974  0.1871  1.6087  0.6348
17701TIP3   OH274517   4.542   0.444   3.145  0.0728  0.3661 -0.5452
17701TIP3    H174518   4.507   0.503   3.079 -0.8596  0.1734 -0.2328
17701TIP3    H274519   4.637   0.451   3.135 -0.0125 -0.4289 -2.6248
17702TIP3   OH274520   3.818   4.211  11.915  0.0394  0.3710  0.4364
17702TIP3    H174521   3.875   4.222  11.992  1.4028  0.0235 -0.4827
17702TIP3    H274522   3.828   4.119  11.891 -0.8681  0.3232  0.1976
17703TIP3   OH274523   3.948   0.368   2.092 -0.7208 -0.4423 -0.2710
17703TIP3    H174524   3.859   0.391   2.067 -1.1034 -1.2150  0.3373
17703TIP3    H274525   4.003   0.403   2.022 -1.4528  0.4805 -0.3948
17704TIP3   OH274526   2.232   2.231   1.286  0.6006 -0.1029  0.0717
17704TIP3    H174527   2.295   2.202   1.352  0.2265 -1.3626 -0.0903
17704TIP3    H274528   2.186   2.304   1.327  1.0998 -0.1809  0.7854
17705TIP3   OH274529   3.485   5.438  13.944  0.1223 -0.6435  0.1411
17705TIP3    H174530   3.450   5.422  13.857 -1.0768  1.1300  0.2289
17705TIP3    H274531   3.532   5.358  13.967 -0.4428 -1.5483 -1.6855
17706TIP3   OH274532   3.780   4.919  12.395 -0.7037  0.1656 -1.0390
17706TIP3    H174533   3.791   4.824  12.396 -0.0018  0.2410 -0.1963
17706TIP3    H274534   3.842   4.950  12.460 -1.4460  1.1571 -0.7924
17707TIP3   OH274535   6.749   5.433  16.220  0.0040  0.0780  0.4906
17707TIP3    H174536   6.757   5.526  16.200 -0.1406 -0.0393 -0.1278
17707TIP3    H274537   6.699   5.397  16.148  1.7298 -0.8354 -0.3150
17708TIP3   OH274538   2.999   3.859   5.130  0.3051  0.4659  0.1223
17708TIP3    H174539   2.989   3.831   5.039  0.3470  2.5255 -0.5727
17708TIP3    H274540   3.092   3.883   5.138 -0.1875  2.6509 -0.0771
17709TIP3   OH274541   6.008   4.963   4.221  0.6146  0.4665  0.0574
17709TIP3    H174542   6.054   5.037   4.259  0.0328  0.7031  0.3049
17709TIP3    H274543   6.078   4.905   4.190  1.1153  0.1611  1.6801
17710TIP3   OH274544   2.007   6.783   0.443  0.3034  0.1079  0.0847
17710TIP3    H174545   1.975   6.697   0.473 -0.2983  0.4967  0.5939
17710TIP3    H274546   1.954   6.846   0.492 -0.6790  0.7926 -1.7533
17711TIP3   OH274547   6.265   3.080   2.933  0.2997 -0.2264 -0.7826
17711TIP3    H174548   6.332   3.054   2.996 -1.3404 -1.0847  0.7158
17711TIP3    H274549   6.262   3.009   2.869  0.0985 -0.7270 -0.2280
17712TIP3   OH274550   5.873   5.505   0.426  0.8555 -0.1573 -0.2203
17712TIP3    H174551   5.806   5.446   0.460  2.0828 -1.6544 -0.2740
17712TIP3    H274552   5.955   5.457   0.437  1.5619  0.1420 -3.2833
17713TIP3   OH274553   3.512   1.840  14.475 -0.1720 -0.0439 -0.2220
17713TIP3    H174554   3.438   1.779  14.487  0.4335 -0.6021  0.8190
17713TIP3    H274555   3.472   1.927  14.478 -0.9386 -0.3672 -0.8384
17714TIP3   OH274556   4.106   0.725   2.577  0.2035  0.2695 -0.2518
17714TIP3    H174557   4.085   0.631   2.579  1.9138 -0.1577 -1.1166
17714TIP3    H274558   4.201   0.729   2.588  0.1660  1.9094 -0.2854
17715TIP3   OH274559   1.103   2.769  14.374  0.1986  0.1227  0.1367
17715TIP3    H174560   1.113   2.734  14.285  0.6086 -0.5735  0.4498
17715TIP3    H274561   1.137   2.858  14.369 -0.8872  0.5214 -0.6822
17716TIP3   OH274562   4.882   1.851   0.640 -0.5975  0.1576 -0.1112
17716TIP3    H174563   4.924   1.933   0.664  0.1486 -0.4942  0.9446
17716TIP3    H274564   4.906   1.836   0.549  2.4861 -0.7424  0.7477
17717TIP3   OH274565   2.792   6.680  15.688 -0.0626 -0.0204  0.0881
17717TIP3    H174566   2.698   6.665  15.692  0.1146 -1.0698  1.0587
17717TIP3    H274567   2.809   6.708  15.598 -1.3316  0.4747 -0.0113
17718TIP3   OH274568   2.165   3.439   2.759 -0.0920  0.3841  0.3606
17718TIP3    H174569   2.219   3.490   2.819 -1.8963  1.7193  0.9307
17718TIP3    H274570   2.109   3.386   2.815 -0.2151 -0.0925 -0.1998
17719TIP3   OH274571   5.704   0.417   2.597 -0.2202  0.3191 -0.1363
17719TIP3    H174572   5.649   0.479   2.644 -0.3168 -0.3494  0.6728
17719TIP3    H274573   5.738   0.359   2.666 -0.3455 -0.6754 -0.8815
17720TIP3   OH274574   2.617   3.765   0.885  0.0676 -0.1866 -0.0951
17720TIP3    H174575   2.617   3.805   0.971 -2.2543 -2.1225  0.9043
17720TIP3    H274576   2.567   3.826   0.830  0.9679  0.7155  0.0491
17721TIP3   OH274577   5.420   6.083   0.477  0.1577 -0.4445  0.1117
17721TIP3    H174578   5.453   6.048   0.395  1.4562  0.1474  0.3485
17721TIP3    H274579   5.326   6.065   0.475 -0.1705  1.0501 -2.2689
17722TIP3   OH274580   5.012   0.477  12.185 -0.4148 -0.0723  0.1763
17722TIP3    H174581   4.980   0.418  12.253 -0.8495  0.5583  0.5337
17722TIP3    H274582   5.045   0.419  12.116  0.7341 -0.7306  1.2356
17723TIP3   OH274583   2.765   3.680  15.467  0.0453 -0.1612  0.3996
17723TIP3    H174584   2.861   3.680  15.473 -0.0196 -1.4955  4.6055
17723TIP3    H274585   2.741   3.773  15.467  1.2964  0.1793  0.3874
17724TIP3   OH274586   1.527   3.737  15.933 -0.0778  0.1181  0.1973
17724TIP3    H174587   1.517   3.661  15.990 -1.1649 -1.6489 -2.2272
17724TIP3    H274588   1.503   3.811  15.989 -1.4863 -1.5325  1.9363
17725TIP3   OH274589   3.663   5.724   5.513  0.0904 -0.3397 -0.6652
17725TIP3    H174590   3.739   5.770   5.549 -0.6336  0.8351 -0.6059
17725TIP3    H274591   3.621   5.682   5.588 -0.0668  0.1091 -0.5037
17726TIP3   OH274592   0.631   0.258  11.218 -0.8098 -0.1769 -0.7341
17726TIP3    H174593   0.549   0.211  11.236 -0.8924  0.6610  1.4929
17726TIP3    H274594   0.604   0.348  11.203 -0.3230  0.1011 -0.0071
17727TIP3   OH274595   2.174   5.707  11.462 -0.2912  0.4735  0.3695
17727TIP3    H174596   2.178   5.683  11.555  0.6769  0.0591  0.2372
17727TIP3    H274597   2.247   5.768  11.450  0.6913 -0.8156 -0.4781
17728TIP3   OH274598   6.073   3.463   2.464 -0.0881 -0.0759 -0.0791
17728TIP3    H174599   6.076   3.523   2.389  0.8370  0.6550  0.5141
17728TIP3    H274600   6.036   3.382   2.429 -1.4347  0.8495 -0.9009
17729TIP3   OH274601   5.278   5.386   1.385  0.4147 -0.2286 -0.2672
17729TIP3    H174602   5.241   5.298   1.390 -0.1872  0.0513  0.4884
17729TIP3    H274603   5.279   5.417   1.476  2.0542 -0.0281 -0.3226
17730TIP3   OH274604   1.536   0.157   4.037 -0.3919  0.0971 -0.0482
17730TIP3    H174605   1.534   0.170   4.132 -0.1148 -0.7026  0.0721
17730TIP3    H274606   1.488   0.232   4.002  0.9324  1.3087  0.6238
17731TIP3   OH274607   1.252   4.468  15.749 -0.4114  0.0503  0.0724
17731TIP3    H174608   1.257   4.412  15.672  0.7122 -0.7443  0.6935
17731TIP3    H274609   1.341   4.469  15.784 -0.2981  2.5914 -0.1509
17732TIP3   OH274610   4.342   3.020  12.488 -0.5662 -0.2070  0.9440
17732TIP3    H174611   4.407   3.087  12.465 -0.0883 -0.3067  1.9554
17732TIP3    H274612   4.278   3.024  12.417  0.3584  0.1285  0.0996
17733TIP3   OH274613   5.036   5.755  11.527 -0.0408 -0.0079  0.3160
17733TIP3    H174614   5.094   5.753  11.451 -1.0877  1.1107 -0.5488
17733TIP3    H274615   5.023   5.663  11.549  0.2692 -0.3585 -0.8729
17734TIP3   OH274616   5.191   2.448   5.157  0.1240 -0.1349 -0.2682
17734TIP3    H174617   5.187   2.501   5.237  1.3042 -0.9148  0.3393
17734TIP3    H274618   5.269   2.479   5.111 -0.3899  0.1133 -0.9837
17735TIP3   OH274619   2.334   6.722  16.206  0.0996  0.0115 -0.3671
17735TIP3    H174620   2.395   6.769  16.264  1.2261  0.5517 -1.9244
17735TIP3    H274621   2.254   6.776  16.208  0.7279  0.9904 -0.6466
17736TIP3   OH274622   2.528   6.580   2.455 -0.4616  0.0892  0.5249
17736TIP3    H174623   2.556   6.501   2.501  0.3524  1.2341  2.0871
17736TIP3    H274624   2.602   6.640   2.462 -2.1536  2.1555  2.2168
17737TIP3   OH274625   5.297   5.328  16.962 -0.2551  0.2977 -0.0328
17737TIP3    H174626   5.287   5.343  16.868 -1.6980 -0.0921  0.0400
17737TIP3    H274627   5.266   5.239  16.976 -2.4529  1.1922  1.1497
17738TIP3   OH274628   1.361   3.636   1.994  0.1940  0.1597  0.1720
17738TIP3    H174629   1.342   3.661   1.904  1.4407  0.8598  0.0833
17738TIP3    H274630   1.444   3.589   1.989 -0.2463 -0.7185  0.8357
17739TIP3   OH274631   3.911   6.143   1.969 -0.5934  0.0103  0.1854
17739TIP3    H174632   3.909   6.180   1.881 -0.2497 -0.0193  0.1634
17739TIP3    H274633   3.900   6.049   1.956 -1.6630  0.1153  0.2547
17740TIP3   OH274634   5.668   1.130  15.505 -0.5995  0.2725 -0.1436
17740TIP3    H174635   5.711   1.212  15.479 -1.3246  0.5781 -0.4067
17740TIP3    H274636   5.674   1.129  15.600 -0.8455  0.7764 -0.1185
17741TIP3   OH274637   6.322   5.322   4.017 -0.2543 -0.3350  0.7616
17741TIP3    H174638   6.316   5.256   3.948  0.8652  0.4365 -0.1174
17741TIP3    H274639   6.359   5.274   4.092 -0.2563 -0.9036  0.4090
17742TIP3   OH274640   5.045   4.045  16.803  0.1000 -0.3521  0.2017
17742TIP3    H174641   5.007   4.133  16.809  2.8076  0.8906  0.4742
17742TIP3    H274642   5.038   4.010  16.892  1.2150  0.6183  0.6974
17743TIP3   OH274643   2.454   2.310   2.595  0.0509 -0.2733 -0.2966
17743TIP3    H174644   2.530   2.365   2.581  0.7947 -0.6483  1.8800
17743TIP3    H274645   2.388   2.368   2.634  0.2406 -0.5476  0.4437
17744TIP3   OH274646   6.682   5.706  12.796  0.0332 -0.2057 -0.1464
17744TIP3    H174647   6.712   5.795  12.778  1.6356 -1.0158 -1.8187
17744TIP3    H274648   6.662   5.706  12.889  0.0703  1.8688 -0.0921
17745TIP3   OH274649   0.892   3.076   5.733  0.1320  0.0828  0.5076
17745TIP3    H174650   0.827   3.045   5.670 -0.8924  0.8525  1.1580
17745TIP3    H274651   0.903   3.169   5.714  2.3186 -0.3568 -0.6746
17746TIP3   OH274652   1.231   4.249  16.882  0.7093 -0.2748  0.0469
17746TIP3    H174653   1.169   4.183  16.911 -0.5635 -0.1629 -2.1475
17746TIP3    H274654   1.317   4.209  16.896  0.0076 -1.9598 -0.2065
17747TIP3   OH274655   1.781   3.542  13.210  0.0022  0.0280  0.3041
17747TIP3    H174656   1.788   3.632  13.178 -0.0114 -0.0730  0.0158
17747TIP3    H274657   1.738   3.550  13.295 -0.1381  0.2804  0.2107
17748TIP3   OH274658   1.990   1.808  15.231 -0.6352  0.2633  0.1153
17748TIP3    H174659   1.938   1.886  15.213 -0.5603  0.2886  0.0074
17748TIP3    H274660   1.971   1.749  15.158  0.9943  1.0414 -0.9804
17749TIP3   OH274661   1.346   3.503   0.534  0.3439 -0.0444 -0.2140
17749TIP3    H174662   1.302   3.543   0.609  0.0918  0.1371 -0.4585
17749TIP3    H274663   1.275   3.469   0.480  0.4705  0.7620 -0.9001
17750TIP3   OH274664   1.817   3.766   4.484 -0.0744  0.0057 -0.2675
17750TIP3    H174665   1.770   3.846   4.461 -0.8660 -0.4706 -0.3635
17750TIP3    H274666   1.790   3.703   4.418 -1.7979 -1.1764  1.4273
17751TIP3   OH274667   2.960   0.615   0.026  0.0171  0.0248  0.0818
17751TIP3    H174668   2.980   0.521   0.023 -1.3355 -0.2871 -3.2255
17751TIP3    H274669   2.870   0.619   0.056  0.0207  0.2667  0.0569
17752TIP3   OH274670   0.400   4.094  17.145  0.2841 -0.4173 -0.4729
17752TIP3    H174671   0.417   4.007  17.183 -1.1134 -0.2365  0.6529
17752TIP3    H274672   0.402   4.079  17.050 -1.0225 -1.9218 -0.3028
17753TIP3   OH274673   0.601   2.630  12.441  0.3485  0.0234 -0.2714
17753TIP3    H174674   0.676   2.659  12.390  0.5922  1.0933  0.6559
17753TIP3    H274675   0.616   2.537  12.456 -0.7382 -0.8809 -3.8142
17754TIP3   OH274676   1.412   0.132  16.051 -0.0727  0.0555 -0.3415
17754TIP3    H174677   1.399   0.154  16.143  0.3636  1.3946 -0.5756
17754TIP3    H274678   1.359   0.054  16.037  1.5406 -1.4915  1.5778
17755TIP3   OH274679   5.442   5.678  10.775 -0.5219 -0.9693  0.2481
17755TIP3    H174680   5.404   5.745  10.832 -2.3057 -1.5979 -0.1163
17755TIP3    H274681   5.481   5.727  10.702 -0.9883 -0.2870  0.4465
17756TIP3   OH274682   3.436   6.706   4.597  0.2098  1.0575  0.1326
17756TIP3    H174683   3.476   6.671   4.676 -0.5478  1.5830  0.7703
17756TIP3    H274684   3.403   6.792   4.623  1.6932  2.1146 -1.2957
17757TIP3   OH274685   3.972   0.710   5.511  0.5114 -0.6296 -0.1499
17757TIP3    H174686   3.956   0.804   5.522  0.9702 -0.5565 -0.1018
17757TIP3    H274687   4.051   0.693   5.560  2.4575 -0.3653 -2.9415
17758TIP3   OH274688   6.610   1.204  11.374  0.4801 -0.3950 -0.1567
17758TIP3    H174689   6.662   1.135  11.333  0.4195  1.1171 -2.9913
17758TIP3    H274690   6.520   1.179  11.356  0.4480  0.2061 -0.8481
17759TIP3   OH274691   4.599   5.840  14.366 -0.0704  0.2470  0.2450
17759TIP3    H174692   4.603   5.798  14.281  1.5896  0.1395  0.3513
17759TIP3    H274693   4.600   5.768  14.429  4.3929  0.2614  0.4880
17760TIP3   OH274694   1.507   2.049   3.380  0.1187  0.0166 -0.1093
17760TIP3    H174695   1.449   1.991   3.330  0.6966 -0.2316 -0.4956
17760TIP3    H274696   1.543   2.109   3.315  0.9202 -0.3409 -0.0106
17761TIP3   OH274697   4.986   2.761   4.737  0.3989 -0.0429  0.4716
17761TIP3    H174698   5.000   2.850   4.769  1.3673  0.0840 -0.2712
17761TIP3    H274699   4.988   2.769   4.642  1.8272 -1.0495  0.3960
17762TIP3   OH274700   2.953   3.662   6.256 -0.2852  0.3305  0.5862
17762TIP3    H174701   2.905   3.741   6.233  0.9036  1.1323  0.7474
17762TIP3    H274702   3.015   3.690   6.324 -0.3350 -0.8984  1.1728
17763TIP3   OH274703   3.056   6.577   5.396 -0.4459  0.7976  0.5610
17763TIP3    H174704   3.018   6.602   5.480 -1.1031 -0.0255  0.5257
17763TIP3    H274705   3.005   6.500   5.369  1.3725 -0.4865  0.5927
17764TIP3   OH274706   4.644   4.000  12.858 -0.3336 -0.1796  0.3219
17764TIP3    H174707   4.598   3.948  12.924  0.6189  0.1015  1.2332
17764TIP3    H274708   4.607   4.088  12.867 -0.8697 -0.3445 -0.1827
17765TIP3   OH274709   6.342   3.418   4.673  0.3066  0.0111  0.0618
17765TIP3    H174710   6.297   3.379   4.597  1.4828  2.1757 -1.8785
17765TIP3    H274711   6.282   3.485   4.704  0.8711  0.8387 -0.5991
17766TIP3   OH274712   5.828   2.416   0.856 -0.2339 -0.5236  0.2882
17766TIP3    H174713   5.814   2.331   0.814  1.0323  0.7757 -3.0897
17766TIP3    H274714   5.803   2.480   0.790  0.0371  1.7759  2.2707
17767TIP3   OH274715   6.447   0.268  15.629  0.3804  0.1655  0.4824
17767TIP3    H174716   6.388   0.281  15.555  1.3895  1.1759 -0.1879
17767TIP3    H274717   6.414   0.326  15.698  0.1899  0.1987  0.3612
17768TIP3   OH274718   4.826   6.207  13.517 -0.4133  0.2117  0.4747
17768TIP3    H174719   4.798   6.136  13.460 -0.8587 -0.0132  0.9633
17768TIP3    H274720   4.775   6.282  13.489  1.5842  0.9496 -1.4884
17769TIP3   OH274721   0.440   4.816  15.832 -0.3120  0.3730  0.0390
17769TIP3    H174722   0.366   4.766  15.867 -0.0664 -1.0998 -1.4256
17769TIP3    H274723   0.463   4.877  15.902 -2.1048  0.0069  1.0000
17770TIP3   OH274724   5.381   1.246   0.890 -0.0158 -0.1248 -0.2598
17770TIP3    H174725   5.411   1.182   0.954 -0.6038 -0.6818 -0.5345
17770TIP3    H274726   5.341   1.316   0.942  0.8753  0.1700  0.0548
17771TIP3   OH274727   0.437   6.148  13.468 -1.1361  0.1978 -0.3319
17771TIP3    H174728   0.383   6.180  13.540  0.6741 -0.9246  1.6637
17771TIP3    H274729   0.527   6.159  13.500 -0.3305 -2.0820 -1.6217
17772TIP3   OH274730   0.520   2.386   3.297  0.6360 -0.2998 -0.1764
17772TIP3    H174731   0.540   2.471   3.336  2.8847 -0.5284 -0.6858
17772TIP3    H274732   0.470   2.340   3.364  0.0365  1.1476  0.3946
17773TIP3   OH274733   1.346   6.085  15.248 -0.3024 -0.1271 -0.3776
17773TIP3    H174734   1.383   6.096  15.160 -0.6701 -3.3323 -1.0521
17773TIP3    H274735   1.420   6.059  15.302 -0.4596 -0.4140 -0.2957
17774TIP3   OH274736   0.983   4.049  15.993  0.1514 -0.4954 -0.1412
17774TIP3    H174737   0.902   4.091  15.964 -0.7169 -1.9443  0.0515
17774TIP3    H274738   1.049   4.079  15.931 -0.8327 -0.3657 -1.1704
17775TIP3   OH274739   5.820   2.402  13.570 -0.0722  0.5157  0.4126
17775TIP3    H174740   5.830   2.451  13.488 -0.2689 -0.7290 -0.3805
17775TIP3    H274741   5.727   2.408  13.590 -0.1794  0.0799  0.0591
17776TIP3   OH274742   1.329   5.096   2.473 -0.8528 -0.3919 -0.2846
17776TIP3    H174743   1.290   5.156   2.536 -1.4539  0.0921 -1.0940
17776TIP3    H274744   1.423   5.098   2.492 -1.2055 -1.9210  1.9915
17777TIP3   OH274745   1.993   2.698   5.827  0.4702 -0.5575  0.7009
17777TIP3    H174746   1.962   2.788   5.824  0.3283 -0.5577  1.8782
17777TIP3    H274747   1.946   2.654   5.755  1.2561  0.4975 -0.5096
17778TIP3   OH274748   2.956   2.100  10.932  0.0950 -0.1570  0.1021
17778TIP3    H174749   3.024   2.105  11.000  0.6619 -0.1527 -0.4505
17778TIP3    H274750   2.978   2.021  10.882  0.3722  0.4691 -0.7867
17779TIP3   OH274751   5.103   0.230   1.940  0.2087 -0.0766 -0.3523
17779TIP3    H174752   5.116   0.213   2.034 -0.5099  1.2038 -0.0018
17779TIP3    H274753   5.174   0.291   1.917  1.9415 -2.3019 -1.2770
17780TIP3   OH274754   4.266   0.797  15.394 -0.3112 -0.5407  0.0696
17780TIP3    H174755   4.210   0.745  15.337 -0.1202  0.3525 -0.9661
17780TIP3    H274756   4.321   0.847  15.334  3.4300 -3.1968  0.9692
17781TIP3   OH274757   6.586   2.732   3.282 -0.0166 -1.2986  0.0619
17781TIP3    H174758   6.659   2.702   3.335  2.9332  3.3003 -0.8522
17781TIP3    H274759   6.550   2.806   3.330 -0.5964 -0.2222 -1.9134
17782TIP3   OH274760   0.148   1.025   1.508 -0.0930 -0.1176 -0.0168
17782TIP3    H174761   0.155   0.946   1.562  3.0860  1.1392  1.6917
17782TIP3    H274762   0.087   1.081   1.556 -0.7571 -0.7144 -0.1468
17783TIP3   OH274763   4.468   1.843   0.474  0.0073 -0.6117  0.0469
17783TIP3    H174764   4.389   1.897   0.476  0.0072 -0.5171 -1.3149
17783TIP3    H274765   4.476   1.817   0.382  0.3729 -2.3802  0.5387
17784TIP3   OH274766   5.950   5.058   1.140 -0.2491 -0.2099 -0.4560
17784TIP3    H174767   5.967   5.058   1.234 -1.3064 -0.7952 -0.2449
17784TIP3    H274768   6.010   4.992   1.104  1.0132  0.8615 -0.3863
17785TIP3   OH274769   5.876   0.058  12.319  0.0101  0.1752 -0.1867
17785TIP3    H174770   5.953   0.102  12.283 -0.6136 -0.0914 -1.9690
17785TIP3    H274771   5.802   0.100  12.275 -0.6954 -1.3635 -0.5434
17786TIP3   OH274772   6.681   5.278   1.798  0.4336 -0.4950 -0.2801
17786TIP3    H174773   6.623   5.345   1.833  0.1761 -1.1793  0.6767
17786TIP3    H274774   6.637   5.245   1.720  0.1041 -0.2197 -0.2099
17787TIP3   OH274775   4.484   0.323   3.391  0.4993 -0.1949  0.1811
17787TIP3    H174776   4.515   0.380   3.320  0.8201 -0.3499  0.1943
17787TIP3    H274777   4.423   0.263   3.350 -2.7086  2.4080  0.7480
17788TIP3   OH274778   5.518   4.442   3.454 -0.4824  0.7405  0.0228
17788TIP3    H174779   5.441   4.435   3.509 -0.7190  0.9026 -0.2841
17788TIP3    H274780   5.489   4.492   3.378 -0.7992 -1.4352 -1.3782
17789TIP3   OH274781   4.676   6.505  15.943 -0.4632  0.1812 -0.0405
17789TIP3    H174782   4.627   6.530  15.864 -0.5409  0.4699  0.0976
17789TIP3    H274783   4.628   6.545  16.015 -1.0155 -0.9922  0.2617
17790TIP3   OH274784   2.706   6.646   1.398 -0.4487  0.0209 -0.5435
17790TIP3    H174785   2.716   6.738   1.424 -0.6180  0.1304 -0.8532
17790TIP3    H274786   2.685   6.600   1.479 -0.8990  0.3462 -0.4714
17791TIP3   OH274787   1.023   1.304  10.820 -0.3208  0.0778  0.2296
17791TIP3    H174788   0.995   1.390  10.851  0.8455  0.1446  1.1486
17791TIP3    H274789   1.082   1.322  10.747 -1.1036 -0.0109 -0.4518
17792TIP3   OH274790   0.938   5.356   0.107  0.0360 -0.3032  0.2762
17792TIP3    H174791   1.020   5.321   0.072 -0.2279 -1.7016  0.9655
17792TIP3    H274792   0.942   5.336   0.200 -1.5903 -1.4772  0.1315
17793TIP3   OH274793   3.327   4.373   0.931 -0.2799 -0.5299  0.3196
17793TIP3    H174794   3.405   4.372   0.875 -0.6890  0.4349 -0.2949
17793TIP3    H274795   3.257   4.340   0.875 -0.5978 -0.0072  0.4051
17794TIP3   OH274796   1.101   2.725   1.487  0.2843 -0.6398 -0.0334
17794TIP3    H174797   1.175   2.785   1.495 -0.9170  0.9770 -0.5316
17794TIP3    H274798   1.080   2.725   1.394 -0.7710 -0.5011  0.1939
17795TIP3   OH274799   6.194   3.385   1.840  0.1051 -0.3685  0.0896
17795TIP3    H174800   6.148   3.399   1.757 -1.6101 -0.0707  1.0369
17795TIP3    H274801   6.227   3.295   1.834 -1.5712 -1.0029 -0.2275
17796TIP3   OH274802   4.044   6.083  14.348 -0.1773  0.3037  0.0611
17796TIP3    H174803   4.064   6.024  14.276  0.6322  0.0230  0.4965
17796TIP3    H274804   4.129   6.119  14.373 -0.5467  0.9826  0.3790
17797TIP3   OH274805   0.465   4.767  16.484 -0.5536 -0.7022 -0.2193
17797TIP3    H174806   0.508   4.722  16.557 -0.4001  1.3257  0.9994
17797TIP3    H274807   0.534   4.779  16.419  0.0482  0.0458  0.5435
17798TIP3   OH274808   6.742   6.548   1.509  0.2208  0.0672  0.1380
17798TIP3    H174809   6.740   6.569   1.415  0.6244  1.1603  0.3535
17798TIP3    H274810   6.674   6.482   1.520  1.5394 -1.6325 -1.2736
17799TIP3   OH274811   2.853   2.713  13.368  0.3269  0.0940 -0.1497
17799TIP3    H174812   2.910   2.643  13.336 -0.7675  0.0782 -2.2524
17799TIP3    H274813   2.849   2.699  13.462  2.0520 -1.2029 -0.2184
17800TIP3   OH274814   0.077   0.699  14.220 -0.8011  0.2893  0.4212
17800TIP3    H174815   0.009   0.631  14.214  0.0965 -0.5371 -0.7594
17800TIP3    H274816   0.030   0.781  14.206 -1.6629 -0.2014  0.3361
17801TIP3   OH274817   1.099   1.103   0.714 -0.3761 -0.0236  0.0688
17801TIP3    H174818   1.165   1.061   0.659  1.3399  2.6883 -0.1291
17801TIP3    H274819   1.047   1.155   0.653 -0.3621  0.6665  0.6303
17802TIP3   OH274820   2.284   1.879  14.798 -0.3853 -0.6574 -0.0713
17802TIP3    H174821   2.306   1.963  14.837 -0.2593 -0.5696 -0.3259
17802TIP3    H274822   2.300   1.815  14.867  2.2291 -0.7842 -0.6830
17803TIP3   OH274823   4.756   4.321   5.203 -0.3467  0.4603  0.0723
17803TIP3    H174824   4.739   4.255   5.270  0.0564 -0.4962 -0.7491
17803TIP3    H274825   4.673   4.331   5.157 -0.3704  0.4442  0.1114
17804TIP3   OH274826   2.166   1.032  13.113  0.4905  0.6271  0.5018
17804TIP3    H174827   2.085   1.008  13.069  0.2361  0.0406  1.2715
17804TIP3    H274828   2.198   0.950  13.151  0.8671  1.0566  1.1352
17805TIP3   OH274829   0.995   2.676   1.728  0.2130 -0.2916 -0.4373
17805TIP3    H174830   1.032   2.696   1.643  0.2112  0.8966 -0.1703
17805TIP3    H274831   0.906   2.644   1.709 -0.9909  2.9222 -0.7702
17806TIP3   OH274832   4.930   3.207   5.937  0.1774 -0.6605  0.3044
17806TIP3    H174833   4.925   3.302   5.937  0.6446 -0.5088  3.5962
17806TIP3    H274834   4.874   3.180   5.864  0.5453  2.0963 -1.1341
17807TIP3   OH274835   6.681   0.277  13.688  0.5691 -0.3104  0.1971
17807TIP3    H174836   6.752   0.218  13.665  1.0710 -0.2983  1.5765
17807TIP3    H274837   6.681   0.277  13.784 -0.3593  0.7989  0.2174
17808TIP3   OH274838   1.942   1.597   6.038  0.2740  0.4371  0.2516
17808TIP3    H174839   1.978   1.669   6.088 -0.1680 -0.7827  2.4291
17808TIP3    H274840   1.880   1.554   6.097 -1.5986 -0.0720 -1.9215
17809TIP3   OH274841   1.388   6.561  12.662 -0.5667  0.1326  0.0385
17809TIP3    H174842   1.462   6.514  12.623  0.5672  1.6050  0.3354
17809TIP3    H274843   1.420   6.650  12.675 -2.6043  0.9816 -0.3723
17810TIP3   OH274844   1.996   5.322   3.467  0.2330 -0.1877 -0.1817
17810TIP3    H174845   2.000   5.292   3.558  2.0605  1.6558  0.4043
17810TIP3    H274846   1.981   5.241   3.417 -1.6112 -1.1559  1.7439
17811TIP3   OH274847   1.652   2.005   5.973 -0.9812 -0.3106  0.3165
17811TIP3    H174848   1.624   1.916   5.991 -2.5700  0.1992  0.5629
17811TIP3    H274849   1.591   2.060   6.023 -0.2476  0.9161 -0.0833
17812TIP3   OH274850   4.576   6.610  11.338 -0.5955  0.0091 -0.4590
17812TIP3    H174851   4.580   6.514  11.336  0.1455 -0.0406  1.2231
17812TIP3    H274852   4.662   6.639  11.310 -0.6140  0.1571 -0.3649
17813TIP3   OH274853   4.476   1.119   0.375  0.2699  0.1951 -0.2564
17813TIP3    H174854   4.442   1.195   0.328  1.4571  0.1755 -1.1847
17813TIP3    H274855   4.466   1.046   0.313 -2.1399 -0.7562  1.1064
17814TIP3   OH274856   5.471   6.234  16.714 -0.4986 -0.1360  0.5070
17814TIP3    H174857   5.465   6.273  16.801 -0.7150  0.3644  0.2710
17814TIP3    H274858   5.493   6.307  16.656  2.0876 -0.8562  0.4637
17815TIP3   OH274859   0.084   5.404  12.852  0.7119  0.6605  0.0673
17815TIP3    H174860   0.151   5.338  12.835  0.4635  0.0365  1.4105
17815TIP3    H274861   0.113   5.447  12.932  0.3982  1.5787 -0.3005
17816TIP3   OH274862   0.571   6.671   4.446 -0.1770  0.4399  0.0954
17816TIP3    H174863   0.594   6.724   4.370 -0.1005  0.2292 -0.0294
17816TIP3    H274864   0.485   6.635   4.426  0.5136 -0.9106 -0.6024
17817TIP3   OH274865   2.204   5.114  16.409 -0.3876  0.4271  0.5576
17817TIP3    H174866   2.126   5.063  16.431  0.4035 -0.3888  1.5836
17817TIP3    H274867   2.242   5.138  16.494  0.4899  0.8076  0.0775
17818TIP3   OH274868   0.709   5.927   4.356  0.6396  0.0949 -0.9410
17818TIP3    H174869   0.735   5.843   4.317 -0.2529  0.3025 -2.0025
17818TIP3    H274870   0.762   5.992   4.311 -0.4532  0.3441 -1.9076
17819TIP3   OH274871   4.242   1.499   5.561 -0.2299  0.4136 -0.1156
17819TIP3    H174872   4.317   1.534   5.514  0.1894  0.2311  0.4143
17819TIP3    H274873   4.200   1.575   5.600  0.1773  0.4203  0.3077
17820TIP3   OH274874   4.255   4.132  13.690  0.0468 -0.1690  1.1124
17820TIP3    H174875   4.252   4.054  13.634  1.3751  1.3125 -1.1936
17820TIP3    H274876   4.172   4.131  13.737 -0.1108 -2.7758  0.9178
17821TIP3   OH274877   2.485   4.555   0.317  0.1716 -0.0022  0.5241
17821TIP3    H174878   2.574   4.571   0.284  1.0348 -2.7902  1.2572
17821TIP3    H274879   2.461   4.637   0.360  1.7675  1.3372 -0.9895
17822TIP3   OH274880   6.365   3.371  15.632 -0.0119 -0.5875 -0.2730
17822TIP3    H174881   6.418   3.451  15.627 -0.6107 -0.0807  1.0270
17822TIP3    H274882   6.307   3.376  15.556 -2.3321  1.9651  1.4416
17823TIP3   OH274883   6.657   2.371   3.130  0.4414 -0.4234  0.4711
17823TIP3    H174884   6.585   2.383   3.191  0.3350 -0.6324  0.3859
17823TIP3    H274885   6.679   2.279   3.136  0.3963 -0.4569  0.1568
17824TIP3   OH274886   0.348   2.708   3.779  0.5443 -0.0704  0.1866
17824TIP3    H174887   0.293   2.724   3.855 -0.7512 -0.2002 -0.6976
17824TIP3    H274888   0.353   2.793   3.735  0.0361 -0.3367 -0.3880
17825TIP3   OH274889   1.379   6.357  15.759  0.7643  0.1983 -0.3891
17825TIP3    H174890   1.348   6.298  15.690 -0.0867 -1.0414  0.9824
17825TIP3    H274891   1.350   6.444  15.732 -1.5496 -0.5508 -0.5474
17826TIP3   OH274892   2.055   0.691  14.889  0.5499  0.4289 -0.3947
17826TIP3    H174893   1.995   0.617  14.879 -1.2353  1.7387  0.1111
17826TIP3    H274894   2.093   0.680  14.976 -0.6064  0.6924  0.1652
17827TIP3   OH274895   0.579   0.866  16.458  0.5968  0.0771  0.4465
17827TIP3    H174896   0.584   0.803  16.530  0.2162  0.6757  1.0066
17827TIP3    H274897   0.617   0.820  16.384 -0.3617 -1.1089  0.6464
17828TIP3   OH274898   3.711   3.843   4.624  0.5092  0.8386  0.3775
17828TIP3    H174899   3.731   3.767   4.568 -1.0951  1.1271 -0.6794
17828TIP3    H274900   3.698   3.805   4.711  0.0556 -0.0893 -0.0672
17829TIP3   OH274901   6.202   5.251   5.320 -0.2953  0.2763  0.4493
17829TIP3    H174902   6.220   5.213   5.235  0.8125  2.4481 -0.3665
17829TIP3    H274903   6.135   5.318   5.304 -0.4435  0.3705  1.3619
17830TIP3   OH274904   5.925   4.691  12.201  0.6946 -0.1509  0.5242
17830TIP3    H174905   5.930   4.637  12.121 -0.5094 -0.9633  0.9648
17830TIP3    H274906   6.014   4.690  12.236  0.9865 -0.7500 -0.1937
17831TIP3   OH274907   3.793   5.748   4.067 -0.4903  0.2957 -0.3469
17831TIP3    H174908   3.698   5.748   4.055 -0.4663  1.2469 -0.6563
17831TIP3    H274909   3.809   5.813   4.135  0.0182  1.0135 -1.1357
17832TIP3   OH274910   0.933   0.381   2.020 -0.2149  0.4028 -0.0156
17832TIP3    H174911   0.893   0.338   2.096  0.5511 -0.5306 -0.1183
17832TIP3    H274912   0.906   0.328   1.945  0.3307  0.3884 -0.2063
17833TIP3   OH274913   0.931   5.104   3.584  0.0319  0.0697 -0.1972
17833TIP3    H174914   1.018   5.144   3.585 -0.7426  1.8606  1.3217
17833TIP3    H274915   0.945   5.016   3.619  1.5101 -0.4810 -1.9788
17834TIP3   OH274916   1.582   1.730   1.267 -0.0030 -0.1038  0.3423
17834TIP3    H174917   1.489   1.749   1.273  0.3569  1.9404 -0.0294
17834TIP3    H274918   1.600   1.675   1.343 -2.0293 -3.0835 -1.1551
17835TIP3   OH274919   3.031   6.451   3.476  0.3017 -0.2372 -0.2880
17835TIP3    H174920   3.012   6.520   3.413  0.3392 -0.9657 -1.1226
17835TIP3    H274921   2.999   6.371   3.433 -0.9229 -0.5870  1.1917
17836TIP3   OH274922   3.699   3.752   0.185  0.0590  0.3157  0.5647
17836TIP3    H174923   3.775   3.760   0.128  0.6800  1.3248  1.5231
17836TIP3    H274924   3.640   3.822   0.156  0.4781  0.9811  1.3125
17837TIP3   OH274925   0.982   2.370   2.583 -0.2314 -0.1858  0.4190
17837TIP3    H174926   0.913   2.342   2.643 -1.3821 -0.1471 -0.8350
17837TIP3    H274927   0.976   2.309   2.509  0.9654 -0.0670  0.2040
17838TIP3   OH274928   2.490   6.507  16.642 -0.1824 -0.2879 -0.3461
17838TIP3    H174929   2.469   6.580  16.701  0.6346  0.0935 -0.5189
17838TIP3    H274930   2.583   6.516  16.625 -0.2457 -0.8868 -1.0424
17839TIP3   OH274931   0.385   1.463  15.760 -0.1872 -0.2217  0.3981
17839TIP3    H174932   0.349   1.437  15.675  2.4079 -2.8150 -0.0770
17839TIP3    H274933   0.336   1.410  15.823  0.3853 -1.1579  0.0885
17840TIP3   OH274934   5.876   6.297  14.731 -0.1068 -0.9599 -0.4371
17840TIP3    H174935   5.918   6.295  14.646  0.1164 -0.9596 -0.3262
17840TIP3    H274936   5.861   6.389  14.749 -0.6662 -0.9880 -0.7262
17841TIP3   OH274937   4.361   1.551  13.564 -0.1105  0.0588 -0.5214
17841TIP3    H174938   4.374   1.646  13.561 -2.0344  0.3730 -0.5401
17841TIP3    H274939   4.447   1.514  13.543  1.1159  1.7658  1.1616
17842TIP3   OH274940   5.232   3.499   2.949  0.3671 -0.0515 -0.3696
17842TIP3    H174941   5.236   3.412   2.908 -1.2992  0.3999 -1.6173
17842TIP3    H274942   5.240   3.560   2.876 -1.4708  0.7860  0.0757
17843TIP3   OH274943   3.986   5.621  12.566 -0.1414  0.9017 -0.1807
17843TIP3    H174944   4.035   5.541  12.586 -0.9342  0.4412 -0.0661
17843TIP3    H274945   3.895   5.592  12.557 -0.7278  2.0527  1.6275
17844TIP3   OH274946   6.731   0.505  14.663  0.1539 -0.4232  0.1302
17844TIP3    H174947   6.704   0.419  14.632  0.8003 -0.8232  0.6550
17844TIP3    H274948   6.677   0.521  14.740 -0.5146 -0.0069 -0.4079
17845TIP3   OH274949   3.270   4.563   2.518 -0.3639  0.5206 -0.2759
17845TIP3    H174950   3.255   4.610   2.600 -0.5759  1.7041 -0.9680
17845TIP3    H274951   3.364   4.575   2.501 -0.0442 -0.8046  0.4164
17846TIP3   OH274952   4.934   4.484  13.755 -0.2580 -0.8292  0.0618
17846TIP3    H174953   4.960   4.395  13.732  0.1389 -0.7157  0.0645
17846TIP3    H274954   4.907   4.479  13.847  1.5577 -0.5846  0.6482
17847TIP3   OH274955   4.600   2.730  15.875 -0.2460 -0.2427 -0.3224
17847TIP3    H174956   4.665   2.768  15.935  0.2134  0.5978 -1.3162
17847TIP3    H274957   4.624   2.765  15.789 -2.9960  1.4621 -0.5212
17848TIP3   OH274958   2.490   1.256  16.356 -0.6218  0.5302  0.5710
17848TIP3    H174959   2.556   1.186  16.354 -1.5548 -0.3568 -0.3044
17848TIP3    H274960   2.459   1.262  16.265 -1.2975  1.3749  0.8442
17849TIP3   OH274961   3.907   5.872   5.624  0.5981 -0.0209  0.1564
17849TIP3    H174962   3.846   5.942   5.650  0.8337  0.1478  0.2648
17849TIP3    H274963   3.905   5.810   5.697  0.2173 -0.2408 -0.0415
17850TIP3   OH274964   1.552   1.405  13.802 -0.4145 -0.1968 -0.4221
17850TIP3    H174965   1.476   1.462  13.816  0.0717  1.0490 -2.5082
17850TIP3    H274966   1.523   1.343  13.734  0.4876  0.4644 -1.4365
17851TIP3   OH274967   4.072   3.214  15.151  0.0413  0.3519 -0.1033
17851TIP3    H174968   4.079   3.122  15.172  1.9546  0.3835 -0.4249
17851TIP3    H274969   3.998   3.219  15.089 -0.4008 -0.8592  0.2990
17852TIP3   OH274970   5.980   5.750  14.798 -0.8188  1.0132  0.2319
17852TIP3    H174971   5.950   5.816  14.860 -0.1576  0.0674  1.6128
17852TIP3    H274972   6.050   5.794  14.748 -1.0889  1.6626  0.4130
17853TIP3   OH274973   2.886   6.162   0.503 -0.1068 -0.4808 -0.0153
17853TIP3    H174974   2.884   6.198   0.591  2.0825 -0.0644 -0.0863
17853TIP3    H274975   2.874   6.068   0.514  0.7679 -0.5028  0.7895
17854TIP3   OH274976   0.679   5.559  17.032  0.1811 -0.0272  0.2567
17854TIP3    H174977   0.643   5.607  16.958 -0.5923 -1.2342 -0.1656
17854TIP3    H274978   0.720   5.627  17.086  0.4722  0.9109 -1.0872
17855TIP3   OH274979   0.335   1.218   2.194 -0.5451  0.1956  0.0930
17855TIP3    H174980   0.245   1.190   2.178 -0.5812 -0.9018  2.0114
17855TIP3    H274981   0.328   1.283   2.264  0.3999 -3.8313  4.4444
17856TIP3   OH274982   6.430   1.942  14.558 -0.0605 -0.6407  0.1835
17856TIP3    H174983   6.476   1.886  14.621  0.3303 -0.2468  0.2508
17856TIP3    H274984   6.500   1.992  14.515 -0.4861  0.5125  0.8100
17857TIP3   OH274985   6.550   5.471   3.042 -0.3131  0.5549  0.0928
17857TIP3    H174986   6.584   5.539   3.100  0.9366 -0.8912  1.1146
17857TIP3    H274987   6.472   5.438   3.086  0.1565  0.0461  0.5669
17858TIP3   OH274988   2.761   1.829   4.832  0.1302  0.2153 -0.6519
17858TIP3    H174989   2.672   1.807   4.860  0.5920  1.1748  1.8654
17858TIP3    H274990   2.788   1.754   4.778 -1.3952 -1.2263  0.4673
17859TIP3   OH274991   3.036   1.064  17.107  0.4649  0.3224 -0.1296
17859TIP3    H174992   3.042   1.132  17.174  1.2028  0.0186  0.1192
17859TIP3    H274993   2.944   1.037  17.109  0.1521  1.3326 -0.2576
17860TIP3   OH274994   1.490   1.896  16.707  0.2806  0.4764  0.6030
17860TIP3    H174995   1.577   1.919  16.675  0.6385  0.8974  1.8216
17860TIP3    H274996   1.506   1.846  16.787 -0.5832  0.7822  0.9871
17861TIP3   OH274997   1.998   1.060   2.555 -0.3399  0.3702  0.7398
17861TIP3    H174998   1.910   1.024   2.564  0.1880 -0.9527  1.0017
17861TIP3    H274999   1.991   1.126   2.486 -1.6431  0.7232  1.1880
17862TIP3   OH275000   3.522   1.937  11.331  1.1125  0.7885  0.1205
17862TIP3    H175001   3.547   1.910  11.420  2.3690 -0.4962 -0.5810
17862TIP3    H275002   3.587   1.895  11.274 -0.8880 -0.1820 -1.5976
17863TIP3   OH275003   6.693   0.238  13.985  0.2351 -0.4201  1.0436
17863TIP3    H175004   6.741   0.211  14.063  0.7993  0.0922  0.8750
17863TIP3    H275005   6.618   0.178  13.982  0.8951 -1.2762  1.2641
17864TIP3   OH275006   5.773   1.723   3.761 -0.1194 -0.0037  0.0202
17864TIP3    H175007   5.816   1.797   3.804 -0.2199  0.7896 -1.1736
17864TIP3    H275008   5.750   1.757   3.674 -0.3142 -1.4016 -0.4926
17865TIP3   OH275009   5.415   3.213  14.563  0.2477 -0.4117 -0.1474
17865TIP3    H175010   5.369   3.131  14.547  1.3746 -1.0878 -0.0667
17865TIP3    H275011   5.399   3.266  14.485  0.4663 -1.1755 -0.7249
17866TIP3   OH275012   5.953   5.499  14.344  0.4530  0.2244 -0.7650
17866TIP3    H175013   5.944   5.571  14.407  0.6536  0.5283 -1.0869
17866TIP3    H275014   6.033   5.454  14.370 -0.0369 -0.3084 -0.1327
17867TIP3   OH275015   0.040   3.361   3.725  0.7580  0.5096  0.1166
17867TIP3    H175016   0.124   3.403   3.741  0.8308 -0.2345  2.0142
17867TIP3    H275017   0.055   3.304   3.650  2.2795 -0.3873  1.0429
17868TIP3   OH275018   2.067   4.407  15.413 -0.3772 -0.0919 -0.2164
17868TIP3    H175019   2.125   4.355  15.358 -0.6644  0.0152 -0.6258
17868TIP3    H275020   2.125   4.468  15.460 -0.2106  0.3722 -1.0156
17869TIP3   OH275021   3.711   5.192  10.637  0.3681 -0.4425  0.1969
17869TIP3    H175022   3.619   5.182  10.662  0.6252 -1.9396  0.5945
17869TIP3    H275023   3.745   5.103  10.632  1.6340  0.0582 -0.6175
17870TIP3   OH275024   0.330   0.728  15.827 -0.4473  0.5117  0.2991
17870TIP3    H175025   0.261   0.667  15.854 -1.8163  2.4825  1.5075
17870TIP3    H275026   0.285   0.813  15.820  1.2408  1.3071 -1.9309
17871TIP3   OH275027   5.673   2.175   2.527 -0.0707  0.0731 -0.4069
17871TIP3    H175028   5.616   2.250   2.541  1.3411  1.3059 -1.0180
17871TIP3    H275029   5.648   2.142   2.440 -0.1470  0.3560 -0.4951
17872TIP3   OH275030   1.400   4.710   0.497 -0.1994  0.0966 -0.1882
17872TIP3    H175031   1.350   4.645   0.448 -0.3939 -2.0036  2.5281
17872TIP3    H275032   1.415   4.668   0.582  0.7524  3.1754  1.2807
17873TIP3   OH275033   3.006   1.838  10.861 -0.4788 -0.2192  0.6527
17873TIP3    H175034   2.938   1.773  10.877 -2.0477  1.0331 -0.4937
17873TIP3    H275035   3.075   1.790  10.816 -0.9236 -1.3896  1.1744
17874TIP3   OH275036   3.488   3.031  15.299 -0.4226 -0.2477 -0.2134
17874TIP3    H175037   3.429   3.024  15.224 -0.1728  0.8778 -0.5362
17874TIP3    H275038   3.573   3.054  15.261 -0.4704  1.1317  0.4444
17875TIP3   OH275039   1.621   4.008   4.779 -0.4025 -0.0017 -0.1954
17875TIP3    H175040   1.578   3.923   4.780  2.4572 -1.5919 -1.2025
17875TIP3    H275041   1.691   4.000   4.843  0.8976  1.0104 -1.4412
17876TIP3   OH275042   0.096   6.519   1.000 -0.9688  0.0185 -0.2514
17876TIP3    H175043   0.020   6.466   0.978  0.6378 -1.7259 -1.9516
17876TIP3    H275044   0.070   6.609   0.977 -3.1840 -0.1518  1.2262
17877TIP3   OH275045   3.173   3.657   0.873  0.1616 -0.0982  0.0294
17877TIP3    H175046   3.254   3.605   0.878  0.8708  0.9466 -0.2725
17877TIP3    H275047   3.199   3.744   0.902 -0.8684  0.2471 -0.0626
17878TIP3   OH275048   0.344   2.976  13.274  0.1920  0.0850 -0.2389
17878TIP3    H175049   0.292   2.900  13.301 -0.9342  2.3426  5.1072
17878TIP3    H275050   0.434   2.946  13.278 -0.1396 -0.8258  3.1835
17879TIP3   OH275051   3.820   4.818  14.628 -0.1781 -0.0520  0.5243
17879TIP3    H175052   3.737   4.856  14.659 -0.4448  2.6916 -2.9411
17879TIP3    H275053   3.800   4.786  14.541  2.1047 -0.6483  0.1682
17880TIP3   OH275054   3.201   5.724   3.449 -0.1230  0.0707  0.4898
17880TIP3    H175055   3.162   5.757   3.529  2.7000  1.9542  1.2448
17880TIP3    H275056   3.286   5.690   3.476 -0.0343 -1.3861 -1.4089
17881TIP3   OH275057   3.143   0.535  14.234  0.1440 -0.1157 -0.2563
17881TIP3    H175058   3.162   0.618  14.279 -0.8543  0.6206 -1.1547
17881TIP3    H275059   3.133   0.559  14.142  0.8210 -1.4056 -0.6938
17882TIP3   OH275060   2.530   4.564   6.051  0.0325 -0.1426  0.6348
17882TIP3    H175061   2.495   4.622   6.118  1.4539  0.6101  0.7429
17882TIP3    H275062   2.556   4.622   5.980  0.8960 -0.6954  0.4866
17883TIP3   OH275063   6.623   0.549  14.892  0.1840  0.7733 -0.1844
17883TIP3    H175064   6.603   0.634  14.931 -1.8339  0.7526 -1.0548
17883TIP3    H275065   6.618   0.488  14.966 -2.8795  0.8410 -0.1850
17884TIP3   OH275066   6.649   1.017   4.050  0.3671 -0.3708  0.2099
17884TIP3    H175067   6.719   0.960   4.019  0.7837  0.4424 -0.3853
17884TIP3    H275068   6.579   0.958   4.076  1.1219 -1.1818  0.4329
17885TIP3   OH275069   3.873   2.546  17.005  0.0715 -0.0405  0.0217
17885TIP3    H175070   3.834   2.592  17.079  1.9018  1.1990  0.2616
17885TIP3    H275071   3.873   2.610  16.933 -0.2663 -0.7188 -0.5973
17886TIP3   OH275072   0.341   1.137  12.657  0.4047 -0.3995 -0.2687
17886TIP3    H175073   0.258   1.095  12.635  0.1064 -0.5782  1.0896
17886TIP3    H275074   0.408   1.074  12.632  0.3297  0.6499 -3.5260
17887TIP3   OH275075   5.279   2.147  14.484  0.3545 -0.0380 -0.4360
17887TIP3    H175076   5.267   2.137  14.389 -0.3276 -0.6685 -0.2899
17887TIP3    H275077   5.217   2.215  14.509  0.1339 -0.2735 -0.3486
17888TIP3   OH275078   0.207   0.623   6.183 -0.0205 -0.1981  0.6435
17888TIP3    H175079   0.173   0.712   6.189 -0.5861 -0.3621 -0.0172
17888TIP3    H275080   0.300   0.631   6.202  0.1096  0.6739 -0.2838
17889TIP3   OH275081   2.725   0.826  14.899  0.2180 -0.7200  0.0343
17889TIP3    H175082   2.661   0.759  14.873  0.7045 -0.7125 -1.2609
17889TIP3    H275083   2.755   0.798  14.985  0.7177 -2.4398 -0.6452
17890TIP3   OH275084   5.164   2.679   6.007  0.1295  0.0530 -0.0056
17890TIP3    H175085   5.172   2.774   6.016 -0.1351 -0.0553  1.9194
17890TIP3    H275086   5.071   2.664   5.991 -0.3423  0.0473  2.2915
17891TIP3   OH275087   0.871   6.324  13.742  0.8366  0.4874  0.1988
17891TIP3    H175088   0.925   6.326  13.662  1.4821  1.2114  0.6403
17891TIP3    H275089   0.786   6.292  13.712  1.1234  0.5720 -0.7537
17892TIP3   OH275090   2.839   6.708  13.348 -0.4873 -0.0741 -0.3221
17892TIP3    H175091   2.786   6.788  13.345  0.6197  0.6885  0.0452
17892TIP3    H275092   2.852   6.692  13.442 -0.4300 -0.5152 -0.4032
17893TIP3   OH275093   6.552   1.844  14.818 -0.1482  0.5985 -0.1879
17893TIP3    H175094   6.599   1.786  14.878  0.5595  1.5917  0.2452
17893TIP3    H275095   6.619   1.904  14.785 -0.9703  1.5590 -0.1567
17894TIP3   OH275096   4.971   5.499   6.380 -0.0781 -0.4608 -0.0984
17894TIP3    H175097   4.988   5.590   6.403 -2.0928  0.0693 -0.5526
17894TIP3    H275098   4.920   5.465   6.453 -1.1949 -0.5750 -0.9127
17895TIP3   OH275099   2.667   4.203  12.695  0.3011 -0.7209  0.3690
17895TIP3    H175100   2.683   4.297  12.691  0.9495 -0.8160  0.6722
17895TIP3    H275101   2.579   4.192  12.658  0.7926 -0.1549 -1.0258
17896TIP3   OH275102   3.228   4.941   5.443  0.1997  0.4741 -0.1004
17896TIP3    H175103   3.294   4.915   5.508  1.3671  0.9580 -1.0527
17896TIP3    H275104   3.231   5.037   5.443  1.0248  0.4926 -1.6089
17897TIP3   OH275105   0.683   3.716   1.811  0.0356  0.2374  0.1317
17897TIP3    H175106   0.627   3.792   1.824 -0.7870 -0.1610 -0.9133
17897TIP3    H275107   0.760   3.752   1.766 -0.6271  0.3762 -0.9291
17898TIP3   OH275108   1.853   3.071  11.330 -0.2119 -0.0750 -0.2670
17898TIP3    H175109   1.818   2.982  11.319 -1.6801  0.6071 -1.6333
17898TIP3    H275110   1.846   3.109  11.243  3.1954  0.4723 -0.4369
17899TIP3   OH275111   2.175   1.299  14.390 -0.0753 -0.3430 -0.1670
17899TIP3    H175112   2.267   1.297  14.366  0.0137  0.7591  0.0489
17899TIP3    H275113   2.149   1.206  14.393  0.7810 -0.6308 -1.1019
17900TIP3   OH275114   2.911   1.003   0.871 -0.3354 -0.0213  0.3058
17900TIP3    H175115   2.886   0.911   0.866  0.3231 -0.2526  1.0372
17900TIP3    H275116   2.951   1.012   0.958  2.5027  0.2198 -0.9194
17901TIP3   OH275117   0.527   1.765   0.010  0.9135  0.2300 -0.4092
17901TIP3    H175118   0.605   1.821   0.010  0.9061  0.2422 -1.0723
17901TIP3    H275119   0.562   1.677   0.027  1.0413  0.2766 -0.4232
17902TIP3   OH275120   3.325   6.727   4.980  0.0437 -0.0019  0.3423
17902TIP3    H175121   3.419   6.727   4.997  0.3330  1.1417 -1.0197
17902TIP3    H275122   3.287   6.772   5.056  0.8316  1.3151 -0.0049
17903TIP3   OH275123   1.096   0.110   3.037 -0.0209 -0.1148 -0.6428
17903TIP3    H175124   1.031   0.165   2.995  0.2798  0.1498 -0.7701
17903TIP3    H275125   1.171   0.168   3.052 -0.1951 -0.1478  0.4511
17904TIP3   OH275126   2.822   6.595  11.444  0.1539  0.0540 -0.5860
17904TIP3    H175127   2.792   6.624  11.358 -1.8146  0.3035  0.1423
17904TIP3    H275128   2.918   6.599  11.439  0.0374  2.0107 -2.0858
17905TIP3   OH275129   4.688   3.561   2.056 -0.0375  0.4950 -0.2155
17905TIP3    H175130   4.656   3.546   2.145 -1.0273 -0.1299 -0.6667
17905TIP3    H275131   4.647   3.493   2.003  0.5858  0.8175 -1.1542
17906TIP3   OH275132   3.225   5.317   5.099  0.1451  0.2183  0.3959
17906TIP3    H175133   3.142   5.292   5.139  0.6663  0.3701  1.6281
17906TIP3    H275134   3.202   5.386   5.037 -0.4436  1.6153  2.0909
17907TIP3   OH275135   4.466   6.771   1.906  0.0907  0.3080  0.6953
17907TIP3    H175136   4.497   6.691   1.864  0.9901  0.2580  1.4220
17907TIP3    H275137   4.529   6.838   1.880 -0.0573  0.5456  0.9405
17908TIP3   OH275138   1.841   2.453  17.206 -0.7389 -0.1730  0.0856
17908TIP3    H175139   1.937   2.451  17.208 -0.6800  1.3915 -0.3583
17908TIP3    H275140   1.818   2.408  17.125 -0.3968 -0.6304  0.2353
17909TIP3   OH275141   5.195   2.551  11.071 -0.3923 -0.4765 -0.2278
17909TIP3    H175142   5.192   2.612  10.998  1.4391 -0.3061 -0.2011
17909TIP3    H275143   5.123   2.578  11.128 -0.3255  0.9393 -0.7886
17910TIP3   OH275144   4.449   4.357  16.198  0.1863 -0.2889 -0.7189
17910TIP3    H175145   4.518   4.415  16.229 -1.6393  1.5757  0.1236
17910TIP3    H275146   4.478   4.329  16.112  2.7753 -1.0323  0.2924
17911TIP3   OH275147   2.840   5.080  14.318  0.2776 -0.0645 -0.1834
17911TIP3    H175148   2.883   5.163  14.340  0.1970 -0.0102 -0.2309
17911TIP3    H275149   2.910   5.025  14.283  0.2095  0.2085 -0.7534
17912TIP3   OH275150   3.002   2.427  11.002  0.4348 -0.9668 -0.1331
17912TIP3    H175151   2.987   2.358  10.937  0.5879 -2.0005  0.8932
17912TIP3    H275152   2.957   2.396  11.080 -1.0939  0.9978 -0.1530
17913TIP3   OH275153   3.128   2.799   0.731  0.3977 -0.0559  0.8177
17913TIP3    H175154   3.070   2.729   0.761 -0.2677  0.8019  1.5923
17913TIP3    H275155   3.095   2.821   0.643  1.1538 -1.2760  0.2057
17914TIP3   OH275156   3.879   3.999   3.676  0.2110 -0.7263  0.2552
17914TIP3    H175157   3.838   4.025   3.593  1.0896  0.6257  0.2126
17914TIP3    H275158   3.872   3.904   3.678 -1.4444 -0.6545 -0.5176
17915TIP3   OH275159   1.105   0.999  15.896 -1.0228 -0.0617 -0.4136
17915TIP3    H175160   1.011   1.007  15.908 -0.9040  0.1633  0.3701
17915TIP3    H275161   1.115   0.981  15.802 -1.8244  0.1226 -0.5423
17916TIP3   OH275162   5.570   6.463  15.849 -0.5833 -0.2573  0.2940
17916TIP3    H175163   5.579   6.379  15.895  0.6932 -0.3094 -0.0261
17916TIP3    H275164   5.540   6.438  15.761  2.0437 -0.6277 -0.5749
17917TIP3   OH275165   1.480   3.985   1.885  0.1607  0.4315 -0.3673
17917TIP3    H175166   1.507   3.917   1.947 -1.5246  0.2304  0.2005
17917TIP3    H275167   1.478   3.940   1.800 -0.2559 -0.0406 -0.1118
17918TIP3   OH275168   5.330   5.005  14.390 -0.3641 -0.4350  0.4912
17918TIP3    H175169   5.412   4.991  14.437 -1.1385 -0.1853  1.9929
17918TIP3    H275170   5.342   5.089  14.345  0.2530 -0.4655  0.5913
17919TIP3   OH275171   2.314   1.234  13.779 -0.1087  0.4387 -0.6540
17919TIP3    H175172   2.378   1.222  13.708  0.0656  2.1480 -0.8217
17919TIP3    H275173   2.367   1.230  13.859  0.3166  2.2204 -0.8076
17920TIP3   OH275174   0.065   3.648  11.029  0.4301 -0.5287 -0.1982
17920TIP3    H175175   0.006   3.705  10.979 -0.1867  0.9132  2.0631
17920TIP3    H275176   0.027   3.560  11.019 -1.5603  0.2236  0.3576
17921TIP3   OH275177   6.272   0.299   3.624 -0.2267 -0.0682 -0.0889
17921TIP3    H175178   6.353   0.292   3.573  0.7544 -2.0418  1.5698
17921TIP3    H275179   6.302   0.324   3.711 -1.7642  2.3131 -0.1799
17922TIP3   OH275180   1.104   5.163  15.535  0.0408 -0.3969  0.1463
17922TIP3    H175181   1.045   5.166  15.610  0.0561  0.2125  0.1382
17922TIP3    H275182   1.065   5.222  15.471  1.6556  1.5928  0.8897
17923TIP3   OH275183   1.739   1.692   2.972 -0.2091 -0.1727  0.2046
17923TIP3    H175184   1.775   1.691   2.884 -0.6626 -0.3057  0.0203
17923TIP3    H275185   1.644   1.681   2.960 -0.1984 -0.8780  0.7438
17924TIP3   OH275186   0.250   1.069   4.707 -0.0603 -0.0896  0.4557
17924TIP3    H175187   0.220   0.992   4.757  0.1730 -0.0177  0.7092
17924TIP3    H275188   0.330   1.097   4.752  1.0087 -0.9159 -0.8226
17925TIP3   OH275189   4.301   5.609   4.738 -0.1047  0.0674 -0.9151
17925TIP3    H175190   4.377   5.663   4.758 -0.8635  0.5255  0.9606
17925TIP3    H275191   4.236   5.670   4.704 -0.6206  0.2087  0.2714
17926TIP3   OH275192   3.526   0.496  13.383 -0.0070 -0.0668 -0.2320
17926TIP3    H175193   3.622   0.497  13.391  0.0828 -1.0744 -0.9365
17926TIP3    H275194   3.497   0.574  13.429  1.2161  0.6881 -0.7005
17927TIP3   OH275195   3.717   0.970  11.227 -0.1928 -1.3278  0.0559
17927TIP3    H175196   3.646   0.908  11.215 -0.2958 -0.8663 -1.9582
17927TIP3    H275197   3.788   0.938  11.172  0.4757 -0.7151  0.5283
17928TIP3   OH275198   2.720   2.212   5.319 -0.5667 -0.6140 -0.2611
17928TIP3    H175199   2.671   2.270   5.261  0.3611  0.0607 -0.4002
17928TIP3    H275200   2.774   2.271   5.371 -1.4556 -1.1858  1.4031
17929TIP3   OH275201   2.673   2.345   2.061  0.0927  0.3783 -0.8336
17929TIP3    H175202   2.639   2.430   2.090  2.3225  1.2599 -0.5294
17929TIP3    H275203   2.628   2.327   1.979 -4.3445 -0.8028  1.5753
17930TIP3   OH275204   1.249   1.078   1.315  0.2624 -0.3911 -0.4809
17930TIP3    H175205   1.237   1.136   1.240 -1.5536  3.8569  2.6544
17930TIP3    H275206   1.160   1.051   1.339  0.3183  1.2226  1.9588
17931TIP3   OH275207   6.657   4.945   5.980 -0.0105 -0.2922  0.1172
17931TIP3    H175208   6.658   4.894   6.061  1.2690 -0.6904 -0.1310
17931TIP3    H275209   6.669   4.880   5.911  0.0645  0.1668 -0.3066
17932TIP3   OH275210   2.675   6.128  14.365  0.0955 -0.2651 -0.0174
17932TIP3    H175211   2.644   6.195  14.304  0.9305  1.4581  1.3536
17932TIP3    H275212   2.598   6.074  14.383 -0.2912 -0.5067 -2.1434
17933TIP3   OH275213   1.262   1.699  12.921 -0.3772 -0.1361 -0.2184
17933TIP3    H175214   1.356   1.693  12.901 -0.1195 -1.8388  1.2173
17933TIP3    H275215   1.245   1.792  12.927  1.7060  0.2217  1.3605
17934TIP3   OH275216   6.175   1.272   3.606  0.0272  0.3020  0.4618
17934TIP3    H175217   6.115   1.346   3.607 -1.0816 -0.5718  1.7815
17934TIP3    H275218   6.226   1.281   3.686 -1.0858 -1.0908  1.3623
17935TIP3   OH275219   5.770   0.688  13.550  0.0436 -0.3509 -0.9342
17935TIP3    H175220   5.791   0.614  13.492  0.5127  0.5036 -1.8937
17935TIP3    H275221   5.853   0.708  13.594  0.0982  0.0448 -1.2113
17936TIP3   OH275222   5.475   6.056  11.802 -0.2479  0.0698  0.1734
17936TIP3    H175223   5.568   6.059  11.823  0.0213 -0.3273 -0.8582
17936TIP3    H275224   5.461   6.131  11.744 -0.7151  0.4897  0.8153
17937TIP3   OH275225   6.491   1.005   6.270 -0.0389 -0.2041 -0.9351
17937TIP3    H175226   6.493   1.094   6.305  0.0495 -0.9299  1.0399
17937TIP3    H275227   6.397   0.986   6.260 -0.0482  0.3902 -2.2427
17938TIP3   OH275228   4.669   4.767  11.604  0.3199  0.2036  0.3545
17938TIP3    H175229   4.611   4.699  11.570 -1.0436  1.3425  0.3024
17938TIP3    H275230   4.655   4.842  11.545  1.8336  0.5274  0.3681
17939TIP3   OH275231   4.338   6.377  14.146  0.2971 -0.7889  0.2746
17939TIP3    H175232   4.403   6.443  14.169 -1.1340  0.5755  0.5410
17939TIP3    H275233   4.319   6.392  14.054  0.8052 -1.6116  0.0223
17940TIP3   OH275234   5.022   1.702  13.915 -0.1834 -0.5789  0.2131
17940TIP3    H175235   5.035   1.781  13.862  0.8019 -0.8799 -0.0199
17940TIP3    H275236   5.086   1.640  13.881  1.2215 -0.4542  2.4329
17941TIP3   OH275237   2.433   6.402  12.113 -0.0834 -0.0253  0.3380
17941TIP3    H175238   2.361   6.341  12.131  1.0489 -0.6898  3.1548
17941TIP3    H275239   2.488   6.398  12.191  1.1970  3.0702 -0.2734
17942TIP3   OH275240   1.988   1.733   2.021  0.2302 -0.7463 -0.1077
17942TIP3    H175241   2.030   1.734   2.107 -1.1439  1.6370  0.6507
17942TIP3    H275242   2.034   1.665   1.972  2.4641 -0.7504  1.8086
17943TIP3   OH275243   0.685   3.526  16.489 -0.0463  0.2119  0.3502
17943TIP3    H175244   0.689   3.599  16.427  1.5032 -0.7200 -0.7151
17943TIP3    H275245   0.592   3.512  16.503 -0.4903  0.1550 -2.1845
17944TIP3   OH275246   5.392   3.063   4.442  0.7424 -0.7340 -0.4313
17944TIP3    H175247   5.445   3.114   4.380 -0.3442 -0.6603 -1.3291
17944TIP3    H275248   5.360   2.989   4.391 -0.8978 -0.2113 -0.2381
17945TIP3   OH275249   2.683   5.051   4.642  0.0835  0.0389  0.1437
17945TIP3    H175250   2.683   4.998   4.563  2.3692  2.2768 -1.5162
17945TIP3    H275251   2.767   5.031   4.684 -1.3710 -1.6233  2.4789
17946TIP3   OH275252   4.841   5.455  17.251  0.2345 -0.2308  0.0557
17946TIP3    H175253   4.846   5.475  17.344 -0.5154 -0.6658  0.1938
17946TIP3    H275254   4.807   5.366  17.246 -0.7688  0.1592 -0.6391
17947TIP3   OH275255   4.481   3.721  12.655  0.2354 -0.3466  0.6652
17947TIP3    H175256   4.415   3.781  12.688 -0.0127 -1.5581  2.4989
17947TIP3    H275257   4.435   3.637  12.645  1.0175 -0.7125  0.0260
17948TIP3   OH275258   5.509   5.859   5.009 -0.0813 -0.3534 -0.3322
17948TIP3    H175259   5.460   5.778   5.026  2.3124 -2.0067 -0.6750
17948TIP3    H275260   5.592   5.846   5.054 -0.1070  2.5898  0.7561
17949TIP3   OH275261   0.637   3.911   2.189 -0.1709  0.0554  0.0888
17949TIP3    H175262   0.598   3.825   2.181 -0.9270  0.4564 -0.6895
17949TIP3    H275263   0.722   3.904   2.146 -0.0859 -0.3794  0.3269
17950TIP3   OH275264   3.158   1.775   0.261 -0.0839  0.4775 -0.2089
17950TIP3    H175265   3.141   1.869   0.258  0.9859  0.6731 -1.0405
17950TIP3    H275266   3.253   1.769   0.272 -0.3578 -0.5262  2.1402
17951TIP3   OH275267   5.739   0.177   1.120 -0.4970 -0.5496  0.2462
17951TIP3    H175268   5.740   0.185   1.024  0.6164  2.0275  0.3856
17951TIP3    H275269   5.646   0.176   1.143 -0.7817 -0.8349 -0.8411
17952TIP3   OH275270   2.295   1.497  13.449  0.0698 -0.4271  0.5078
17952TIP3    H175271   2.298   1.560  13.377  1.3903  0.8874  1.6475
17952TIP3    H275272   2.362   1.432  13.427  1.2310  0.5669  1.0517
17953TIP3   OH275273   2.606   2.802   5.653  0.1065 -0.2039 -0.6606
17953TIP3    H175274   2.678   2.749   5.688 -0.3207  0.1094  0.7355
17953TIP3    H275275   2.537   2.797   5.719  0.0130  1.9863 -0.5037
17954TIP3   OH275276   2.739   2.631  11.442  0.5149 -0.1584 -0.0430
17954TIP3    H175277   2.660   2.617  11.494 -1.1284 -0.2328 -2.4021
17954TIP3    H275278   2.734   2.723  11.415  0.9811 -0.2984 -0.6308
17955TIP3   OH275279   4.198   4.016   1.308  0.4242 -0.2538  1.0858
17955TIP3    H175280   4.169   4.074   1.378  0.9673 -0.6992  1.6877
17955TIP3    H275281   4.288   3.993   1.331  0.9741  0.3888 -0.2736
17956TIP3   OH275282   6.310   5.124  14.343 -0.3414 -0.3018  0.4104
17956TIP3    H175283   6.347   5.127  14.255 -0.8910  1.3404  0.2017
17956TIP3    H275284   6.280   5.034  14.354 -0.9047 -0.3650 -1.3533
17957TIP3   OH275285   4.038   3.548  17.172 -0.4617  0.2553 -0.0226
17957TIP3    H175286   4.116   3.602  17.157 -0.6279  0.5940  0.2876
17957TIP3    H275287   4.025   3.500  17.091  0.8916 -0.8815  0.3989
17958TIP3   OH275288   5.888   5.555   3.210 -0.0347  0.1110  0.3017
17958TIP3    H175289   5.956   5.520   3.152 -0.8546  0.4381 -0.9168
17958TIP3    H275290   5.830   5.481   3.227  0.0547  0.0800  0.4713
17959TIP3   OH275291   4.191   0.115  15.921  0.3940  0.2256  0.2050
17959TIP3    H175292   4.182   0.209  15.904 -2.0516 -0.2879 -1.9469
17959TIP3    H275293   4.146   0.101  16.004 -1.4844  0.6647 -0.6932
17960TIP3   OH275294   1.707   6.217   5.153  0.2068  0.0926 -0.3836
17960TIP3    H175295   1.704   6.312   5.162 -0.2469 -0.0043  0.5502
17960TIP3    H275296   1.637   6.185   5.209 -2.5472 -0.6314 -3.8672
17961TIP3   OH275297   4.885   4.686   5.262  0.2042  0.3953  0.3021
17961TIP3    H175298   4.876   4.761   5.203  0.3571 -2.0225 -3.1446
17961TIP3    H275299   4.979   4.668   5.264  0.0885 -0.2628  0.2207
17962TIP3   OH275300   6.741   6.364  16.963  0.0331 -0.4597  0.1361
17962TIP3    H175301   6.818   6.399  16.919  0.0642 -0.9930 -0.2431
17962TIP3    H275302   6.776   6.306  17.030 -0.0319 -0.2876  0.3203
17963TIP3   OH275303   3.543   5.402   3.436  0.4924 -0.7578  0.2113
17963TIP3    H175304   3.472   5.364   3.487 -0.0834 -0.4926 -0.3657
17963TIP3    H275305   3.556   5.489   3.473  2.1137 -1.6259  1.8224
17964TIP3   OH275306   4.552   4.010   4.692 -0.4955 -0.4635  0.5670
17964TIP3    H175307   4.504   4.058   4.760  1.8962 -0.0668  2.0804
17964TIP3    H275308   4.546   3.918   4.719 -0.7817 -0.4653  0.4982
17965TIP3   OH275309   6.216   1.971  13.105  0.1660 -0.0550  0.6125
17965TIP3    H175310   6.148   2.031  13.134  0.7786  0.6165  0.6862
17965TIP3    H275311   6.283   1.976  13.173  0.4752 -0.3995  0.3377
17966TIP3   OH275312   0.268   4.783   2.404  0.2755 -0.8391 -0.0052
17966TIP3    H175313   0.239   4.821   2.487  0.7346 -0.1949 -0.1369
17966TIP3    H275314   0.289   4.692   2.426 -0.6847 -0.9856  0.3399
17967TIP3   OH275315   3.134   1.887  12.849 -0.2281  0.0087  0.6689
17967TIP3    H175316   3.072   1.828  12.892 -1.6383  0.8923 -0.0847
17967TIP3    H275317   3.107   1.888  12.757  0.7987  0.5654  0.3598
17968TIP3   OH275318   4.797   2.369   2.596 -0.2372 -0.6021  0.2131
17968TIP3    H175319   4.743   2.381   2.518  0.4027 -2.5730 -0.5979
17968TIP3    H275320   4.738   2.384   2.669 -0.4452  3.1693 -0.5332
17969TIP3   OH275321   4.166   5.996   1.653 -0.1376  0.0639  0.3947
17969TIP3    H175322   4.154   6.077   1.703  0.0773 -0.1489  0.8042
17969TIP3    H275323   4.079   5.957   1.651 -0.3336  0.5227 -0.1944
17970TIP3   OH275324   5.566   4.613  12.473 -0.2301 -0.3950  0.4788
17970TIP3    H175325   5.606   4.533  12.438 -0.3809  0.2433 -1.2685
17970TIP3    H275326   5.572   4.676  12.401  1.6539  1.8260  2.3777
17971TIP3   OH275327   6.107   6.183  16.702  0.3112  0.2124 -0.3911
17971TIP3    H175328   6.100   6.153  16.792  0.9897 -2.8534 -1.2383
17971TIP3    H275329   6.027   6.149  16.660  0.8668 -0.0090 -1.3048
17972TIP3   OH275330   5.608   0.211   3.461 -0.0629 -0.4506  1.0654
17972TIP3    H175331   5.521   0.180   3.436  0.2834 -2.1022  1.7862
17972TIP3    H275332   5.666   0.137   3.442  1.3543  0.9252 -0.2649
17973TIP3   OH275333   4.153   0.410  13.398 -0.4620  0.0935 -0.2946
17973TIP3    H175334   4.099   0.332  13.409 -2.2552  1.1686 -1.0713
17973TIP3    H275335   4.124   0.470  13.466 -1.3632  1.2552 -1.6421
17974TIP3   OH275336   2.354   5.181   0.554 -0.3015 -0.0714 -0.8405
17974TIP3    H175337   2.389   5.128   0.625 -0.2927  2.2770  1.0151
17974TIP3    H275338   2.430   5.221   0.513 -0.4216 -0.0149 -1.0120
17975TIP3   OH275339   1.748   1.508  15.216 -0.2782 -0.9871 -0.9371
17975TIP3    H175340   1.839   1.512  15.246 -1.2962  1.2463  2.4170
17975TIP3    H275341   1.710   1.434  15.263 -0.8515 -0.1557 -0.0684
17976TIP3   OH275342   2.561   1.617   4.241  0.0078 -0.1495  0.4558
17976TIP3    H175343   2.528   1.705   4.219  2.3764  0.2422 -2.1575
17976TIP3    H275344   2.489   1.576   4.289 -2.5864  2.0093 -1.2672
17977TIP3   OH275345   4.748   5.951   0.396  0.8041  0.1694  0.1051
17977TIP3    H175346   4.688   6.025   0.384  1.0597  0.3881  0.1748
17977TIP3    H275347   4.695   5.874   0.375 -0.6659 -0.0172  3.6200
17978TIP3   OH275348   0.722   2.944   3.494  0.3067  0.4486  0.4069
17978TIP3    H175349   0.784   2.982   3.431  1.1003  0.1072  0.9633
17978TIP3    H275350   0.748   2.981   3.578  1.5068 -1.7237  1.0722
17979TIP3   OH275351   2.198   0.717  16.543  0.6530 -0.1250  0.9931
17979TIP3    H175352   2.147   0.757  16.473 -0.1139 -3.1500 -0.3234
17979TIP3    H275353   2.150   0.738  16.623 -1.0900 -0.5121  0.0782
17980TIP3   OH275354   4.857   1.912  16.348 -0.0816  0.1166 -0.1884
17980TIP3    H175355   4.831   2.000  16.324 -0.4486  0.0163 -0.1659
17980TIP3    H275356   4.789   1.855  16.311  0.5617 -0.2257 -0.8697
17981TIP3   OH275357   2.610   4.223   1.819  0.1725  0.1402 -0.2330
17981TIP3    H175358   2.554   4.146   1.814  0.6724 -0.2542  0.2833
17981TIP3    H275359   2.677   4.209   1.752  0.6640 -0.2004  0.3216
17982TIP3   OH275360   3.650   1.233  11.138 -0.1219 -0.0433 -0.1933
17982TIP3    H175361   3.639   1.141  11.160  0.1224 -0.5173 -1.9244
17982TIP3    H275362   3.744   1.248  11.143 -0.2791  0.5452  1.5968
17983TIP3   OH275363   2.595   6.736  11.958 -0.3129  0.8329 -0.1580
17983TIP3    H175364   2.689   6.737  11.971 -0.2494 -5.0250  3.4864
17983TIP3    H275365   2.562   6.808  12.011  2.0426  0.7987  1.5019
17984TIP3   OH275366   2.173   3.166   0.767  0.0992 -0.2239 -0.3151
17984TIP3    H175367   2.079   3.173   0.751 -0.1975 -0.2204  1.2744
17984TIP3    H275368   2.205   3.256   0.759  0.2125 -0.3955 -2.1146
17985TIP3   OH275369   5.906   3.833  12.607 -0.2619  0.3139 -0.0476
17985TIP3    H175370   5.905   3.764  12.674 -0.5838  0.6989  0.3420
17985TIP3    H275371   5.991   3.875  12.618  0.4411 -0.7555 -1.0520
17986TIP3   OH275372   1.836   3.688  15.090 -0.5816  0.8099  0.4808
17986TIP3    H175373   1.777   3.756  15.123 -0.5588  0.1014  2.0944
17986TIP3    H275374   1.828   3.617  15.154  1.7885  0.5744  0.5838
17987TIP3   OH275375   2.979   5.826   2.329 -0.2742  0.3450  0.6371
17987TIP3    H175376   3.051   5.872   2.285 -0.2267  0.3145  0.6822
17987TIP3    H275377   2.999   5.733   2.316 -0.2359  0.3353  0.7607
17988TIP3   OH275378   1.428   2.441   6.555  0.2589 -0.7512 -0.1646
17988TIP3    H175379   1.338   2.475   6.556  0.1846 -0.8696  1.8885
17988TIP3    H275380   1.439   2.405   6.467 -1.5989 -0.4617 -0.5609
17989TIP3   OH275381   1.950   6.283  16.537  0.6587 -0.2128 -0.4561
17989TIP3    H175382   1.941   6.273  16.442 -0.1859  0.0627 -0.4093
17989TIP3    H275383   1.918   6.200  16.573  0.3366 -0.0561 -0.3819
17990TIP3   OH275384   2.649   1.582  16.865  0.5233  0.3234  0.1514
17990TIP3    H175385   2.709   1.551  16.932  0.7410  1.0002  0.2848
17990TIP3    H275386   2.564   1.548  16.890  0.9831 -1.5009 -0.5842
17991TIP3   OH275387   3.206   4.911  14.900 -0.4525 -0.1238 -0.3963
17991TIP3    H175388   3.291   4.907  14.945  0.6485 -0.6211 -2.3737
17991TIP3    H275389   3.149   4.853  14.951  0.9037 -1.1271  0.0506
17992TIP3   OH275390   1.513   0.939  14.145 -0.2460 -0.0957 -0.3548
17992TIP3    H175391   1.449   0.889  14.095 -0.7828  0.4704 -0.2364
17992TIP3    H275392   1.580   0.874  14.169  0.8468 -0.0846 -3.0899
17993TIP3   OH275393   1.305   2.468   6.194  0.2411 -0.7093 -0.3289
17993TIP3    H175394   1.234   2.505   6.247  2.6188  2.0487  1.2010
17993TIP3    H275395   1.350   2.407   6.252  1.3259  0.4092  0.0515
17994TIP3   OH275396   2.819   3.690   2.156 -0.0842 -0.4070 -0.3539
17994TIP3    H175397   2.764   3.670   2.231  0.1170 -1.1087 -0.3872
17994TIP3    H275398   2.848   3.780   2.170 -0.0449 -0.5366  0.4122
17995TIP3   OH275399   6.481   3.394  14.837 -0.6145  0.3867  0.0994
17995TIP3    H175400   6.469   3.325  14.902 -0.9328  0.3402 -0.0065
17995TIP3    H275401   6.481   3.475  14.888 -0.0073  0.2930  0.2478
17996TIP3   OH275402   4.712   2.899  16.871 -0.5395  0.8029 -0.3630
17996TIP3    H175403   4.778   2.923  16.806 -1.1683 -0.0977 -1.3776
17996TIP3    H275404   4.705   2.976  16.927  0.7940  1.2067 -0.7004
17997TIP3   OH275405   0.814   2.334  12.171  0.6526 -1.0363 -0.6761
17997TIP3    H175406   0.894   2.354  12.122  0.1721  0.1463 -1.0205
17997TIP3    H275407   0.797   2.413  12.222 -0.0171 -1.4712 -0.2079
17998TIP3   OH275408   2.505   1.902   0.668  0.3280  0.1397 -0.3821
17998TIP3    H175409   2.460   1.881   0.586  1.8585 -1.1684 -0.9526
17998TIP3    H275410   2.496   1.997   0.676 -2.0223 -0.0020 -0.7013
17999TIP3   OH275411   5.071   5.744  12.482 -0.0127 -0.1740 -0.2478
17999TIP3    H175412   4.982   5.766  12.457 -0.8594 -2.4626  0.5464
17999TIP3    H275413   5.062   5.679  12.551  2.2691 -1.1498 -0.7595
18000TIP3   OH275414   3.912   3.662   2.062 -0.0604  0.2036  0.0312
18000TIP3    H175415   3.866   3.624   1.987 -1.5198 -0.5218  1.2375
18000TIP3    H275416   3.891   3.755   2.057 -0.8372  0.0377 -0.0177
18001TIP3   OH275417   0.837   1.859  13.398  0.1366  0.3275  1.2311
18001TIP3    H175418   0.783   1.866  13.476  1.3409  1.3244  2.0113
18001TIP3    H275419   0.863   1.949  13.378  0.6136 -0.0154  0.2545
18002TIP3   OH275420   3.875   0.141   0.857  0.3829 -0.1570 -0.7706
18002TIP3    H175421   3.825   0.060   0.867 -0.8181  0.8184  2.1541
18002TIP3    H275422   3.964   0.113   0.836  0.1809 -2.2966  0.9397
18003TIP3   OH275423   2.863   4.057   0.395 -0.2305 -0.0050 -0.0994
18003TIP3    H175424   2.900   3.993   0.335  1.4250  1.0923 -0.3075
18003TIP3    H275425   2.855   4.010   0.478  1.5035 -0.3660 -0.0929
18004TIP3   OH275426   1.865   0.605  16.060 -0.3670  0.0413 -0.2502
18004TIP3    H175427   1.788   0.564  16.101 -0.5147  0.8971  0.3413
18004TIP3    H275428   1.846   0.602  15.966 -0.6755 -0.6269 -0.1791
18005TIP3   OH275429   6.329   1.208  17.159 -0.6178  0.6047  0.5164
18005TIP3    H175430   6.307   1.185  17.068 -0.7568  0.4624  0.5847
18005TIP3    H275431   6.406   1.265  17.152 -0.0562 -0.1586  0.3615
18006TIP3   OH275432   0.946   2.939  13.473 -0.1327 -0.1039 -0.5212
18006TIP3    H175433   0.868   2.994  13.469 -0.3990 -0.5753 -2.7605
18006TIP3    H275434   1.007   2.979  13.411  0.8065 -0.6479  0.0310
18007TIP3   OH275435   3.679   3.036   1.596  0.1316 -0.6685  0.2079
18007TIP3    H175436   3.765   3.075   1.585 -0.7206  1.5048  0.6820
18007TIP3    H275437   3.688   2.947   1.562  1.9023  0.2822 -2.0652
18008TIP3   OH275438   2.703   3.760   3.230  0.3270  0.6128 -0.0123
18008TIP3    H175439   2.707   3.695   3.300  1.0011 -0.2628 -0.8303
18008TIP3    H275440   2.793   3.764   3.196  0.1147  1.3712 -0.5214
18009TIP3   OH275441   6.093   4.178  12.601  0.4748 -0.3853  0.0376
18009TIP3    H175442   6.136   4.126  12.668  1.1596  0.7503  0.5177
18009TIP3    H275443   6.163   4.202  12.540  0.2652  0.3453  0.0762
18010TIP3   OH275444   1.177   1.033   5.464  0.4578  0.3060 -0.3786
18010TIP3    H175445   1.185   0.999   5.375  1.8027  1.7697 -0.8708
18010TIP3    H275446   1.106   0.982   5.503 -0.6597  0.0933 -2.5083
18011TIP3   OH275447   0.197   1.020   1.237 -0.0524  0.4340  0.0987
18011TIP3    H175448   0.149   1.039   1.318 -2.4674 -1.7105 -0.6969
18011TIP3    H275449   0.287   1.047   1.255 -0.0541 -1.5853  4.1494
18012TIP3   OH275450   0.698   0.502   2.265 -0.0989  0.1929 -0.5363
18012TIP3    H175451   0.759   0.528   2.334 -0.8734 -0.3208  0.3647
18012TIP3    H275452   0.612   0.529   2.298 -0.5884 -0.8958 -0.8728
18013TIP3   OH275453   1.974   5.027   5.924 -0.1541 -0.4973 -0.2141
18013TIP3    H175454   1.953   5.062   6.011 -0.8662 -1.2743 -0.0612
18013TIP3    H275455   1.984   4.933   5.938  3.8088 -0.2438 -0.2086
18014TIP3   OH275456   6.115   0.442  16.006  0.1362  0.2217 -0.0779
18014TIP3    H175457   6.073   0.521  15.971  1.3123  0.2123 -1.6204
18014TIP3    H275458   6.177   0.415  15.938  1.1173 -0.9705  1.2158
18015TIP3   OH275459   6.729   4.458   3.500  0.2289  0.2848 -0.4874
18015TIP3    H175460   6.798   4.409   3.545 -0.8140 -0.4570  0.3630
18015TIP3    H275461   6.773   4.498   3.425  1.3533 -1.0557 -0.5843
18016TIP3   OH275462   4.688   0.293   5.220 -0.3192  0.6172 -0.4002
18016TIP3    H175463   4.625   0.231   5.256 -0.5010  1.0993  0.1381
18016TIP3    H275464   4.707   0.353   5.293  0.5239  0.6634 -0.6470
18017TIP3   OH275465   3.399   2.275   3.201 -0.1493  0.1821 -0.0291
18017TIP3    H175466   3.450   2.195   3.214 -1.6049 -0.5164  1.8267
18017TIP3    H275467   3.456   2.345   3.234 -0.3388 -0.5843  2.0684
18018TIP3   OH275468   1.898   2.991   2.218 -0.6627  0.4723  0.4933
18018TIP3    H175469   1.812   3.035   2.213  0.4943  2.9456  0.7013
18018TIP3    H275470   1.883   2.914   2.272 -3.2153 -0.4384 -1.3144
18019TIP3   OH275471   1.661   6.305  12.324 -0.7599  0.1943 -0.8229
18019TIP3    H175472   1.749   6.340  12.336 -1.7922  2.9203 -0.5782
18019TIP3    H275473   1.652   6.237  12.391  0.8485  0.4528 -0.3157
18020TIP3   OH275474   3.872   0.489   4.912  0.3614 -0.2620 -0.2540
18020TIP3    H175475   3.816   0.423   4.952 -1.0295  0.5137 -0.8823
18020TIP3    H275476   3.958   0.474   4.951 -0.4663 -0.8993  1.4006
18021TIP3   OH275477   1.349   0.922   2.327 -0.5687  0.6082  0.5326
18021TIP3    H175478   1.318   0.966   2.248  0.4501  0.1307 -0.1570
18021TIP3    H275479   1.292   0.846   2.336  0.7848 -0.6970 -1.1683
18022TIP3   OH275480   6.026   1.864  17.135  0.0858 -0.4507 -0.3337
18022TIP3    H175481   6.022   1.769  17.145 -1.4172 -0.4009 -0.2720
18022TIP3    H275482   6.029   1.897  17.225  3.7862 -0.4743 -0.3116
18023TIP3   OH275483   2.936   3.732   3.879  0.2114 -0.1556  0.2570
18023TIP3    H175484   2.928   3.789   3.955 -0.5022  1.4861 -0.9805
18023TIP3    H275485   2.863   3.758   3.822  1.9874  0.2402 -1.9813
18024TIP3   OH275486   6.557   0.298   1.008  0.1152  0.5161 -0.0593
18024TIP3    H175487   6.524   0.325   0.922 -1.0913  0.7751  0.4607
18024TIP3    H275488   6.576   0.205   0.998 -1.1429  0.2617 -0.3024
18025TIP3   OH275489   2.824   5.498   5.114 -0.2612  0.1033  0.0581
18025TIP3    H175490   2.804   5.498   5.207  1.0235  1.1125  0.3665
18025TIP3    H275491   2.886   5.570   5.103 -0.2774 -0.0938 -1.5531
18026TIP3   OH275492   3.236   5.441  14.147  0.2785  0.1899  0.1359
18026TIP3    H175493   3.146   5.443  14.113  0.0927 -1.7072  0.4003
18026TIP3    H275494   3.291   5.442  14.068 -0.0093  0.1747 -0.0691
18027TIP3   OH275495   4.494   1.939   4.558 -0.2546  0.3560 -0.1024
18027TIP3    H175496   4.554   1.967   4.628 -0.5548  1.6631 -0.3471
18027TIP3    H275497   4.419   1.997   4.566 -1.0424 -0.5825 -0.4710
18028TIP3   OH275498   0.292   6.407   5.024 -0.2929 -0.3929 -0.4474
18028TIP3    H175499   0.301   6.401   5.119 -0.1141  0.4213 -0.4094
18028TIP3    H275500   0.354   6.474   4.997  0.2299 -1.1667 -1.2390
18029TIP3   OH275501   2.776   5.644  17.080  0.2522  0.0580  0.4274
18029TIP3    H175502   2.716   5.577  17.111 -1.9887  1.0930 -1.3413
18029TIP3    H275503   2.784   5.705  17.153  0.7812 -1.0903  1.3654
18030TIP3   OH275504   1.023   4.279  11.773  0.1076  0.0785 -0.1440
18030TIP3    H175505   1.030   4.239  11.687 -0.0277 -0.4618  0.0902
18030TIP3    H275506   0.938   4.322  11.773 -0.0258 -0.1836 -0.1729
18031TIP3   OH275507   1.913   4.640  12.797 -0.2952  0.5006  0.4921
18031TIP3    H175508   1.930   4.558  12.843 -0.2078  0.3222  0.1439
18031TIP3    H275509   1.844   4.618  12.734  1.7398 -0.0649 -1.6845
18032TIP3   OH275510   4.091   0.305   2.349  0.0052 -0.2889  0.3096
18032TIP3    H175511   4.038   0.361   2.291  0.1972 -0.4684 -0.0467
18032TIP3    H275512   4.109   0.227   2.296  1.5592  0.2426  0.0050
18033TIP3   OH275513   4.286   4.251   1.966 -0.1052 -0.1499  0.4321
18033TIP3    H175514   4.224   4.245   2.039  0.3198 -0.3890  0.7780
18033TIP3    H275515   4.308   4.344   1.961  0.7888 -0.2975  1.3970
18034TIP3   OH275516   6.597   5.670  11.353 -0.0549 -0.4232 -0.4160
18034TIP3    H175517   6.549   5.647  11.274  0.0542 -0.9791 -0.3213
18034TIP3    H275518   6.636   5.755  11.333 -1.7061  0.4372 -0.2239
18035TIP3   OH275519   3.455   2.087   0.277 -0.4205 -0.2264  0.5359
18035TIP3    H175520   3.389   2.049   0.220  1.8949 -1.6600 -1.3159
18035TIP3    H275521   3.484   2.166   0.232 -1.0220  0.5757  1.4965
18036TIP3   OH275522   1.242   5.378  10.691 -0.1343 -0.2264  0.4575
18036TIP3    H175523   1.174   5.440  10.666 -0.6784 -0.7844  0.5226
18036TIP3    H275524   1.227   5.363  10.785  1.3114  1.1402  0.9545
18037TIP3   OH275525   2.430   2.473   3.881 -0.0102  0.5964  0.0264
18037TIP3    H175526   2.388   2.555   3.907 -0.9392  0.6467 -1.4788
18037TIP3    H275527   2.487   2.497   3.808 -0.7482 -0.1622 -0.8341
18038TIP3   OH275528   1.016   1.564   2.129  0.1669  0.5151  0.0964
18038TIP3    H175529   1.044   1.537   2.042  4.0381  2.0238  0.6524
18038TIP3    H275530   1.002   1.658   2.121 -0.3467  0.5178  0.9354
18039TIP3   OH275531   6.061   3.032   1.686  0.2248  0.5065 -0.0080
18039TIP3    H175532   6.041   2.939   1.693 -1.7890  1.0023  2.5649
18039TIP3    H275533   6.150   3.041   1.718  0.0882 -0.4472  0.6743
18040TIP3   OH275534   6.209   5.624  11.571 -0.0677 -0.1122  0.1441
18040TIP3    H175535   6.237   5.564  11.641  0.1587  0.3043  0.4166
18040TIP3    H275536   6.215   5.711  11.611 -4.2580 -0.0811  1.1270
18041TIP3   OH275537   6.126   2.201   4.451  0.1053 -0.0972  0.1600
18041TIP3    H175538   6.121   2.295   4.468 -0.9892  0.0499 -0.8460
18041TIP3    H275539   6.213   2.175   4.482  0.4300  1.2493  0.4201
18042TIP3   OH275540   4.628   2.088  15.023 -0.6896  0.1745  0.1233
18042TIP3    H175541   4.692   2.147  14.985 -1.3154  0.0716 -1.1388
18042TIP3    H275542   4.556   2.144  15.051 -0.5848  0.1660  0.4142
18043TIP3   OH275543   5.962   1.759  13.446 -0.0521 -0.4049 -0.8013
18043TIP3    H175544   5.936   1.843  13.408 -0.9345 -0.1939  0.2255
18043TIP3    H275545   6.052   1.773  13.474 -0.5102  0.5806  0.3212
18044TIP3   OH275546   4.187   0.087   5.305 -0.5733  0.0125  0.3513
18044TIP3    H175547   4.170   0.143   5.381 -1.3730 -1.0195  0.9613
18044TIP3    H275548   4.101   0.072   5.267 -0.3163 -0.4655 -0.0431
18045TIP3   OH275549   6.583   6.599  10.426  0.6070  0.1744 -0.1575
18045TIP3    H175550   6.669   6.576  10.391  1.2141  1.8511  0.1025
18045TIP3    H275551   6.525   6.597  10.350  1.0818 -0.0411 -0.5216
18046TIP3   OH275552   5.909   5.086   2.365  0.3360  0.6840  0.1282
18046TIP3    H175553   5.980   5.047   2.416 -0.9375  0.2236  1.6222
18046TIP3    H275554   5.940   5.082   2.274  1.2580 -1.6667  0.4728
18047TIP3   OH275555   6.619   6.136   3.613 -0.0977  0.5295  0.1204
18047TIP3    H175556   6.524   6.125   3.614 -0.2190  1.5022  0.2016
18047TIP3    H275557   6.651   6.065   3.668 -0.8924  1.0673  1.3311
18048TIP3   OH275558   2.936   0.026   4.618  0.3543 -0.4995  0.0514
18048TIP3    H175559   2.880   0.102   4.630  1.7486  0.3729  1.3291
18048TIP3    H275560   2.994   0.026   4.694  0.8258 -2.4747 -0.2497
18049TIP3   OH275561   3.536   3.617  14.683 -0.2832 -0.1226  0.6366
18049TIP3    H175562   3.485   3.568  14.619  2.1652 -0.7307 -0.9806
18049TIP3    H275563   3.541   3.706  14.646  0.4063 -0.2549  0.3929
18050TIP3   OH275564   6.332   3.075  13.589 -0.2318 -0.2720 -0.2888
18050TIP3    H175565   6.323   2.996  13.642  0.4635 -0.0945  0.0997
18050TIP3    H275566   6.420   3.070  13.552 -0.6235 -0.2845 -1.2675
18051TIP3   OH275567   5.090   1.705  12.024 -0.0496 -0.0457 -0.2017
18051TIP3    H175568   5.092   1.637  12.091  0.2955  0.0774 -0.0860
18051TIP3    H275569   5.182   1.730  12.011 -0.3233  2.5386  1.9599
18052TIP3   OH275570   6.580   0.887  16.453 -0.7332 -0.4692  0.1929
18052TIP3    H175571   6.526   0.811  16.435 -1.2808 -0.1871  0.6077
18052TIP3    H275572   6.569   0.904  16.547 -0.6323  0.1279  0.1066
18053TIP3   OH275573   2.421   2.107  11.350  0.3303  0.6506 -0.0059
18053TIP3    H175574   2.340   2.145  11.382  0.7851  0.7436  1.0899
18053TIP3    H275575   2.395   2.055  11.274 -0.4752  2.1264 -0.7786
18054TIP3   OH275576   1.889   5.595  16.631 -0.4066 -0.2070  0.4545
18054TIP3    H175577   1.847   5.662  16.577  0.1532 -0.6947 -0.6203
18054TIP3    H275578   1.882   5.628  16.721 -0.7063  0.9755  0.0129
18055TIP3   OH275579   4.627   1.028  10.708 -0.1824 -0.0082  0.3258
18055TIP3    H175580   4.688   1.091  10.746  1.2053  0.5785 -2.6107
18055TIP3    H275581   4.571   1.080  10.651 -0.4410 -1.1548 -0.4930
18056TIP3   OH275582   0.707   3.169   0.045  0.1557 -0.8962 -0.4966
18056TIP3    H175583   0.707   3.205   0.134 -0.3413  0.2219 -0.9222
18056TIP3    H275584   0.629   3.114   0.041  0.7477 -1.8076  0.0654
18057TIP3   OH275585   4.129   1.273   1.320 -0.1777  0.3686  0.4523
18057TIP3    H175586   4.146   1.306   1.409 -0.0335  0.3332  0.4380
18057TIP3    H275587   4.103   1.351   1.271 -0.7278  0.3106  0.6424
18058TIP3   OH275588   4.468   3.832   2.342  0.0013  0.3189  0.7743
18058TIP3    H175589   4.394   3.791   2.386 -0.6124  1.0928  0.4873
18058TIP3    H275590   4.470   3.921   2.378 -0.3985  0.9082 -0.6119
18059TIP3   OH275591   2.385   2.774   2.583 -0.3364 -0.2289 -0.1454
18059TIP3    H175592   2.428   2.782   2.669 -0.9470 -2.9706  0.5248
18059TIP3    H275593   2.382   2.863   2.549  2.0425  0.6354  1.6389
18060TIP3   OH275594   4.329   1.273  13.663  0.0561  0.3663  0.6680
18060TIP3    H175595   4.343   1.353  13.612  0.9674  0.8703  1.6459
18060TIP3    H275596   4.416   1.232  13.668 -0.6534 -1.4890 -1.0398
18061TIP3   OH275597   4.225   1.715  15.476  0.5611  0.2685 -0.4885
18061TIP3    H175598   4.193   1.801  15.502 -0.2449 -0.4940  1.2154
18061TIP3    H275599   4.286   1.689  15.545  0.3633 -0.7388 -0.6659
18062TIP3   OH275600   4.677   4.054   3.444  0.3303  0.1687 -0.5757
18062TIP3    H175601   4.630   4.057   3.361  2.7071  2.4084 -1.9919
18062TIP3    H275602   4.755   4.001   3.425  0.8409  0.6043  0.2647
18063TIP3   OH275603   4.767   4.611  15.228  0.1335 -0.3400  0.2404
18063TIP3    H175604   4.695   4.569  15.276  0.5024  0.4609  1.5369
18063TIP3    H275605   4.724   4.674  15.171 -0.3142 -1.2906 -0.5067
18064TIP3   OH275606   5.835   3.989   3.211 -0.0350  0.2825 -0.6202
18064TIP3    H175607   5.802   3.907   3.175 -0.0590  0.3765 -0.8139
18064TIP3    H275608   5.910   4.011   3.156 -0.4284  0.7306 -0.9902
18065TIP3   OH275609   1.746   3.473   2.975  0.1938  0.8565  0.2053
18065TIP3    H175610   1.725   3.553   3.022 -0.2785  0.4777  0.6557
18065TIP3    H275611   1.680   3.467   2.906  0.3920  0.9856 -0.0008
18066TIP3   OH275612   3.845   2.118  12.634  0.0259 -0.3811  0.0860
18066TIP3    H175613   3.841   2.087  12.543 -0.4983  1.4779 -0.5761
18066TIP3    H275614   3.914   2.184  12.634 -0.5896  0.2862  0.8103
18067TIP3   OH275615   2.361   0.067   5.383 -0.0186 -0.3084 -0.1403
18067TIP3    H175616   2.353   0.080   5.288 -0.0958 -0.2111 -0.1208
18067TIP3    H275617   2.304   0.134   5.421 -0.1883 -0.5171 -0.0309
18068TIP3   OH275618   4.744   0.955  16.461 -0.0728  0.4908  0.3105
18068TIP3    H175619   4.756   1.050  16.467  1.6576  0.2579  1.3443
18068TIP3    H275620   4.805   0.920  16.526 -2.1758 -1.2804  1.4441
18069TIP3   OH275621   0.269   0.548  13.334 -0.1131  0.1622 -0.4606
18069TIP3    H175622   0.345   0.605  13.330 -0.9347  1.4201  0.9149
18069TIP3    H275623   0.203   0.598  13.382 -1.4847 -1.2689 -0.7401
18070TIP3   OH275624   4.638   6.476   5.558 -0.7036 -0.2011  0.0993
18070TIP3    H175625   4.680   6.390   5.554 -0.8308 -0.4127  2.1332
18070TIP3    H275626   4.686   6.529   5.495 -1.3005 -2.0064 -1.9882
18071TIP3   OH275627   2.251   3.689  14.929 -0.1313 -0.1654  0.5684
18071TIP3    H175628   2.174   3.741  14.955  0.3872  0.1646  1.5082
18071TIP3    H275629   2.310   3.695  15.004  2.5143  2.7926 -1.4841
18072TIP3   OH275630   4.250   3.653  17.047 -0.0983 -0.1235 -0.1252
18072TIP3    H175631   4.292   3.736  17.025 -1.3316  0.7765  0.7384
18072TIP3    H275632   4.277   3.592  16.978  0.7283  1.0236 -0.8407
18073TIP3   OH275633   5.012   3.101   5.627  0.8074 -0.4936 -0.3599
18073TIP3    H175634   4.989   3.046   5.702  1.4254 -1.0681 -0.5762
18073TIP3    H275635   5.096   3.140   5.651 -0.5925  2.1392  0.7195
18074TIP3   OH275636   4.327   0.089  14.714 -0.0208  0.1466  0.3933
18074TIP3    H175637   4.353   0.168  14.761  0.4496 -1.1365  2.4239
18074TIP3    H275638   4.375   0.093  14.631  0.5790  1.5997  0.7783
18075TIP3   OH275639   3.692   5.365  16.157  1.2530  0.1072  0.0440
18075TIP3    H175640   3.777   5.330  16.185 -0.5117 -2.6721  2.5890
18075TIP3    H275641   3.677   5.441  16.213  1.7768  0.2546 -0.0070
18076TIP3   OH275642   4.895   2.206  14.960  0.5624  0.3074  0.3319
18076TIP3    H175643   4.836   2.253  14.900  2.0325  2.2675  0.3368
18076TIP3    H275644   4.969   2.266  14.973  1.7614 -1.3730  1.6630
18077TIP3   OH275645   3.735   2.650   4.879  0.0193 -0.0879 -0.0555
18077TIP3    H175646   3.818   2.611   4.852  0.1925  1.4719 -2.0430
18077TIP3    H275647   3.669   2.604   4.828 -0.0486  0.3252 -0.3528
18078TIP3   OH275648   5.675   1.977   2.094  0.1056  0.4814 -0.2294
18078TIP3    H175649   5.689   1.987   2.188 -0.6132  1.2840 -0.1981
18078TIP3    H275650   5.583   1.998   2.080  0.4967  1.6883 -1.2680
18079TIP3   OH275651   2.404   5.766  15.065  0.5815 -0.1994 -0.2813
18079TIP3    H175652   2.409   5.848  15.016  1.5992 -0.3867 -0.5183
18079TIP3    H275653   2.316   5.765  15.101  0.9073  1.5784  0.7206
18080TIP3   OH275654   2.461   1.755   1.798  0.2518 -0.4059 -0.1347
18080TIP3    H175655   2.557   1.756   1.807  0.4402 -0.7872 -1.7462
18080TIP3    H275656   2.433   1.840   1.831  1.0528 -0.6139  1.1608
18081TIP3   OH275657   2.595   4.868  16.736 -0.0255 -0.6275 -0.2681
18081TIP3    H175658   2.679   4.900  16.704 -0.6795 -1.6123 -3.2824
18081TIP3    H275659   2.540   4.864  16.658 -3.2347  0.8607  1.7126
18082TIP3   OH275660   2.062   4.594   4.769 -0.2346 -0.2403 -0.2009
18082TIP3    H175661   2.003   4.577   4.842 -0.6864  1.0294 -0.2476
18082TIP3    H275662   2.013   4.653   4.712  1.4230  1.7417  0.2828
18083TIP3   OH275663   6.638   2.189  16.160 -0.6073 -0.4807 -0.3208
18083TIP3    H175664   6.624   2.284  16.155 -0.3226 -0.3112  1.5406
18083TIP3    H275665   6.674   2.175  16.247  0.7627 -2.1501 -1.1023
18084TIP3   OH275666   3.563   0.780   1.801  0.0989  0.2043  0.1376
18084TIP3    H175667   3.590   0.864   1.763 -0.1983  0.7264  1.0701
18084TIP3    H275668   3.527   0.731   1.726  0.0342  0.9973 -0.3607
18085TIP3   OH275669   1.040   3.572  16.296  0.2846 -0.0363  0.1410
18085TIP3    H175670   1.057   3.562  16.390  0.4252  0.0274  0.1238
18085TIP3    H275671   1.119   3.538  16.253  0.2156 -0.0761  0.0462
18086TIP3   OH275672   3.069   4.732   4.394  0.6257  0.4078  0.5736
18086TIP3    H175673   3.025   4.661   4.440  0.2919 -0.2039 -0.6412
18086TIP3    H275674   3.100   4.692   4.313 -0.2856  1.8164 -0.5277
18087TIP3   OH275675   5.101   4.500   1.462 -0.1824 -0.1067 -0.0076
18087TIP3    H175676   5.138   4.568   1.405  3.0333 -1.1815  0.5872
18087TIP3    H275677   5.067   4.549   1.538  0.1768  0.9885 -0.5291
18088TIP3   OH275678   5.230   4.045  12.850  0.1723  0.0000 -0.0800
18088TIP3    H175679   5.157   3.989  12.823 -0.5828  1.2362 -0.7331
18088TIP3    H275680   5.264   4.004  12.929  2.1390 -3.5011 -2.4917
18089TIP3   OH275681   2.069   2.165   5.164  0.4957 -0.2611 -0.1950
18089TIP3    H175682   2.044   2.234   5.225 -3.8027 -1.7484  0.0708
18089TIP3    H275683   2.145   2.123   5.205  0.0556  1.1308  2.2181
18090TIP3   OH275684   3.909   3.291   1.377 -0.5697  0.3349 -0.0868
18090TIP3    H175685   3.879   3.207   1.342  0.5893  0.2096 -0.8650
18090TIP3    H275686   3.966   3.326   1.308 -1.1214  1.8189  0.1791
18091TIP3   OH275687   5.874   1.378  15.811 -0.1241  0.2942  0.5148
18091TIP3    H175688   5.795   1.334  15.779  0.7551  0.1144 -1.6118
18091TIP3    H275689   5.939   1.308  15.819  0.9253  0.9074 -1.6902
18092TIP3   OH275690   2.558   4.211  11.130  0.5143  0.0823  0.0979
18092TIP3    H175691   2.559   4.288  11.073 -0.2387 -0.1489 -0.2427
18092TIP3    H275692   2.496   4.152  11.088 -1.5653  0.6784  2.1496
18093TIP3   OH275693   1.860   0.566  13.885  0.3459  0.1002  0.6399
18093TIP3    H175694   1.929   0.578  13.950  1.7650  1.7496 -1.0425
18093TIP3    H275695   1.787   0.528  13.934  1.8778 -0.2288  2.8251
18094TIP3   OH275696   4.925   5.523  11.129  0.2621  0.4118  0.1942
18094TIP3    H175697   4.890   5.601  11.173 -0.1748 -0.0989  0.7662
18094TIP3    H275698   5.018   5.523  11.151  0.5425  1.4578 -0.8558
18095TIP3   OH275699   0.557   4.377  12.137  0.1470 -0.1876  0.1490
18095TIP3    H175700   0.566   4.465  12.100  1.3307 -0.8702 -1.2827
18095TIP3    H275701   0.505   4.330  12.072 -2.0382 -0.1216  1.7465
18096TIP3   OH275702   6.662   3.188  15.341  0.6395  0.3983 -0.3560
18096TIP3    H175703   6.657   3.116  15.278  1.7678  1.5604 -1.8565
18096TIP3    H275704   6.571   3.213  15.355  0.2814 -0.7410 -0.4933
18097TIP3   OH275705   6.692   3.723   4.763  0.1821 -0.0405 -0.1482
18097TIP3    H175706   6.625   3.747   4.699 -0.0163  0.3933  0.2195
18097TIP3    H275707   6.666   3.635   4.792 -1.2961  0.8362  1.3542
18098TIP3   OH275708   0.913   3.929  16.730 -0.2850 -0.8360  0.7274
18098TIP3    H175709   0.952   3.844  16.753  0.3933 -0.3156  1.5618
18098TIP3    H275710   0.835   3.906  16.679  0.9688 -1.9291 -0.8413
18099TIP3   OH275711   0.741   3.775   6.811 -0.0913 -0.4810  0.4969
18099TIP3    H175712   0.716   3.725   6.733 -0.7608 -0.7995  0.9119
18099TIP3    H275713   0.692   3.857   6.805  2.6392  1.1773 -1.3299
18100TIP3   OH275714   0.452   1.681  12.923  0.3726 -0.5934 -0.3915
18100TIP3    H175715   0.372   1.637  12.892 -0.3621  1.1450 -1.1162
18100TIP3    H275716   0.504   1.612  12.962 -1.9333 -1.6408  1.0220
18101TIP3   OH275717   4.841   4.098  13.767  0.2337  0.0986 -0.0089
18101TIP3    H175718   4.886   4.083  13.850  0.8906  1.0702 -0.1707
18101TIP3    H275719   4.755   4.057  13.778  1.5316 -2.9031 -0.1286
18102TIP3   OH275720   0.980   5.426   2.149 -0.2440 -0.2019 -0.0915
18102TIP3    H175721   1.015   5.393   2.232 -0.7064 -1.0554 -0.2242
18102TIP3    H275722   0.990   5.521   2.155  0.2980 -0.2985  0.6795
18103TIP3   OH275723   4.760   5.162  14.253 -0.1829  0.5191 -0.3487
18103TIP3    H175724   4.831   5.098  14.239  0.2998  0.9385  0.1127
18103TIP3    H275725   4.784   5.236  14.199  0.0185  0.8766  0.2173
18104TIP3   OH275726   2.645   5.703   1.687 -0.1082  0.2514  0.7598
18104TIP3    H175727   2.622   5.637   1.622 -1.7685 -1.2075  2.7195
18104TIP3    H275728   2.732   5.733   1.661 -0.6831 -0.2758 -2.0698
18105TIP3   OH275729   6.751   5.595   3.916 -0.8570  0.3873 -0.5172
18105TIP3    H175730   6.819   5.549   3.965 -0.1169  0.8905 -1.0583
18105TIP3    H275731   6.673   5.588   3.971 -0.1433  0.6071  0.5580
18106TIP3   OH275732   6.089   3.049   0.907 -0.3260 -0.5198 -0.1644
18106TIP3    H175733   6.106   2.955   0.916  0.0341 -0.3803  0.7156
18106TIP3    H275734   6.005   3.054   0.860  1.0188 -1.2401 -2.8705
18107TIP3   OH275735   1.772   6.469  12.002 -0.4495 -0.2856 -0.0884
18107TIP3    H175736   1.728   6.449  11.919 -3.0920 -0.7658  1.3304
18107TIP3    H275737   1.713   6.529  12.047  0.6916 -0.4060  1.6700
18108TIP3   OH275738   3.700   3.823  15.664 -0.2480  0.1861  0.2886
18108TIP3    H175739   3.777   3.813  15.608  0.0972  1.2922  0.5376
18108TIP3    H275740   3.736   3.837  15.751 -0.7632 -0.5130  0.6152
18109TIP3   OH275741   3.853   0.012   5.262  0.2275 -0.2030 -0.0240
18109TIP3    H175742   3.865  -0.056   5.328  1.2311 -0.1420 -0.1196
18109TIP3    H275743   3.836   0.092   5.313  0.5393 -0.2446  0.1512
18110TIP3   OH275744   3.625   1.175  15.314  0.4757  0.5889 -0.2341
18110TIP3    H175745   3.657   1.214  15.233 -0.0929 -1.5712 -1.6024
18110TIP3    H275746   3.600   1.249  15.369 -0.8460  2.1479 -2.7505
18111TIP3   OH275747   4.289   4.866  15.017 -0.1472  0.0396 -0.3809
18111TIP3    H175748   4.275   4.890  14.925  2.1065 -1.2297 -1.1311
18111TIP3    H275749   4.281   4.949  15.064 -0.5443  0.8627 -1.8203
18112TIP3   OH275750   1.052   3.311   3.346  0.1732 -0.3509 -0.0633
18112TIP3    H175751   1.012   3.377   3.289 -0.6812 -1.8440 -1.2961
18112TIP3    H275752   0.998   3.310   3.424 -1.1024 -0.9997 -0.9136
18113TIP3   OH275753   5.274   1.752  10.988 -0.4485  0.7487 -0.0764
18113TIP3    H175754   5.305   1.820  10.927  0.4310  1.0509  0.6860
18113TIP3    H275755   5.267   1.673  10.934  1.0498  0.8324 -0.4406
18114TIP3   OH275756   5.312   3.679  12.729 -0.0056  0.0505 -0.6596
18114TIP3    H175757   5.297   3.725  12.811  1.0610  0.0750 -0.4667
18114TIP3    H275758   5.352   3.744  12.671  1.1782 -0.5045 -0.4995
18115TIP3   OH275759   6.772   3.315  16.981 -0.0557 -0.0218 -0.8655
18115TIP3    H175760   6.816   3.394  16.950 -0.0326  0.5029  0.4362
18115TIP3    H275761   6.680   3.326  16.955  0.0382  0.1954 -1.1079
18116TIP3   OH275762   6.459   4.514   1.642  0.4026  0.2732 -0.0756
18116TIP3    H175763   6.473   4.607   1.624  0.7402  0.4656  1.1145
18116TIP3    H275764   6.363   4.505   1.645  0.2819  0.0797 -2.5449
18117TIP3   OH275765   1.351   5.940  14.719 -0.2021  0.0704 -0.2743
18117TIP3    H175766   1.403   5.884  14.776  0.3285 -1.2041 -1.9560
18117TIP3    H275767   1.415   5.998  14.678  0.0080 -1.5425 -2.3933
18118TIP3   OH275768   0.990   2.982  11.482 -0.5404  0.3673 -0.4293
18118TIP3    H175769   1.073   3.027  11.493 -0.8242  0.4239  2.1904
18118TIP3    H275770   1.010   2.907  11.426  1.2980  0.3538  0.1812
18119TIP3   OH275771   6.325   3.407   3.218 -1.0038 -0.7317  0.0474
18119TIP3    H175772   6.312   3.449   3.303 -2.1114  0.3466 -0.6265
18119TIP3    H275773   6.377   3.471   3.168 -1.7529 -0.6314 -0.6216
18120TIP3   OH275774   1.204   3.266   2.293 -0.3028  0.1108  0.6052
18120TIP3    H175775   1.280   3.325   2.288 -0.4583  0.2752  0.1830
18120TIP3    H275776   1.154   3.284   2.214 -0.6302 -0.2136  0.7360
18121TIP3   OH275777   1.041   3.394   5.361 -0.1710 -0.2878  0.3455
18121TIP3    H175778   1.126   3.352   5.356  0.4312  0.5083  2.7730
18121TIP3    H275779   0.996   3.351   5.433 -0.7547  1.0917  0.8534
18122TIP3   OH275780   4.169   6.513   1.185 -0.1232 -0.4156  0.1447
18122TIP3    H175781   4.153   6.560   1.267 -0.2566 -0.6871  0.2770
18122TIP3    H275782   4.223   6.572   1.133 -2.4486  0.9985 -0.7756
18123TIP3   OH275783   3.749   4.390  13.878  0.3297  0.7555  0.1572
18123TIP3    H175784   3.708   4.380  13.793 -1.9929 -1.7302  1.4139
18123TIP3    H275785   3.839   4.358  13.866 -0.4127 -1.0177 -1.0701
18124TIP3   OH275786   3.362   3.803   2.283  0.3121 -0.0986 -0.3842
18124TIP3    H175787   3.321   3.884   2.253  0.6833 -0.4881 -2.0950
18124TIP3    H275788   3.443   3.798   2.232  0.4111 -1.4249 -0.1283
18125TIP3   OH275789   3.727   0.803  16.431  0.2258 -0.0464  0.1772
18125TIP3    H175790   3.652   0.762  16.474 -0.0185  0.8743  0.6685
18125TIP3    H275791   3.782   0.834  16.503 -0.1325  1.4177 -0.1519
18126TIP3   OH275792   4.806   6.103   3.728 -0.7107 -0.2407  0.1790
18126TIP3    H175793   4.900   6.101   3.711 -0.5650  1.2074  0.6871
18126TIP3    H275794   4.786   6.017   3.764  0.1241 -1.1114 -1.3589
18127TIP3   OH275795   0.749   1.321   5.692  0.3630  0.1901  0.0817
18127TIP3    H175796   0.839   1.352   5.684  0.7022 -0.8968 -0.3811
18127TIP3    H275797   0.709   1.341   5.607  0.2603  0.3588  0.1688
18128TIP3   OH275798   0.898   0.595  13.127  0.3468  0.0377 -0.2636
18128TIP3    H175799   0.820   0.561  13.172 -0.5759  1.1062 -0.9993
18128TIP3    H275800   0.907   0.539  13.049 -0.7317  0.9430 -1.0800
18129TIP3   OH275801   5.357   3.756   2.496  0.0139  0.3544  0.0524
18129TIP3    H175802   5.344   3.701   2.574  1.3972  0.3678  0.3100
18129TIP3    H275803   5.298   3.719   2.431 -0.8270  0.0512  0.9570
18130TIP3   OH275804   4.377   5.455  12.548  0.4900 -0.0386 -0.5631
18130TIP3    H175805   4.442   5.433  12.481  1.8883  0.0909  0.7004
18130TIP3    H275806   4.400   5.543  12.576  0.7824 -0.5840  1.0087
18131TIP3   OH275807   0.341   4.860  17.306  0.0073  0.4514  0.1520
18131TIP3    H175808   0.371   4.775  17.275 -0.4256  0.8771 -1.5593
18131TIP3    H275809   0.420   4.905  17.334  0.5171  0.2196 -0.8626
18132TIP3   OH275810   0.145   5.749  10.991  0.2021 -0.0223  0.7724
18132TIP3    H175811   0.171   5.779  10.904 -0.3475 -0.4709  0.4418
18132TIP3    H275812   0.220   5.700  11.024  1.2607  1.9630  1.4745
18133TIP3   OH275813   1.865   4.908  12.851 -0.8914  0.0238  0.3435
18133TIP3    H175814   1.868   4.812  12.851  0.1321  0.0374  0.4350
18133TIP3    H275815   1.786   4.930  12.899 -2.1120 -0.7806 -1.2074
18134TIP3   OH275816   3.284   0.921  11.713 -0.1058  0.2184  0.6362
18134TIP3    H175817   3.333   0.993  11.673 -1.1508 -0.4329 -2.0405
18134TIP3    H275818   3.327   0.906  11.797  2.5845  1.3972 -0.4309
18135TIP3   OH275819   4.178   0.290   0.715  0.1234 -0.3572 -0.2595
18135TIP3    H175820   4.114   0.361   0.703  1.9824  1.1594 -1.7797
18135TIP3    H275821   4.172   0.238   0.635  0.8567 -0.1493 -0.4550
18136TIP3   OH275822   5.470   5.263   2.583  0.4558 -0.4041 -0.1780
18136TIP3    H175823   5.554   5.229   2.554  0.3811 -1.1484  0.4694
18136TIP3    H275824   5.435   5.309   2.506  2.4786  1.9978  0.2059
18137TIP3   OH275825   3.794   4.685   4.370  0.1545 -0.3201 -0.7567
18137TIP3    H175826   3.858   4.684   4.299  0.4314 -3.1804 -0.5612
18137TIP3    H275827   3.847   4.691   4.449 -0.0552  0.8755 -0.6880
18138TIP3   OH275828   3.178   0.557  13.197 -0.4499  0.2634 -0.2537
18138TIP3    H175829   3.092   0.534  13.160 -0.7171 -0.6751  0.9132
18138TIP3    H275830   3.188   0.500  13.273  1.5886 -0.2144 -0.8413
18139TIP3   OH275831   6.000   1.516   3.729  0.0867 -0.2883  0.2787
18139TIP3    H175832   5.942   1.586   3.758 -0.9144 -0.7899 -0.4130
18139TIP3    H275833   6.002   1.454   3.802 -0.2645 -0.2665  0.3080
18140TIP3   OH275834   1.240   2.108  12.288  0.1097  0.5485  0.2977
18140TIP3    H175835   1.312   2.153  12.243 -0.9988 -0.6352 -2.9422
18140TIP3    H275836   1.272   2.019  12.302 -1.1322 -0.5266 -2.7875
18141TIP3   OH275837   6.294   4.771  14.173 -0.0855 -0.3558  0.6467
18141TIP3    H175838   6.330   4.851  14.134  1.8247 -2.1702 -1.6230
18141TIP3    H275839   6.301   4.785  14.267 -0.7420  2.4930  0.3640
18142TIP3   OH275840   1.576   4.667   3.452 -0.0648 -0.0325 -0.3902
18142TIP3    H175841   1.556   4.573   3.457  2.2587 -0.6292 -0.7134
18142TIP3    H275842   1.635   4.674   3.377 -0.5526  1.7845 -0.6389
18143TIP3   OH275843   1.405   6.495   0.497  0.9904  0.2163 -0.0822
18143TIP3    H175844   1.450   6.498   0.582  0.3754 -0.9013  0.3031
18143TIP3    H275845   1.312   6.499   0.519  0.8254  2.7384 -0.8796
18144TIP3   OH275846   5.184   0.571  13.102 -0.1233  0.6268 -0.4921
18144TIP3    H175847   5.124   0.597  13.032 -0.8854  3.2992  1.0027
18144TIP3    H275848   5.237   0.650  13.119 -0.7541  0.5223  2.6320
18145TIP3   OH275849   2.171   6.028   3.004 -0.4170  0.2657  0.0950
18145TIP3    H175850   2.141   6.025   3.095 -1.8511 -2.1421 -0.3540
18145TIP3    H275851   2.091   6.042   2.953  0.0328 -0.5983 -0.8806
18146TIP3   OH275852   4.439   3.694   4.196  0.1313 -0.0011  0.4215
18146TIP3    H175853   4.391   3.751   4.136  0.2784  0.6350  0.8971
18146TIP3    H275854   4.511   3.748   4.228 -0.5619  0.0387  1.9923
18147TIP3   OH275855   1.349   5.577  17.163  0.0014  0.1238 -0.1584
18147TIP3    H175856   1.385   5.536  17.242  1.4763 -1.3368 -1.5055
18147TIP3    H275857   1.279   5.518  17.135  0.0135  0.2114 -0.3746
18148TIP3   OH275858   1.376   2.698   1.155  0.1588  0.6162  0.2431
18148TIP3    H175859   1.385   2.786   1.192  2.0247  1.3322 -1.7072
18148TIP3    H275860   1.404   2.639   1.225  0.2604  1.6807  1.1121
18149TIP3   OH275861   2.544   6.275  12.603 -0.1243 -0.4953  0.1892
18149TIP3    H175862   2.504   6.275  12.690 -1.7158 -1.5609 -0.4833
18149TIP3    H275863   2.496   6.342  12.554 -1.3613 -1.9429 -0.6942
18150TIP3   OH275864   0.381   2.243   3.478 -0.1222  0.1506  0.1447
18150TIP3    H175865   0.408   2.184   3.548 -1.3567  1.0377  1.4037
18150TIP3    H275866   0.290   2.265   3.498 -0.4246  0.6348 -1.5958
18151TIP3   OH275867   4.517   0.455  16.716  0.5855  0.0614  0.0235
18151TIP3    H175868   4.547   0.539  16.682  1.9963 -0.9360 -1.3877
18151TIP3    H275869   4.454   0.423  16.651  0.0750  0.0043  0.5353
18152TIP3   OH275870   1.181   2.969   0.031  0.1206  0.0800  0.1414
18152TIP3    H175871   1.267   3.002   0.058  0.8465 -1.7308  0.1747
18152TIP3    H275872   1.191   2.874   0.030 -1.7966 -0.1585 -0.1988
18153TIP3   OH275873   2.948   0.988  11.318  0.4317  0.5602 -0.0466
18153TIP3    H175874   2.952   1.064  11.260  1.6707  0.8974  0.4411
18153TIP3    H275875   2.997   1.015  11.396 -0.3742 -0.2258  0.7545
18154TIP3   OH275876   0.975   3.754   1.827 -0.0579  0.0466  0.6649
18154TIP3    H175877   1.005   3.844   1.813 -1.5663  0.3537 -0.8823
18154TIP3    H275878   1.013   3.729   1.912  0.3047  2.1553  1.1751
18155TIP3   OH275879   1.774   5.055   1.688 -0.9339  0.3632 -0.3297
18155TIP3    H175880   1.810   5.002   1.760 -1.0657 -1.1416 -1.3264
18155TIP3    H275881   1.841   5.053   1.621 -1.8823 -0.5447 -1.3017
18156TIP3   OH275882   0.700   4.356  15.108 -0.1238  0.1927  0.1240
18156TIP3    H175883   0.759   4.285  15.136 -0.1856 -0.4673 -1.3449
18156TIP3    H275884   0.691   4.344  15.014 -3.1529 -0.1615  0.3571
18157TIP3   OH275885   1.462   4.888   0.773  0.8601 -0.3998  0.7170
18157TIP3    H175886   1.502   4.974   0.760 -0.0694 -0.1695 -0.9356
18157TIP3    H275887   1.369   4.902   0.756  0.5885 -1.6121  1.0911
18158TIP3   OH275888   1.086   2.206  13.216  0.4469  0.3692 -0.0514
18158TIP3    H175889   1.151   2.276  13.231  0.0918  0.6093  0.3967
18158TIP3    H275890   1.040   2.233  13.137  0.7892  0.2776 -0.2838
18159TIP3   OH275891   2.994   1.738  13.027 -0.4971  0.2728  0.6053
18159TIP3    H175892   2.987   1.655  13.074 -0.4951  0.3919  0.8157
18159TIP3    H275893   2.904   1.770  13.021 -0.8463 -0.8966 -1.5705
18160TIP3   OH275894   3.153   4.047   2.375  0.2347  0.0140  0.0716
18160TIP3    H175895   3.168   4.137   2.403  0.0731  0.0352  0.0946
18160TIP3    H275896   3.187   3.993   2.447  0.3691  0.0556  0.0391
18161TIP3   OH275897   3.323   6.525   2.121  0.0634  0.3587 -0.8420
18161TIP3    H175898   3.377   6.569   2.056  0.2215  0.8484 -0.3892
18161TIP3    H275899   3.386   6.485   2.181 -0.0814 -0.3768 -1.1763
18162TIP3   OH275900   6.508   4.702  13.541  0.0030 -0.3067  0.2471
18162TIP3    H175901   6.492   4.679  13.450  0.0318 -2.8986  0.8401
18162TIP3    H275902   6.455   4.781  13.555  0.8556  0.8060 -2.2509
18163TIP3   OH275903   5.647   4.430   3.948 -0.4159 -0.1394 -0.0224
18163TIP3    H175904   5.598   4.348   3.960 -2.5467  0.9088 -1.0456
18163TIP3    H275905   5.650   4.469   4.035  1.9936 -1.9249  0.8253
18164TIP3   OH275906   2.057   2.682   1.384  0.0466 -0.2231 -0.0329
18164TIP3    H175907   2.075   2.701   1.292  0.8439  1.1386  0.3884
18164TIP3    H275908   2.121   2.733   1.433  0.1535 -1.5325  1.2761
18165TIP3   OH275909   4.016   5.318   6.007  0.2700 -0.4186  0.4007
18165TIP3    H175910   3.937   5.308   6.060 -1.3049 -2.0625 -2.0304
18165TIP3    H275911   4.062   5.235   6.018  1.7584  0.5175  1.7764
18166TIP3   OH275912   0.332   4.967   4.048  0.3135 -0.3939 -0.9495
18166TIP3    H175913   0.364   4.902   4.111  0.6804  2.5785  2.2391
18166TIP3    H275914   0.237   4.962   4.054  0.3172 -1.2390 -1.4601
18167TIP3   OH275915   0.210   6.150  12.029 -0.2993 -0.4624 -0.7680
18167TIP3    H175916   0.270   6.099  12.085 -0.4959  0.4524  0.3164
18167TIP3    H275917   0.132   6.161  12.083 -0.4965  0.4365 -1.2302
18168TIP3   OH275918   2.462   0.793  16.254 -0.0337 -0.1357  0.2846
18168TIP3    H175919   2.397   0.843  16.304 -0.0999 -1.3562  1.4722
18168TIP3    H275920   2.510   0.743  16.320  2.7250  1.3361 -0.4413
18169TIP3   OH275921   6.763   1.027   5.196 -0.0902  0.1830  0.2844
18169TIP3    H175922   6.846   1.026   5.245 -0.5796  0.8872  1.1606
18169TIP3    H275923   6.695   1.030   5.264 -0.8351 -0.2604 -0.4229
18170TIP3   OH275924   1.227   5.921  14.979  0.4235 -0.0968 -0.2938
18170TIP3    H175925   1.233   5.953  14.889  2.5351 -2.4514 -1.0989
18170TIP3    H275926   1.308   5.950  15.020  0.7104 -1.3062  0.0162
18171TIP3   OH275927   0.180   2.766   1.930  0.6224 -0.0475 -0.0540
18171TIP3    H175928   0.195   2.776   1.836  1.1520  0.2456  0.0558
18171TIP3    H275929   0.245   2.823   1.971 -0.6480  1.0999  0.4587
18172TIP3   OH275930   6.666   4.593  12.720 -0.8833 -0.8683  0.0333
18172TIP3    H175931   6.699   4.568  12.633  0.7688 -1.4764  0.8005
18172TIP3    H275932   6.737   4.572  12.780 -1.9953 -0.4568  1.5610
18173TIP3   OH275933   5.155   1.340   3.492  0.4687 -0.1611  0.5263
18173TIP3    H175934   5.143   1.270   3.557 -0.3932 -0.8381 -0.3386
18173TIP3    H275935   5.070   1.345   3.447 -0.0996  2.6016  1.6810
18174TIP3   OH275936   5.917   6.298   5.832  0.3907 -0.4507 -0.1913
18174TIP3    H175937   5.993   6.241   5.838  0.4135 -0.3908  0.1344
18174TIP3    H275938   5.881   6.281   5.745  1.4335  0.3629 -0.8004
18175TIP3   OH275939   4.280   4.312   3.727  0.1687 -0.0903  0.0526
18175TIP3    H175940   4.254   4.220   3.729 -0.4709  0.0944  0.4465
18175TIP3    H275941   4.309   4.327   3.637  1.0180 -0.8740  0.1785
18176TIP3   OH275942   5.190   4.061  10.594  0.2146 -0.3944 -0.0347
18176TIP3    H175943   5.179   4.117  10.517 -0.1480 -1.3738 -0.7174
18176TIP3    H275944   5.179   4.120  10.668 -2.2424  0.1088 -0.6975
18177TIP3   OH275945   0.824   1.994  13.947 -0.2610  0.0528 -0.0061
18177TIP3    H175946   0.832   2.036  13.861 -1.3257  1.0720  0.3748
18177TIP3    H275947   0.748   2.035  13.987  1.0268  0.5934  2.0189
18178TIP3   OH275948   2.673   5.449   5.878  0.2603  0.3963 -0.0963
18178TIP3    H175949   2.731   5.374   5.889 -0.2483 -0.0547 -0.4396
18178TIP3    H275950   2.615   5.446   5.955 -1.2889 -0.9562 -1.2515
18179TIP3   OH275951   2.221   3.710   0.849  1.0262 -0.1353 -0.3072
18179TIP3    H175952   2.238   3.702   0.943 -0.1465  0.5566 -0.0189
18179TIP3    H275953   2.218   3.619   0.818  1.0430 -0.3806  0.3965
18180TIP3   OH275954   5.913   3.129   0.477  0.2683  0.3563 -0.1485
18180TIP3    H175955   5.964   3.165   0.405  0.5784 -0.5363 -0.3920
18180TIP3    H275956   5.900   3.037   0.453 -1.3006  0.5131 -0.0066
18181TIP3   OH275957   3.802   6.294  17.093 -0.0585 -0.5837  0.2179
18181TIP3    H175958   3.765   6.381  17.106 -0.8329 -0.8337 -0.2151
18181TIP3    H275959   3.779   6.246  17.172  1.4988 -0.0461  1.0458
18182TIP3   OH275960   1.321   5.320  14.093  0.0733  0.0877 -0.3049
18182TIP3    H175961   1.276   5.361  14.167 -0.6547 -0.9009 -0.1803
18182TIP3    H275962   1.355   5.394  14.042  2.6906  0.8100  2.2143
18183TIP3   OH275963   6.057   5.085  14.074 -0.1294  0.1015 -0.1797
18183TIP3    H175964   6.064   5.138  13.995 -0.3213 -0.0289 -0.2844
18183TIP3    H275965   6.140   5.037  14.078 -0.3635 -0.3594 -0.6418
18184TIP3   OH275966   6.290   3.966  14.808 -0.4420 -0.1720  0.7085
18184TIP3    H175967   6.254   4.028  14.744  2.5401  1.0627  0.0885
18184TIP3    H275968   6.274   3.880  14.770  0.1301  0.4852 -1.1225
18185TIP3   OH275969   0.743   4.168  17.214 -0.2282 -0.4157  0.4297
18185TIP3    H175970   0.783   4.150  17.299  1.0061  0.0332 -0.0306
18185TIP3    H275971   0.651   4.143  17.224  0.3748 -2.4515  1.2081
18186TIP3   OH275972   3.036   2.210  14.268 -0.1387 -0.0839 -0.0325
18186TIP3    H175973   2.999   2.294  14.296 -0.1823 -0.2270  0.3500
18186TIP3    H275974   2.962   2.150  14.268 -0.0991 -0.1328 -0.2630
18187TIP3   OH275975   1.179   0.655   5.240 -0.5318 -0.5446  0.4692
18187TIP3    H175976   1.199   0.591   5.171 -0.6652 -0.6883  0.5627
18187TIP3    H275977   1.102   0.702   5.207  0.5004  0.6625 -0.3289
18188TIP3   OH275978   2.644   1.787   4.511  0.0944  0.0711  0.2146
18188TIP3    H175979   2.618   1.699   4.485  0.7872  0.4546 -1.9321
18188TIP3    H275980   2.568   1.821   4.558 -1.4252 -0.5484 -1.6899
18189TIP3   OH275981   2.304   5.411   4.644 -0.4544  0.5169 -0.0809
18189TIP3    H175982   2.251   5.357   4.702  1.6565 -0.4364  1.0829
18189TIP3    H275983   2.390   5.369   4.644  0.4672  2.2560 -1.4764
18190TIP3   OH275984   5.790   5.856   2.901  0.3403  0.1912 -0.3106
18190TIP3    H175985   5.814   5.944   2.870 -0.9608  0.4101 -0.7524
18190TIP3    H275986   5.845   5.797   2.849  0.5478  0.7030 -0.6917
18191TIP3   OH275987   1.192   2.740   2.043  0.0876  0.1573 -0.1129
18191TIP3    H175988   1.167   2.815   2.098 -1.0648  0.6591 -1.2615
18191TIP3    H275989   1.143   2.667   2.080  1.1758 -0.0568  0.9826
18192TIP3   OH275990   6.066   5.257  15.419 -0.2136 -0.1992  0.2898
18192TIP3    H175991   6.148   5.248  15.467  1.0530  0.1180 -1.7270
18192TIP3    H275992   6.061   5.351  15.397 -0.4829 -0.4190 -0.6422
18193TIP3   OH275993   1.336   2.085  16.045  0.2765  0.1723 -0.4292
18193TIP3    H175994   1.271   2.144  16.008  1.2138  0.5097 -1.5963
18193TIP3    H275995   1.361   2.028  15.973 -0.7393 -1.8114  0.7243
18194TIP3   OH275996   1.993   4.230   1.627 -0.8145 -0.1991 -0.1262
18194TIP3    H175997   1.976   4.296   1.694 -0.4949  0.4657 -0.6854
18194TIP3    H275998   2.049   4.166   1.670 -2.1947 -0.8211  0.8228
18195TIP3   OH275999   5.683   5.990  13.249 -0.1063  0.4839  0.1705
18195TIP3    H176000   5.660   5.898  13.233 -1.0408  0.0641  3.1548
18195TIP3    H276001   5.772   5.986  13.283  1.2232  1.1573 -2.9227
18196TIP3   OH276002   4.687   0.396  17.191 -0.4289 -0.7259 -0.2628
18196TIP3    H176003   4.724   0.458  17.128 -0.4374 -1.1406 -0.6820
18196TIP3    H276004   4.762   0.363  17.239 -0.5873  1.1458  1.4280
18197TIP3   OH276005   4.990   3.664  15.379  0.2635  0.4421  0.6738
18197TIP3    H176006   5.005   3.632  15.467  1.4889  0.2532  0.4042
18197TIP3    H276007   4.991   3.586  15.324  0.9138  0.6954  0.3163
18198TIP3   OH276008   4.686   4.816   2.123  0.3562 -0.2490  0.1380
18198TIP3    H176009   4.697   4.897   2.072  0.2917 -0.9916 -1.1068
18198TIP3    H276010   4.591   4.807   2.134  0.3881  0.1048  0.7227
18199TIP3   OH276011   2.831   2.821   4.414 -0.0463 -0.3480  0.4108
18199TIP3    H176012   2.875   2.747   4.372  3.2331  1.5845  0.0875
18199TIP3    H276013   2.889   2.847   4.485 -1.8551  1.0048  1.5031
18200TIP3   OH276014   4.708   3.682  14.786  0.4866 -0.4109  0.2234
18200TIP3    H176015   4.614   3.666  14.781  0.6084 -0.8561 -0.9069
18200TIP3    H276016   4.732   3.655  14.875 -0.8732  2.2153  1.4983
18201TIP3   OH276017   5.922   3.419   0.915  0.7641  0.2062 -0.8025
18201TIP3    H176018   5.890   3.505   0.887  2.0217  0.2832 -2.1235
18201TIP3    H276019   5.994   3.399   0.855  0.3447 -1.8930 -0.6868
18202TIP3   OH276020   1.517   3.872  14.838  0.3132  0.5358  0.8676
18202TIP3    H176021   1.477   3.937  14.780 -0.3670 -0.4805  0.1455
18202TIP3    H276022   1.463   3.794  14.826  0.0513  0.3317  3.0287
18203TIP3   OH276023   5.340   5.079  10.896  0.1436  0.1313  0.5580
18203TIP3    H176024   5.311   4.988  10.887 -0.2262  0.2944  0.0786
18203TIP3    H276025   5.286   5.115  10.966 -0.7516  0.3957 -0.2379
18204TIP3   OH276026   0.784   1.551  12.656 -0.5158  0.7990  0.3599
18204TIP3    H176027   0.781   1.512  12.569 -0.3160  1.8727 -0.1535
18204TIP3    H276028   0.717   1.505  12.705  1.0633 -1.6145  0.4378
18205TIP3   OH276029   5.700   0.576  11.706 -0.2326  0.1016  0.0723
18205TIP3    H176030   5.613   0.610  11.726 -0.7850 -1.9099  1.3931
18205TIP3    H276031   5.740   0.561  11.792  0.7462 -0.5986 -0.4891
18206TIP3   OH276032   1.693   1.991   0.612  0.6822 -0.2684 -0.1183
18206TIP3    H176033   1.764   2.054   0.614  0.4062  0.0782  2.5165
18206TIP3    H276034   1.729   1.912   0.654 -0.1009 -0.5088  0.1334
18207TIP3   OH276035   1.953   6.164  13.588  0.3268  0.1813 -0.3018
18207TIP3    H176036   2.014   6.118  13.646  0.5367 -0.2510 -0.8572
18207TIP3    H276037   1.959   6.255  13.615  0.1438 -0.0605  0.5998
18208TIP3   OH276038   4.153   5.880   1.384  0.4161  0.1363  0.3748
18208TIP3    H176039   4.117   5.795   1.410  0.7597 -0.4869 -1.1051
18208TIP3    H276040   4.207   5.907   1.459 -0.1266 -0.6841  1.0805
18209TIP3   OH276041   4.760   2.092   6.424 -0.4113 -0.1376 -0.3839
18209TIP3    H176042   4.775   2.152   6.496  2.4138 -0.5554 -0.5030
18209TIP3    H276043   4.697   2.137   6.367  0.0720  1.7931  0.5310
18210TIP3   OH276044   0.632   0.827   1.489  0.2262 -0.1021  0.2373
18210TIP3    H176045   0.550   0.824   1.537 -0.1149 -1.0229 -0.3749
18210TIP3    H276046   0.607   0.812   1.398  1.2062 -1.9228  0.2247
18211TIP3   OH276047   3.723   5.837   0.808  0.3803  0.2018  0.1431
18211TIP3    H176048   3.653   5.847   0.872 -0.7918 -0.0576 -1.0528
18211TIP3    H276049   3.803   5.835   0.860 -0.2511  3.0242  1.4131
18212TIP3   OH276050   6.436   1.302   0.316 -0.3405 -0.1713  0.3603
18212TIP3    H176051   6.366   1.346   0.268  0.2589 -1.1160 -1.4974
18212TIP3    H276052   6.473   1.240   0.252  0.4878 -1.5366  2.0716
18213TIP3   OH276053   4.158   2.068  16.610 -0.2951  0.1801  0.2676
18213TIP3    H176054   4.190   2.002  16.548 -0.7868 -0.9170  1.1485
18213TIP3    H276055   4.221   2.064  16.683  0.6041  1.8599 -0.3796
18214TIP3   OH276056   4.841   0.564  12.451 -0.2876 -0.0655 -0.0001
18214TIP3    H176057   4.922   0.615  12.459 -0.2552 -0.3018  1.5226
18214TIP3    H276058   4.786   0.616  12.393  1.4118 -0.5430 -2.1896
18215TIP3   OH276059   5.569   2.282   6.450 -0.1510  0.5193 -0.3072
18215TIP3    H176060   5.643   2.296   6.509  1.0780 -0.9066 -1.4362
18215TIP3    H276061   5.558   2.188   6.448 -1.0725  0.6371 -1.2787
18216TIP3   OH276062   1.355   4.617  14.847  0.1165 -0.1096  0.2951
18216TIP3    H176063   1.355   4.712  14.842  1.4612 -0.1382 -3.7959
18216TIP3    H276064   1.287   4.589  14.786 -1.4637 -1.8942  2.6782
18217TIP3   OH276065   2.572   2.593   2.131  0.3950 -0.2803  0.5015
18217TIP3    H176066   2.614   2.675   2.107  1.0715 -0.8118 -0.1941
18217TIP3    H276067   2.589   2.584   2.225 -2.0079  1.6679  1.2018
18218TIP3   OH276068   5.856   1.533  17.102  0.4401  0.3349 -0.1954
18218TIP3    H176069   5.858   1.496  17.014  0.0362 -2.2042  0.7800
18218TIP3    H276070   5.941   1.510  17.140  0.2824  0.6716  0.3766
18219TIP3   OH276071   0.120   2.246   0.057 -0.1550 -0.3807 -0.4661
18219TIP3    H176072   0.194   2.241  -0.003  0.0408  3.0215 -0.6922
18219TIP3    H276073   0.047   2.277   0.003 -0.7900 -0.2652  0.4350
18220TIP3   OH276074   3.308   3.512   1.797  0.0041  0.1728 -0.2735
18220TIP3    H176075   3.240   3.516   1.729  0.3186  0.0205 -0.5973
18220TIP3    H276076   3.260   3.490   1.877 -0.3795  0.4308 -0.4302
18221TIP3   OH276077   5.142   0.574  16.519  0.0100  0.0455  0.2236
18221TIP3    H176078   5.161   0.559  16.612 -0.2792 -1.3996  0.0678
18221TIP3    H276079   5.124   0.487  16.484  0.7251  0.4969 -1.3393
18222TIP3   OH276080   1.798   0.107   3.520 -0.3956  0.2482 -0.2728
18222TIP3    H176081   1.802   0.202   3.530  2.5378  0.1091  0.6471
18222TIP3    H276082   1.807   0.073   3.609 -0.5085 -0.8914 -0.6824
18223TIP3   OH276083   0.754   4.427  16.196  0.2247 -0.1151  0.1273
18223TIP3    H176084   0.834   4.439  16.247 -0.0171  0.9514  0.2881
18223TIP3    H276085   0.772   4.469  16.112 -0.3803  0.7419  0.4065
18224TIP3   OH276086   2.095   2.496  16.085 -0.2660  0.1469 -0.5564
18224TIP3    H176087   2.115   2.589  16.074  1.0018 -0.3407 -2.9789
18224TIP3    H276088   2.179   2.455  16.105 -0.5275 -0.6779 -1.1033
18225TIP3   OH276089   3.942   5.437  15.186  0.1296 -0.0078 -0.2543
18225TIP3    H176090   3.948   5.419  15.092  0.9002  0.4250 -0.2909
18225TIP3    H276091   3.934   5.350  15.227  1.1489 -0.2865 -0.6232
18226TIP3   OH276092   5.699   3.284   1.961 -0.3783  0.1740  0.1136
18226TIP3    H176093   5.748   3.350   2.009  2.5716 -3.5172  2.7225
18226TIP3    H276094   5.731   3.291   1.871  1.0051  1.2444  0.6580
18227TIP3   OH276095   4.909   1.596  12.767 -0.7014 -0.4111  0.3181
18227TIP3    H176096   4.978   1.620  12.828  1.4991 -1.4089 -1.6479
18227TIP3    H276097   4.918   1.501  12.756 -1.3226 -0.3208 -1.2197
18228TIP3   OH276098   3.762   0.177   5.490 -0.2303 -0.3730  0.2488
18228TIP3    H176099   3.782   0.261   5.447  0.2519 -1.0979 -1.0100
18228TIP3    H276100   3.675   0.189   5.527 -0.7687  0.2400 -1.1477
18229TIP3   OH276101   6.346   0.030   3.098  0.0845  0.2088  0.6829
18229TIP3    H176102   6.260  -0.000   3.125 -0.5914  0.9781 -0.5439
18229TIP3    H276103   6.397   0.032   3.179 -1.1968  0.2473  1.5109
18230TIP3   OH276104   0.353   4.046  12.252  0.2642  0.1577 -0.1557
18230TIP3    H176105   0.447   4.064  12.259  0.4740 -1.1316  0.6012
18230TIP3    H276106   0.326   4.020  12.340 -0.5319 -0.7233 -0.6367
18231TIP3   OH276107   2.074   6.170   3.737 -0.3394 -0.5344 -0.3392
18231TIP3    H176108   1.988   6.130   3.745 -0.1346 -0.6840  1.4159
18231TIP3    H276109   2.129   6.101   3.701 -0.4295 -1.2202  0.7985
18232TIP3   OH276110   4.420   0.598   4.528 -0.4892  0.3317 -0.2992
18232TIP3    H176111   4.364   0.549   4.588  0.3895 -0.8990 -0.4348
18232TIP3    H276112   4.501   0.612   4.578 -0.6205  1.3910 -0.3749
18233TIP3   OH276113   5.307   0.765  15.862 -0.3902  0.0323 -0.4686
18233TIP3    H176114   5.303   0.846  15.914  1.0942 -0.5068  0.5581
18233TIP3    H276115   5.226   0.720  15.884 -0.5329  0.5583  0.1492
18234TIP3   OH276116   4.727   5.627  13.907  0.2676 -0.0061  0.0856
18234TIP3    H176117   4.697   5.559  13.848  0.8608  1.7175 -2.3734
18234TIP3    H276118   4.792   5.676  13.856  1.0287  1.4385  2.2791
18235TIP3   OH276119   2.831   1.609   3.354  0.2281 -0.0008  0.3439
18235TIP3    H176120   2.852   1.519   3.329 -0.3253 -0.3476  1.0741
18235TIP3    H276121   2.749   1.602   3.402 -0.1753  0.9844 -0.1574
18236TIP3   OH276122   4.542   5.694   1.664  0.2095 -0.0531 -0.4036
18236TIP3    H176123   4.637   5.684   1.673  0.3367  1.5267  0.3600
18236TIP3    H276124   4.507   5.606   1.680  1.5477 -0.7309 -1.0322
18237TIP3   OH276125   3.017   3.600  15.481  0.3286 -0.4121  0.6642
18237TIP3    H176126   3.051   3.522  15.526  1.3253  0.1369  0.8686
18237TIP3    H276127   3.092   3.657  15.469 -0.3861  0.5287  0.4894
18238TIP3   OH276128   0.588   2.575  15.583 -0.3638  0.3662 -0.5400
18238TIP3    H176129   0.627   2.660  15.564 -1.5294  1.1321  0.3835
18238TIP3    H276130   0.653   2.511  15.552  0.7283  1.5795 -0.8122
18239TIP3   OH276131   1.345   6.412  11.982 -0.0431  0.8220  0.0076
18239TIP3    H176132   1.262   6.377  12.015 -0.5613  0.7813 -1.2722
18239TIP3    H276133   1.412   6.354  12.019 -0.4721  1.4934  1.9209
18240TIP3   OH276134   4.982   2.689   1.544  0.1085  0.0717 -0.6276
18240TIP3    H176135   5.042   2.763   1.547  0.9111 -0.4767 -2.0952
18240TIP3    H276136   4.983   2.661   1.452 -1.9840 -0.2988 -0.5814
18241TIP3   OH276137   1.973   1.457  12.458  0.5965  0.4639 -0.1794
18241TIP3    H176138   2.064   1.480  12.481  0.0147  2.0218  0.7172
18241TIP3    H276139   1.951   1.517  12.388  0.2184  0.1306 -0.3477
18242TIP3   OH276140   1.325   5.670   1.113  0.8911 -0.1470  0.0781
18242TIP3    H176141   1.235   5.638   1.115  1.0359 -0.5264  1.3758
18242TIP3    H276142   1.374   5.607   1.165  1.7055  0.6572  0.3132
18243TIP3   OH276143   2.332   2.382   2.335  0.2655  0.0004  0.9969
18243TIP3    H176144   2.301   2.293   2.317 -0.2324  0.5799 -1.2444
18243TIP3    H276145   2.407   2.369   2.394 -0.1173 -1.8495  1.1478
18244TIP3   OH276146   2.995   1.047   1.117  0.1701  0.2384 -0.6339
18244TIP3    H176147   2.966   1.020   1.204 -0.3158 -0.7038 -1.0689
18244TIP3    H276148   2.976   1.140   1.113  0.8226  0.4405  0.5059
18245TIP3   OH276149   4.463   6.178  13.957  0.0738  0.3464 -0.2819
18245TIP3    H176150   4.461   6.129  14.039  0.3140 -2.8989 -2.0398
18245TIP3    H276151   4.555   6.178  13.931  0.0228  1.4688 -0.5209
18246TIP3   OH276152   4.009   5.164  15.137  1.0531 -0.2723  0.5330
18246TIP3    H176153   3.983   5.131  15.223  2.1264  2.8127  2.1995
18246TIP3    H276154   4.095   5.125  15.121  2.2874  1.4740  2.4378
18247TIP3   OH276155   6.083   5.275   4.303 -0.2400  0.5258 -0.1446
18247TIP3    H176156   6.081   5.272   4.398 -0.7297  1.7374 -0.0927
18247TIP3    H276157   6.117   5.362   4.283 -0.3023  0.3448 -1.0738
18248TIP3   OH276158   4.784   4.465   5.683  0.3583 -0.8612 -0.4856
18248TIP3    H176159   4.726   4.461   5.607  1.3113 -1.8502 -1.1843
18248TIP3    H276160   4.735   4.518   5.746 -0.3923  0.1288 -1.8226
18249TIP3   OH276161   4.727   5.834   1.189  0.3121 -0.7150  0.1431
18249TIP3    H176162   4.639   5.828   1.224  0.3209  1.0301  0.5128
18249TIP3    H276163   4.732   5.920   1.148  0.9050 -1.9173 -2.5582
18250TIP3   OH276164   5.851   3.667  11.663 -0.2912 -0.4701 -0.2489
18250TIP3    H176165   5.941   3.648  11.634 -0.0672  0.3176 -0.1091
18250TIP3    H276166   5.857   3.671  11.759  0.1289  2.2174 -0.2990
18251TIP3   OH276167   0.432   6.068  17.067 -0.6793  0.1655 -0.1173
18251TIP3    H176168   0.413   5.976  17.052  0.6623  0.0508 -1.2677
18251TIP3    H276169   0.501   6.068  17.133  1.8580  0.0927 -2.5578
18252TIP3   OH276170   5.509   0.509   2.120 -0.5109 -0.8866  0.3471
18252TIP3    H176171   5.551   0.454   2.187 -0.8738 -2.1505 -0.4383
18252TIP3    H276172   5.526   0.463   2.038 -0.6544  0.3007 -0.3581
18253TIP3   OH276173   4.073   0.164   5.554 -0.3705 -0.0502 -0.1252
18253TIP3    H176174   4.085   0.123   5.640 -0.9104 -0.2581 -0.1499
18253TIP3    H276175   3.983   0.146   5.530 -0.5267  0.8763 -0.2859
18254TIP3   OH276176   6.617   5.151  11.509 -0.2071  0.1076 -0.2823
18254TIP3    H176177   6.655   5.141  11.421  2.9863  0.9119  0.8746
18254TIP3    H276178   6.670   5.094  11.564  0.4628  2.5224  1.7440
18255TIP3   OH276179   0.746   2.067   5.509 -0.5516  0.0986 -0.7042
18255TIP3    H176180   0.761   2.060   5.603 -1.0601 -0.3286 -0.6505
18255TIP3    H276181   0.810   2.132   5.479 -3.6430  4.1562  0.7063
18256TIP3   OH276182   1.837   4.318   5.316 -0.0910 -0.1944 -0.0133
18256TIP3    H176183   1.833   4.307   5.411  1.1242 -0.7644 -0.0135
18256TIP3    H276184   1.909   4.263   5.288  0.2428  0.7758 -1.1503
18257TIP3   OH276185   4.106   5.753   4.640  0.5820 -0.3708 -0.0360
18257TIP3    H176186   4.080   5.774   4.551 -2.3047 -2.1059  0.2884
18257TIP3    H276187   4.063   5.818   4.694  1.3258 -0.0634  0.2029
18258TIP3   OH276188   0.451   4.077   6.162 -0.4290 -0.2064 -0.1778
18258TIP3    H176189   0.366   4.082   6.206 -1.0019  1.0734 -1.3414
18258TIP3    H276190   0.440   4.005   6.100 -0.3509 -0.6194  0.2816
18259TIP3   OH276191   6.690   5.180  16.666  0.3176 -0.3538 -0.4101
18259TIP3    H176192   6.776   5.221  16.673 -0.3454  1.0020  0.0968
18259TIP3    H276193   6.708   5.086  16.669  1.6214 -0.0849  1.5061
18260TIP3   OH276194   0.103   3.173  15.630 -0.0603 -0.8830  0.2979
18260TIP3    H176195   0.163   3.181  15.556 -1.4768 -0.6126 -0.8942
18260TIP3    H276196   0.082   3.080  15.635 -0.5589 -0.8043 -0.1730
18261TIP3   OH276197   3.675   0.053  13.910 -0.6482  0.3130  0.2883
18261TIP3    H176198   3.685   0.097  13.825  0.7869  2.1209  1.3190
18261TIP3    H276199   3.581   0.035  13.916 -1.1092  2.0922 -0.7727
18262TIP3   OH276200   1.229   1.840  11.460 -0.3485  0.4361  0.4351
18262TIP3    H176201   1.153   1.781  11.457 -2.2704  2.7392  0.3587
18262TIP3    H276202   1.250   1.856  11.368  0.4232 -0.3611  0.4557
18263TIP3   OH276203   2.384   1.420   1.794 -0.5054 -0.2024  0.3763
18263TIP3    H176204   2.431   1.414   1.877 -0.3188 -0.5696  0.2516
18263TIP3    H276205   2.295   1.443   1.818  0.1066  2.3069  0.5148
18264TIP3   OH276206   4.271   1.185  14.932  0.0943 -0.0478  0.1555
18264TIP3    H176207   4.298   1.249  14.999  1.0970  0.3146 -0.5704
18264TIP3    H276208   4.354   1.155  14.893 -0.4231 -1.0470 -0.2032
18265TIP3   OH276209   0.297   3.775   4.387 -0.3444 -0.2778 -0.4029
18265TIP3    H176210   0.237   3.847   4.406 -0.1769 -0.1476 -0.3560
18265TIP3    H276211   0.244   3.710   4.342 -0.8903 -0.8373  0.9906
18266TIP3   OH276212   3.089   6.073   1.272 -0.3673  0.0528 -0.0021
18266TIP3    H176213   3.004   6.093   1.312  0.0175 -1.0195  1.4217
18266TIP3    H276214   3.151   6.132   1.316 -0.2626  0.4005 -0.5984
18267TIP3   OH276215   0.693   6.055   5.021 -0.4785  0.2079 -0.2214
18267TIP3    H176216   0.605   6.072   4.987 -0.3617  0.3801 -0.4379
18267TIP3    H276217   0.749   6.115   4.973  0.1845 -1.7776 -2.0928
18268TIP3   OH276218   4.365   4.829  13.480  0.0435 -0.2570  0.2920
18268TIP3    H176219   4.287   4.792  13.522  0.3145  1.0840  2.0903
18268TIP3    H276220   4.351   4.924  13.483  0.7608 -0.0615 -1.3848
18269TIP3   OH276221   3.305   3.256   3.519  0.2952 -0.3194 -0.1572
18269TIP3    H176222   3.291   3.186   3.455 -0.7260 -1.0567  0.8327
18269TIP3    H276223   3.348   3.213   3.592  0.4822  0.2888  0.0939
18270TIP3   OH276224   4.050   0.569   3.978 -0.1204  0.1222 -0.6467
18270TIP3    H176225   4.008   0.529   3.902 -0.6236 -1.4615  0.4179
18270TIP3    H276226   4.037   0.506   4.049  0.7441  1.3381  0.6500
18271TIP3   OH276227   2.319   0.666  14.128  0.6307  0.0781 -0.2785
18271TIP3    H176228   2.314   0.688  14.035  2.3401 -0.4601 -0.5403
18271TIP3    H276229   2.401   0.707  14.158 -0.6296  1.5451  1.3825
18272TIP3   OH276230   5.482   2.576   5.498 -0.0562 -0.1897 -0.2139
18272TIP3    H176231   5.545   2.566   5.426 -0.6830 -2.6397 -0.5093
18272TIP3    H276232   5.485   2.669   5.520  0.5161  0.5601 -3.0793
18273TIP3   OH276233   5.731   3.812  17.041 -0.1050 -0.4405 -0.0942
18273TIP3    H176234   5.743   3.723  17.009  0.4894 -0.8444  1.1882
18273TIP3    H276235   5.670   3.804  17.115 -2.0301  0.5598 -1.4900
18274TIP3   OH276236   3.508   0.125   4.056  0.5850  0.2398  0.1742
18274TIP3    H176237   3.489   0.061   4.125 -1.4563 -0.5843 -1.0455
18274TIP3    H276238   3.473   0.207   4.089 -2.1230 -0.5225 -0.5042
18275TIP3   OH276239   6.433   5.992  11.692 -0.4874  0.0706  0.5997
18275TIP3    H176240   6.478   6.066  11.732 -0.3805  0.7209 -0.6848
18275TIP3    H276241   6.412   6.021  11.603  0.1337 -1.6486 -0.1541
18276TIP3   OH276242   2.500   1.128   6.372  0.6809  0.3683 -0.1214
18276TIP3    H176243   2.452   1.170   6.301 -0.4016  1.9292  1.4208
18276TIP3    H276244   2.504   1.036   6.348 -1.4242  0.5134 -1.2434
18277TIP3   OH276245   1.039   2.745   3.820  0.2256 -0.0556 -0.0195
18277TIP3    H176246   1.021   2.814   3.883  1.9601 -0.1050  0.6023
18277TIP3    H276247   1.065   2.791   3.740  2.3835  0.1167  0.6940
18278TIP3   OH276248   2.536   2.757  16.571 -0.1036  0.3322 -0.4474
18278TIP3    H176249   2.622   2.784  16.603  0.3600  0.1455 -1.4807
18278TIP3    H276250   2.482   2.835  16.580  0.0433  0.3277  0.6167
18279TIP3   OH276251   5.248   1.718   1.195  0.4200 -0.4296  0.1348
18279TIP3    H176252   5.212   1.762   1.118  0.0553  0.2783  0.7036
18279TIP3    H276253   5.201   1.756   1.269  1.4554 -0.3837  0.7902
18280TIP3   OH276254   2.577   0.441   0.211  0.0668 -0.1394  0.6149
18280TIP3    H176255   2.589   0.425   0.305 -0.3376 -0.5514  0.5988
18280TIP3    H276256   2.483   0.433   0.197  0.4067 -6.4394 -0.9054
18281TIP3   OH276257   6.377   0.872  13.390 -0.5402 -0.2968  0.3575
18281TIP3    H176258   6.339   0.934  13.328  0.7281 -0.4349 -0.5997
18281TIP3    H276259   6.373   0.788  13.346  2.5265 -0.0422 -0.6321
18282TIP3   OH276260   1.367   3.947   4.127 -0.4980 -0.1173  0.0877
18282TIP3    H176261   1.359   3.933   4.221  0.8246 -1.4735  0.0231
18282TIP3    H276262   1.279   3.932   4.093 -0.5997 -1.4360  0.8914
18283TIP3   OH276263   1.762   0.250  13.603 -0.6717 -0.5386 -0.4993
18283TIP3    H176264   1.802   0.263  13.689 -2.1931 -1.5499  0.3845
18283TIP3    H276265   1.748   0.339  13.570 -0.4531 -0.1296  0.4833
18284TIP3   OH276266   0.594   0.686   3.221 -0.3486  0.2438  0.1572
18284TIP3    H176267   0.673   0.702   3.170 -0.6607 -0.0515 -0.4430
18284TIP3    H276268   0.552   0.772   3.228  0.3177  0.5109  0.9976
18285TIP3   OH276269   4.176   5.585  14.720  0.0494 -0.1275 -0.2595
18285TIP3    H176270   4.086   5.591  14.752 -0.1251  1.7655 -1.0148
18285TIP3    H276271   4.172   5.521  14.649 -0.6233 -0.3356 -0.0383
18286TIP3   OH276272   0.181   4.512  17.178  0.2373  0.4426 -0.5936
18286TIP3    H176273   0.180   4.602  17.212  0.4837  0.5081 -0.7611
18286TIP3    H276274   0.088   4.487  17.177  0.2724  0.1241  0.9615
18287TIP3   OH276275   3.677   0.410   2.007  0.1602 -0.5725 -0.4489
18287TIP3    H176276   3.656   0.398   1.914  2.4885  0.6617 -1.2137
18287TIP3    H276277   3.639   0.495   2.029  0.7223 -0.2719 -0.6389
18288TIP3   OH276278   5.820   0.067  13.636  0.3292 -0.4009  0.0258
18288TIP3    H176279   5.872   0.120  13.575 -0.3565 -0.2859 -0.4710
18288TIP3    H276280   5.802  -0.014  13.588  0.1618 -0.4956  0.2461
18289TIP3   OH276281   5.178   6.127  16.178  0.4060 -0.8860  0.0075
18289TIP3    H176282   5.115   6.055  16.181 -0.1109 -0.4997 -1.1937
18289TIP3    H276283   5.224   6.116  16.095 -0.6987  0.9801 -0.9086
18290TIP3   OH276284   5.227   5.601  12.962 -0.5943 -0.3927 -0.1728
18290TIP3    H176285   5.312   5.560  12.948 -0.3458  0.5010 -1.4054
18290TIP3    H276286   5.239   5.693  12.938 -1.6391 -0.0169  0.6501
18291TIP3   OH276287   2.683   4.768   4.787  0.0933 -0.0252  0.4148
18291TIP3    H176288   2.627   4.844   4.804  0.8868  0.9067 -0.9397
18291TIP3    H276289   2.772   4.801   4.798  0.5038 -0.3675 -1.5408
18292TIP3   OH276290   2.897   2.813  12.523 -0.4280 -0.2302  0.2843
18292TIP3    H176291   2.878   2.846  12.435 -0.5311  2.0501  1.0942
18292TIP3    H276292   2.991   2.793  12.521 -0.7098 -1.6211 -0.7254
18293TIP3   OH276293   0.368   5.129  14.095 -0.0781  0.4743  0.2760
18293TIP3    H176294   0.304   5.110  14.164  1.2519  1.5755  1.8941
18293TIP3    H276295   0.452   5.103  14.132  0.4781 -1.0862 -1.8645
18294TIP3   OH276296   6.682   1.192  14.123  0.2216 -0.2706  0.8909
18294TIP3    H176297   6.592   1.206  14.092  0.1441  0.9103  1.5625
18294TIP3    H276298   6.737   1.215  14.048  0.0748  3.6015  1.7523
18295TIP3   OH276299   6.288   5.267  13.617  0.6122 -0.2487  0.1536
18295TIP3    H176300   6.311   5.314  13.697  0.6928 -1.6281  0.9760
18295TIP3    H276301   6.359   5.204  13.605 -0.9216 -2.2231  0.8003
18296TIP3   OH276302   5.745   1.697   0.461  0.4175  0.5564 -0.1883
18296TIP3    H176303   5.828   1.744   0.468 -0.2231  1.4692  1.9426
18296TIP3    H276304   5.688   1.756   0.413  0.7116  0.3045 -0.8644
18297TIP3   OH276305   0.287   2.671  14.432  0.1393 -0.1335  0.4166
18297TIP3    H176306   0.367   2.721  14.411  0.9528 -0.8319  1.6995
18297TIP3    H276307   0.304   2.584  14.398 -0.1903 -0.2131  0.4570
18298TIP3   OH276308   3.829   1.750   3.552  0.2981 -0.2163 -0.2860
18298TIP3    H176309   3.874   1.678   3.507 -0.1852 -0.4435 -0.4170
18298TIP3    H276310   3.810   1.813   3.482 -0.1555 -0.4167 -0.3498
18299TIP3   OH276311   6.767   4.979   2.288 -0.1512 -0.0430 -0.1631
18299TIP3    H176312   6.780   4.955   2.380  1.4775 -0.6736 -0.5284
18299TIP3    H276313   6.722   4.903   2.250  0.5380 -0.4374 -0.2102
18300TIP3   OH276314   0.298   4.491   5.164 -0.1436 -0.6672  0.1585
18300TIP3    H176315   0.347   4.409   5.166  0.6324 -0.2489 -0.8758
18300TIP3    H276316   0.354   4.553   5.210 -0.0034 -0.3486 -0.4325
18301TIP3   OH276317   3.240   5.043  13.645 -0.3318  0.1431 -0.1489
18301TIP3    H176318   3.152   5.043  13.606 -1.3133  2.2234  1.8371
18301TIP3    H276319   3.234   4.977  13.715 -1.1963  1.9526  1.5859
18302TIP3   OH276320   2.308   1.383   5.239  0.4457 -0.1137 -0.1305
18302TIP3    H176321   2.399   1.382   5.210  1.1759  2.5365  1.7022
18302TIP3    H276322   2.308   1.435   5.319 -2.5518 -0.8662  0.5065
18303TIP3   OH276323   2.736   4.331   0.339  0.1514  0.5644  0.3928
18303TIP3    H176324   2.736   4.392   0.265 -1.9483  0.8131  0.5125
18303TIP3    H276325   2.714   4.246   0.301  0.1337  0.4762  0.5951
18304TIP3   OH276326   4.687   1.769   4.077 -0.0653  0.7819 -0.9018
18304TIP3    H176327   4.641   1.686   4.091  0.9056  0.1336 -1.4107
18304TIP3    H276328   4.633   1.834   4.121 -1.5855  0.1017 -1.6962
18305TIP3   OH276329   3.269   4.791   1.972 -0.2953 -0.1815 -0.3872
18305TIP3    H176330   3.246   4.762   1.884 -1.0173  0.0464 -0.2782
18305TIP3    H276331   3.357   4.828   1.962 -0.0931 -0.7671 -0.8710
18306TIP3   OH276332   5.290   2.959   2.413 -0.3887  0.1094 -0.4518
18306TIP3    H176333   5.290   3.008   2.496  1.6409 -0.7286  0.1143
18306TIP3    H276334   5.290   3.026   2.346 -0.9279  0.8300  0.2468
18307TIP3   OH276335   5.410   1.565  12.262 -0.3820 -0.2825 -0.0801
18307TIP3    H176336   5.401   1.648  12.216 -0.7397 -0.5409 -0.4946
18307TIP3    H276337   5.504   1.553  12.274 -0.3391  0.2469  0.1083
18308TIP3   OH276338   4.149   3.214  12.265 -0.2335  0.1625 -0.0872
18308TIP3    H176339   4.061   3.192  12.296  0.0591  0.3244  0.9093
18308TIP3    H276340   4.174   3.140  12.209 -0.7246 -0.2282  0.2019
18309TIP3   OH276341   4.217   2.822   2.012  0.5027  0.8482 -0.3468
18309TIP3    H176342   4.148   2.886   1.997  0.8113  1.0620 -0.8768
18309TIP3    H276343   4.277   2.833   1.938  0.3509 -0.3311 -0.6655
18310TIP3   OH276344   4.432   1.869  14.356  0.4044  0.4306 -0.4426
18310TIP3    H176345   4.361   1.820  14.399  0.6039  1.0390  0.6178
18310TIP3    H276346   4.502   1.872  14.421  0.5324  1.8165 -0.6074
18311TIP3   OH276347   3.186   1.868  11.069 -0.7520 -0.0165 -0.7069
18311TIP3    H176348   3.253   1.829  11.013  0.7245  2.4974 -0.8384
18311TIP3    H276349   3.112   1.885  11.010 -0.8892 -1.2500 -0.9212
18312TIP3   OH276350   0.058   3.355  13.313 -0.3164 -0.5936  0.4580
18312TIP3    H176351   0.092   3.278  13.268  0.9060 -0.1269  0.5597
18312TIP3    H276352  -0.030   3.366  13.276 -0.3506 -1.7682  0.1296
18313TIP3   OH276353   6.422   1.637   5.559  0.6084  0.1076 -0.4045
18313TIP3    H176354   6.441   1.724   5.592  1.3828  0.0320 -0.6280
18313TIP3    H276355   6.506   1.590   5.566  0.0830 -0.7763  0.2073
18314TIP3   OH276356   6.243   3.111   4.685 -0.0490  0.2620 -0.1671
18314TIP3    H176357   6.190   3.031   4.686 -0.1409  0.2741  2.4443
18314TIP3    H276358   6.294   3.107   4.766 -0.0514  2.8399  0.0423
18315TIP3   OH276359   1.124   0.381   0.679  0.0658  0.4980  0.0344
18315TIP3    H176360   1.094   0.390   0.589 -0.0831  0.7177  0.1065
18315TIP3    H276361   1.068   0.313   0.716 -1.7433  2.3009  0.7730
18316TIP3   OH276362   2.410   4.004   1.502  0.0667  0.3294  0.0196
18316TIP3    H176363   2.374   3.920   1.473  1.5813 -0.1044 -0.7176
18316TIP3    H276364   2.499   4.006   1.466 -0.0640  2.4391 -0.3255
18317TIP3   OH276365   4.183   3.641   0.123 -0.3246  0.3237 -0.0569
18317TIP3    H176366   4.193   3.582   0.048  0.7793  2.2731 -1.5311
18317TIP3    H276367   4.243   3.605   0.190 -1.9911 -1.9529  0.3382
18318TIP3   OH276368   6.515   1.807  16.960 -0.7321  0.0071  0.0690
18318TIP3    H176369   6.450   1.852  16.906 -0.5745 -0.1291 -0.2374
18318TIP3    H276370   6.589   1.866  16.965 -0.7714  0.0475  0.1937
18319TIP3   OH276371   3.198   0.685   1.475  0.2699  0.2672  0.5219
18319TIP3    H176372   3.104   0.700   1.483  0.6387  1.5350  3.4585
18319TIP3    H276373   3.224   0.736   1.398 -1.4038 -0.1269 -0.3535
18320TIP3   OH276374   6.297   4.235   2.242 -0.9315  0.3988  0.2737
18320TIP3    H176375   6.349   4.245   2.321 -1.4362 -0.4959  0.7366
18320TIP3    H276376   6.242   4.314   2.239 -0.7939  0.5144  0.7273
18321TIP3   OH276377   5.570   6.721  11.859 -0.2867 -0.2060 -0.3146
18321TIP3    H176378   5.633   6.691  11.924 -0.3850  0.0257 -0.1108
18321TIP3    H276379   5.622   6.773  11.798 -0.0412 -1.1145 -0.8993
18322TIP3   OH276380   0.178   2.721  15.624 -0.0569 -0.2573  0.3354
18322TIP3    H176381   0.217   2.648  15.576  1.1940 -0.1552  1.1289
18322TIP3    H276382   0.149   2.683  15.707  0.2077  0.0550  0.5741
18323TIP3   OH276383   4.239   1.766   0.272 -0.0594  0.2635  0.0956
18323TIP3    H176384   4.177   1.697   0.248  0.6061 -0.3170  0.0209
18323TIP3    H276385   4.270   1.801   0.188  1.0775 -0.6943  0.0911
18324TIP3   OH276386   0.282   5.978  12.264  0.5618 -0.1339  0.5168
18324TIP3    H176387   0.302   5.977  12.358  2.2380  1.9304  0.2371
18324TIP3    H276388   0.364   5.952  12.222  0.1223 -0.0389 -0.4218
18325TIP3   OH276389   4.401   0.312  17.184  0.0712 -0.8945  0.2755
18325TIP3    H176390   4.417   0.372  17.111 -2.2420  0.4150  0.7433
18325TIP3    H276391   4.464   0.338  17.251 -0.3769  0.5322  0.1708
18326TIP3   OH276392   6.639   1.017   1.395  0.1681 -0.7748  0.7670
18326TIP3    H176393   6.607   1.068   1.320  0.6231 -0.8884  0.4873
18326TIP3    H276394   6.698   1.076   1.441  0.2165 -0.8416  0.7913
18327TIP3   OH276395   4.977   0.677  14.493 -0.3087  0.3038  0.5068
18327TIP3    H176396   4.907   0.691  14.430 -0.4661 -0.2221  0.5590
18327TIP3    H276397   5.023   0.761  14.498 -0.8069  0.5873  0.3167
18328TIP3   OH276398   2.225   3.409  12.436  0.1414 -0.5891  0.2284
18328TIP3    H176399   2.140   3.436  12.401  0.4878  0.1681 -0.0221
18328TIP3    H276400   2.210   3.318  12.464 -0.7782 -0.4396  0.2800
18329TIP3   OH276401   0.701   1.535   2.114  0.1866 -0.1665 -0.4838
18329TIP3    H176402   0.656   1.488   2.044  0.8035 -2.2125  0.4068
18329TIP3    H276403   0.634   1.591   2.153 -0.4409  0.1675 -1.9502
18330TIP3   OH276404   5.520   1.396   0.595  0.5835  0.4998  0.2163
18330TIP3    H176405   5.454   1.331   0.619 -1.6612  2.0520 -1.3518
18330TIP3    H276406   5.511   1.464   0.662  0.7414  0.6220  0.1132
18331TIP3   OH276407   3.415   6.454   0.948  0.2295 -0.0484 -0.7088
18331TIP3    H176408   3.437   6.547   0.944 -1.1330  0.2620 -1.3113
18331TIP3    H276409   3.489   6.410   0.907  1.8379  0.5737  1.3369
18332TIP3   OH276410   1.534   4.364  13.089 -0.0125  0.5410 -0.3849
18332TIP3    H176411   1.549   4.444  13.037 -0.2173  1.2082  0.5518
18332TIP3    H276412   1.531   4.395  13.179 -0.5097 -0.4804 -0.0386
18333TIP3   OH276413   5.809   0.466  12.798 -0.1096 -0.1803 -0.5885
18333TIP3    H176414   5.792   0.448  12.891 -1.5181 -2.3509 -1.2010
18333TIP3    H276415   5.882   0.528  12.799  0.7767 -1.1280  1.9397
18334TIP3   OH276416   6.105   5.593  16.028 -0.2146  0.2194 -0.2558
18334TIP3    H176417   6.072   5.503  16.033  0.4618 -0.0809 -1.0229
18334TIP3    H276418   6.152   5.597  15.945  0.5412  1.0152  0.1977
18335TIP3   OH276419   5.945   3.761   2.736  0.3451  0.3920 -0.1689
18335TIP3    H176420   5.975   3.806   2.815  0.5493  2.7983 -1.5180
18335TIP3    H276421   5.850   3.755   2.746  0.4707 -0.2912  0.7121
18336TIP3   OH276422   1.258   0.347   1.257  0.0035  1.1343 -0.0002
18336TIP3    H176423   1.222   0.259   1.253  0.4865  0.9845 -1.4628
18336TIP3    H276424   1.228   0.390   1.177  2.1593  1.3287 -0.7582
18337TIP3   OH276425   4.446   6.238  10.726 -0.1341  0.3776  0.2197
18337TIP3    H176426   4.392   6.163  10.751  0.0766  0.8157  2.1065
18337TIP3    H276427   4.507   6.249  10.798 -0.9848  3.1352  0.6159
18338TIP3   OH276428   4.595   5.243   0.251 -0.2010  0.2597 -0.5447
18338TIP3    H176429   4.569   5.239   0.159  0.4613 -0.5232 -0.7062
18338TIP3    H276430   4.547   5.172   0.293  0.3672 -0.1103 -0.5140
18339TIP3   OH276431   5.299   2.816   0.437 -0.0263  0.6297 -0.0171
18339TIP3    H176432   5.311   2.908   0.416 -0.4564  0.4943 -0.8932
18339TIP3    H276433   5.215   2.793   0.397  0.8538 -0.5710 -1.2934
18340TIP3   OH276434   6.526   5.577  15.768 -0.1844  0.0200 -0.4083
18340TIP3    H176435   6.499   5.616  15.685 -2.1638 -1.3123 -0.4586
18340TIP3    H276436   6.609   5.534  15.748  0.3688  1.3525 -1.1611
18341TIP3   OH276437   1.499   3.530  11.423 -0.1234 -0.3359  0.0703
18341TIP3    H176438   1.447   3.466  11.473  0.5271 -1.1259 -0.2317
18341TIP3    H276439   1.589   3.498  11.429  0.0028 -0.3828 -1.4706
18342TIP3   OH276440   0.742   0.468   6.800 -0.6214 -0.0152  0.3987
18342TIP3    H176441   0.709   0.550   6.838 -0.2361 -0.0149  0.7392
18342TIP3    H276442   0.787   0.424   6.872 -0.6104 -0.4123  0.1549
18343TIP3   OH276443   1.175   3.098   0.783  0.1122 -0.4607  0.1778
18343TIP3    H176444   1.083   3.115   0.761  0.3982 -0.4615 -1.0802
18343TIP3    H276445   1.173   3.012   0.826 -0.6710  0.2956  1.7437
18344TIP3   OH276446   6.582   3.275   6.683  0.0915 -0.2585  0.0006
18344TIP3    H176447   6.488   3.294   6.683  0.4860  2.2094  2.0560
18344TIP3    H276448   6.623   3.360   6.668  2.0102 -1.0814  0.3552
18345TIP3   OH276449   5.187   3.668  14.334  0.4032 -0.6341  0.5891
18345TIP3    H176450   5.105   3.630  14.366  0.4239 -0.9422  0.2788
18345TIP3    H276451   5.238   3.683  14.414 -0.1860  0.1314  0.8430
18346TIP3   OH276452   4.092   3.146   4.189  0.4465 -0.0099 -0.0441
18346TIP3    H176453   4.129   3.226   4.226  1.3934 -0.9623  1.1999
18346TIP3    H276454   4.130   3.140   4.102  3.5013 -0.9966  1.2123
18347TIP3   OH276455   2.170   3.011   0.521 -0.0613 -0.1024 -0.3493
18347TIP3    H176456   2.075   3.000   0.528 -0.0007 -0.1855  0.3953
18347TIP3    H276457   2.194   3.059   0.600  0.3735  0.8986 -1.0709
18348TIP3   OH276458   1.914   1.155   0.682 -0.2078  0.1766  0.2730
18348TIP3    H176459   1.995   1.198   0.711 -1.2384  2.1169  0.4250
18348TIP3    H276460   1.888   1.101   0.757 -0.0755  1.0800  0.9930
18349TIP3   OH276461   2.706   0.218  11.558 -0.3346  0.2513  0.3177
18349TIP3    H176462   2.734   0.299  11.600  0.0515  0.7964 -0.9447
18349TIP3    H276463   2.786   0.167  11.548 -0.4790 -0.0229  0.5423
18350TIP3   OH276464   6.692   5.414   6.417  0.0561 -0.0620  0.5342
18350TIP3    H176465   6.717   5.331   6.459 -0.1557 -0.2774  0.2377
18350TIP3    H276466   6.607   5.435   6.455 -0.1323 -0.2534  0.2187
18351TIP3   OH276467   3.272   5.632  14.740  0.0418  0.2879 -0.0021
18351TIP3    H176468   3.270   5.551  14.689 -0.2055  0.5073 -0.3457
18351TIP3    H276469   3.290   5.701  14.676 -2.4406  0.8480 -0.2081
18352TIP3   OH276470   0.419   0.847  13.242 -0.1996 -0.0932  0.5412
18352TIP3    H176471   0.431   0.927  13.292  0.5234  2.0875 -2.8276
18352TIP3    H276472   0.504   0.830  13.201 -0.5857 -2.1138  0.4554
18353TIP3   OH276473   1.182   2.555   4.402  0.3659 -0.0553  0.1744
18353TIP3    H176474   1.121   2.489   4.370  0.9383 -0.8452  0.6920
18353TIP3    H276475   1.134   2.602   4.470  1.1583 -2.5126  2.6394
18354TIP3   OH276476   5.414   3.973   4.447 -0.0861  0.4651  0.2370
18354TIP3    H176477   5.393   4.059   4.483 -1.1397  0.7591 -1.0228
18354TIP3    H276478   5.510   3.970   4.446 -0.0400  1.5947  0.3622
18355TIP3   OH276479   3.339   5.900   3.658  0.0241  0.1747  0.1550
18355TIP3    H176480   3.308   5.943   3.738  0.4876  0.8300 -0.0094
18355TIP3    H276481   3.325   5.807   3.674 -0.6392  0.3544  0.6749
18356TIP3   OH276482   2.839   5.060   3.460 -0.0858 -0.3558 -0.5630
18356TIP3    H176483   2.798   5.020   3.537  0.2299  0.1220 -0.1327
18356TIP3    H276484   2.776   5.127   3.431  0.8621  1.2479  0.8514
18357TIP3   OH276485   0.373   4.962   4.675  0.4779 -0.0027  0.4186
18357TIP3    H176486   0.444   5.020   4.648  0.7405 -0.3038  0.4603
18357TIP3    H276487   0.409   4.874   4.667 -0.8105 -0.3838 -2.4643
18358TIP3   OH276488   0.339   4.675   1.378 -0.6036  0.2845  0.3166
18358TIP3    H176489   0.348   4.732   1.454  1.2805 -0.2080  0.4957
18358TIP3    H276490   0.246   4.681   1.355 -0.7952  2.0223  1.3934
18359TIP3   OH276491   5.925   2.413  15.178  0.1487 -0.0034  0.3224
18359TIP3    H176492   5.983   2.337  15.186 -0.6177 -0.4595  1.8850
18359TIP3    H276493   5.950   2.470  15.251 -1.3943 -0.2693  1.1124
18360TIP3   OH276494   1.603   4.743  16.517 -0.0503 -0.0106 -0.0136
18360TIP3    H176495   1.698   4.737  16.525 -0.0496  0.4634  0.3486
18360TIP3    H276496   1.573   4.652  16.519  0.3700 -0.1487  0.1492
18361TIP3   OH276497   1.372   3.222   1.418  0.5051 -0.0811 -0.2278
18361TIP3    H176498   1.375   3.297   1.359  1.1450 -1.5271 -2.1419
18361TIP3    H276499   1.323   3.253   1.494 -2.1744  1.3169 -2.3464
18362TIP3   OH276500   4.397   3.159  14.065 -0.0311 -0.2055 -0.3333
18362TIP3    H176501   4.305   3.181  14.052 -0.1794 -1.6757 -2.2345
18362TIP3    H276502   4.444   3.242  14.055 -1.1001  0.4936  0.3231
18363TIP3   OH276503   2.851   2.911  16.857  0.5471 -0.1484  0.0473
18363TIP3    H176504   2.838   2.883  16.767  1.7348  1.1160 -0.5681
18363TIP3    H276505   2.882   2.833  16.903  1.1214 -0.5173 -0.9429
18364TIP3   OH276506   4.554   1.999  12.781  0.1787  0.2231  0.0216
18364TIP3    H176507   4.514   1.925  12.826 -2.6619  0.8060 -1.3720
18364TIP3    H276508   4.531   2.075  12.834  0.7008  0.4281 -0.0362
18365TIP3   OH276509   1.569   1.636   0.824 -0.7400  0.5086 -0.3713
18365TIP3    H176510   1.485   1.681   0.828 -0.9253  0.0651  2.8625
18365TIP3    H276511   1.565   1.585   0.743 -2.2261  2.9225 -1.9480
18366TIP3   OH276512   1.945   5.301   4.793 -0.1225  0.1275  0.2470
18366TIP3    H176513   1.864   5.254   4.813  0.6933 -0.7132  1.7550
18366TIP3    H276514   1.921   5.362   4.724 -2.0095 -0.2124  0.5551
18367TIP3   OH276515   6.648   2.659   3.030  0.0175  0.0957 -0.8352
18367TIP3    H176516   6.644   2.563   3.028  0.2343 -0.0308  1.6994
18367TIP3    H276517   6.604   2.683   3.112 -0.6433  2.2339 -1.7416
18368TIP3   OH276518   3.453   0.099   2.870  0.0412  0.0120 -0.1080
18368TIP3    H176519   3.509   0.152   2.927 -0.9439  1.0580 -0.0995
18368TIP3    H276520   3.479   0.124   2.782 -1.4688  1.7302 -0.1324
18369TIP3   OH276521   0.691   3.590  15.072 -0.1979  0.0609  0.0146
18369TIP3    H176522   0.780   3.606  15.041 -0.5833 -0.8758 -1.6547
18369TIP3    H276523   0.661   3.676  15.102  0.9947  0.5391 -0.0984
18370TIP3   OH276524   1.746   2.212  15.583  0.4575 -0.5973  0.6777
18370TIP3    H176525   1.708   2.125  15.593 -0.0298 -0.5763 -0.8104
18370TIP3    H276526   1.689   2.269  15.634 -0.7905 -0.7714 -0.4663
18371TIP3   OH276527   0.656   5.854  10.864 -0.5332  0.1838 -0.1453
18371TIP3    H176528   0.681   5.852  10.772  0.5475 -0.4983  0.1482
18371TIP3    H276529   0.578   5.910  10.866  0.5616  1.8058 -1.1717
18372TIP3   OH276530   1.738   6.579   5.273 -1.1011 -0.4750 -0.3407
18372TIP3    H176531   1.649   6.561   5.241 -1.3516  1.0835 -0.5835
18372TIP3    H276532   1.785   6.611   5.196 -0.6114 -0.3418  0.0131
18373TIP3   OH276533   2.225   2.751  16.557  0.2331 -0.5414  0.1251
18373TIP3    H176534   2.138   2.767  16.519  0.3828  1.1719  0.4460
18373TIP3    H276535   2.266   2.837  16.560  1.5601 -1.1791  0.9472
18374TIP3   OH276536   4.478   2.545   0.145 -0.2593 -0.4424  0.3881
18374TIP3    H176537   4.481   2.621   0.088  0.7905  1.1905  2.4674
18374TIP3    H276538   4.387   2.542   0.175 -0.8407 -1.3623 -1.3183
18375TIP3   OH276539   4.534   0.545   3.561 -0.6792 -0.2790  0.4893
18375TIP3    H176540   4.602   0.587   3.509 -1.0379 -1.0237 -0.6248
18375TIP3    H276541   4.524   0.458   3.521 -2.3925 -0.1243  0.5100
18376TIP3   OH276542   4.421   3.618  13.534  0.1947 -0.2873  0.0525
18376TIP3    H176543   4.327   3.605  13.547 -0.2760  1.5139 -1.1446
18376TIP3    H276544   4.452   3.660  13.615  0.1741 -1.6758  0.7998
18377TIP3   OH276545   2.359   0.102  11.130  0.1685 -0.0705 -0.1372
18377TIP3    H176546   2.288   0.104  11.194 -0.4100  0.2340 -0.7690
18377TIP3    H276547   2.336   0.170  11.067  0.8399 -0.2102 -0.5428
18378TIP3   OH276548   4.268   5.468  15.045  0.4256  0.1653  0.5634
18378TIP3    H176549   4.265   5.393  15.105 -0.2832  0.7198  1.2386
18378TIP3    H276550   4.202   5.449  14.978 -0.5043  0.6544  1.3186
18379TIP3   OH276551   5.690   2.224  14.023 -0.3520  0.1632  0.3241
18379TIP3    H176552   5.772   2.273  14.022 -0.5443  0.5418  1.6220
18379TIP3    H276553   5.648   2.247  13.941  0.1047  1.2430  0.3756
18380TIP3   OH276554   4.512   0.972   1.272  0.6466  0.2706  0.1304
18380TIP3    H176555   4.540   1.040   1.210 -0.7060  0.4757 -0.2894
18380TIP3    H276556   4.588   0.916   1.282  0.8641  0.1452 -1.8415
18381TIP3   OH276557   0.259   2.888  14.816 -0.3539  0.3582 -0.2301
18381TIP3    H176558   0.239   2.844  14.898  0.2507 -0.9716 -0.7685
18381TIP3    H276559   0.189   2.861  14.756  0.5572 -0.7108 -0.8445
18382TIP3   OH276560   4.734   3.544   5.474 -0.2482  0.0246  0.3045
18382TIP3    H176561   4.817   3.536   5.523 -0.2876  1.1562  0.5835
18382TIP3    H276562   4.761   3.567   5.385 -0.2497  0.5936  0.4424
18383TIP3   OH276563   3.675   2.596   0.624 -0.1665 -0.4798 -0.1157
18383TIP3    H176564   3.749   2.650   0.596 -0.3211 -0.3737 -0.3207
18383TIP3    H276565   3.615   2.597   0.550 -0.0359 -1.1764 -0.2420
18384TIP3   OH276566   4.418   1.220  13.218 -0.4366 -0.5071  0.1760
18384TIP3    H176567   4.454   1.140  13.180 -0.8424 -0.6078 -0.0056
18384TIP3    H276568   4.485   1.286  13.203 -0.3468 -0.6814 -0.1992
18385TIP3   OH276569   5.468   4.814  11.170  0.4686 -0.1933 -0.5871
18385TIP3    H176570   5.445   4.731  11.128 -1.1644 -0.6007  0.9431
18385TIP3    H276571   5.563   4.810  11.181  0.7703 -0.6981 -2.7888
18386TIP3   OH276572   4.175   1.224   3.244  0.2813 -0.1977  0.7530
18386TIP3    H176573   4.161   1.315   3.269 -0.6039  0.3875 -1.5847
18386TIP3    H276574   4.261   1.202   3.279  1.5272  2.2911 -0.4850
18387TIP3   OH276575   0.429   4.095  14.028  0.4690  0.7880 -0.1561
18387TIP3    H176576   0.414   4.189  14.043  1.8924  0.8666  1.1290
18387TIP3    H276577   0.448   4.060  14.116  1.2533 -0.4321 -0.7796
18388TIP3   OH276578   2.828   0.642  17.090 -0.2084  0.5319  0.8160
18388TIP3    H176579   2.837   0.606  17.178  0.0952  1.2960  1.0979
18388TIP3    H276580   2.783   0.725  17.102  0.6404  1.0678  0.3436
18389TIP3   OH276581   1.989   1.570  11.240  0.0155  0.3883 -0.2905
18389TIP3    H176582   2.018   1.640  11.297  0.1956 -0.7055  1.0081
18389TIP3    H276583   1.910   1.535  11.282  0.0941 -0.3731 -0.7533
18390TIP3   OH276584   0.125   1.319   4.623 -0.2281  1.0201  0.1310
18390TIP3    H176585   0.160   1.230   4.614  1.4229  1.6589 -0.0136
18390TIP3    H276586   0.174   1.358   4.695 -0.9807  1.8064  0.2403
18391TIP3   OH276587   4.277   0.404  10.721 -0.3185  0.6008  0.5136
18391TIP3    H176588   4.347   0.396  10.785  1.1770 -0.5952 -1.1771
18391TIP3    H276589   4.276   0.319  10.676 -2.6065  0.7196  0.2103
18392TIP3   OH276590   2.594   6.307  10.751 -0.3845 -0.2754 -0.2939
18392TIP3    H176591   2.628   6.395  10.735  0.5151 -0.3774  0.9166
18392TIP3    H276592   2.526   6.296  10.684 -0.8310  1.4971 -0.2018
18393TIP3   OH276593   0.927   3.339  13.193 -0.9426 -0.0103 -0.0021
18393TIP3    H176594   1.017   3.314  13.215  0.0844  2.3596 -1.2029
18393TIP3    H276595   0.890   3.370  13.276  0.7642  2.8169 -0.1777
18394TIP3   OH276596   1.541   0.849  12.561 -0.5019 -0.1454  0.1986
18394TIP3    H176597   1.603   0.781  12.589 -0.0787  0.1691  0.0348
18394TIP3    H276598   1.582   0.931  12.587  0.4995  0.2563 -2.3297
18395TIP3   OH276599   0.561   1.522   0.722  0.3497 -0.4368  0.1689
18395TIP3    H176600   0.630   1.459   0.740  0.1021 -0.9204 -0.5406
18395TIP3    H276601   0.607   1.604   0.703  0.8678 -1.2224 -2.3263
18396TIP3   OH276602   5.000   1.208   3.020 -0.0892 -0.0516  0.3983
18396TIP3    H176603   4.957   1.140   2.968 -2.3689  1.1299  0.5941
18396TIP3    H276604   5.024   1.275   2.955 -0.0952  0.0518  0.5030
18397TIP3   OH276605   1.455   1.417   1.817  0.3609 -0.2693 -0.2218
18397TIP3    H176606   1.530   1.358   1.825  0.4129 -0.2192 -0.3408
18397TIP3    H276607   1.432   1.414   1.724 -0.3821 -1.0179 -0.0150
18398TIP3   OH276608   4.689   1.235   0.566 -0.4096  0.0392 -0.3324
18398TIP3    H176609   4.622   1.175   0.533 -0.8457 -0.8850  1.9768
18398TIP3    H276610   4.731   1.186   0.637  2.1862  0.9133 -1.1647
18399TIP3   OH276611   4.774   6.093   3.038 -0.4270  0.3576 -0.2653
18399TIP3    H176612   4.705   6.130   2.982 -0.4489 -0.3312 -0.7036
18399TIP3    H276613   4.728   6.065   3.117 -0.7459 -0.5375 -0.7494
18400TIP3   OH276614   3.948   4.443  15.127 -0.9623 -0.5943 -0.2753
18400TIP3    H176615   4.022   4.467  15.072 -1.4020 -2.4311 -1.7565
18400TIP3    H276616   3.893   4.522  15.128 -0.1033  0.0345 -1.0454
18401TIP3   OH276617   0.291   5.403   5.195 -0.3115 -0.1603  0.0968
18401TIP3    H176618   0.365   5.346   5.213  0.4468  1.1297  1.2607
18401TIP3    H276619   0.236   5.398   5.273 -1.3091 -0.8429 -0.6191
18402TIP3   OH276620   2.650   1.797   2.104 -0.6298  0.2460  0.7833
18402TIP3    H176621   2.661   1.734   2.033 -0.4707  1.7432 -0.5811
18402TIP3    H276622   2.739   1.814   2.135 -0.6520  0.0057  0.9863
18403TIP3   OH276623   3.629   0.487  14.049 -0.0516 -0.0126 -0.4628
18403TIP3    H176624   3.661   0.417  14.105 -0.7244  0.7829  0.9584
18403TIP3    H276625   3.588   0.441  13.975  0.1865 -1.0927  0.0534
18404TIP3   OH276626   1.117   6.149  12.832  0.0585  0.6593 -0.0881
18404TIP3    H176627   1.130   6.122  12.741  0.9238  2.0592 -0.4146
18404TIP3    H276628   1.126   6.068  12.882  1.8719  0.1908 -1.0621
18405TIP3   OH276629   4.513   0.796   3.627 -0.1390 -0.2219 -0.4796
18405TIP3    H176630   4.579   0.778   3.694  3.0643  0.2014 -3.2425
18405TIP3    H276631   4.467   0.713   3.615  3.1326 -2.0679 -1.5783
18406TIP3   OH276632   1.585   3.257  14.072  0.3127  0.3463 -0.1370
18406TIP3    H176633   1.636   3.211  14.006  2.3400  2.0270  0.1715
18406TIP3    H276634   1.644   3.264  14.148 -1.1399  0.4756  1.0325
18407TIP3   OH276635   3.444   1.056   6.233  0.9866  0.2285 -0.1251
18407TIP3    H176636   3.477   1.086   6.149 -0.4233  1.2392 -0.3415
18407TIP3    H276637   3.413   1.135   6.277  0.0175 -0.5032  0.5650
18408TIP3   OH276638   4.963   5.922   2.456 -0.8386 -0.1876 -0.2971
18408TIP3    H176639   5.021   5.965   2.394 -0.3284 -1.2263 -0.5619
18408TIP3    H276640   4.875   5.933   2.419 -0.5345 -0.8037 -1.2089
18409TIP3   OH276641   3.051   5.538  12.585  0.1051  0.5279 -0.3122
18409TIP3    H176642   2.981   5.560  12.647 -1.3419 -0.5912 -1.4810
18409TIP3    H276643   3.057   5.615  12.528 -0.7414  0.3437 -0.6714
18410TIP3   OH276644   0.676   6.689  11.902  0.5981  0.6126 -0.0654
18410TIP3    H176645   0.685   6.594  11.902  0.7321  0.5329  2.6626
18410TIP3    H276646   0.582   6.705  11.893  0.5137  0.1979  0.0722
18411TIP3   OH276647   1.284   4.538  12.578  0.6314 -0.1667  0.3806
18411TIP3    H176648   1.321   4.613  12.533 -3.1527  1.5902 -0.2369
18411TIP3    H276649   1.332   4.463  12.543  1.7250  1.5883 -2.2472
18412TIP3   OH276650   1.057   0.315   3.239 -0.3094  0.0760  0.1670
18412TIP3    H176651   0.990   0.333   3.173  0.8091  0.8117 -0.8200
18412TIP3    H276652   1.044   0.383   3.305 -1.3825 -0.6146  0.6955
18413TIP3   OH276653   0.884   0.855   2.421  0.0600 -0.0271  0.5072
18413TIP3    H176654   0.968   0.864   2.376  0.4613 -0.2356  1.2008
18413TIP3    H276655   0.819   0.872   2.353  0.5462 -3.0619 -0.9091
18414TIP3   OH276656   5.980   4.257   3.558 -0.2153 -0.3123 -0.4131
18414TIP3    H176657   5.897   4.304   3.572 -0.1216 -0.4332  0.6316
18414TIP3    H276658   5.961   4.167   3.583  0.5874 -0.0642  1.2478
18415TIP3   OH276659   5.338   1.048   0.328  0.5056  0.4200 -0.8045
18415TIP3    H176660   5.389   1.104   0.269 -0.4969  0.0754 -2.0342
18415TIP3    H276661   5.311   0.974   0.274 -0.3692  0.0535  0.1084
18416TIP3   OH276662   1.488   4.808   4.693 -0.1203 -0.0296 -0.3504
18416TIP3    H176663   1.412   4.754   4.675 -0.1992 -0.3749  0.9184
18416TIP3    H276664   1.563   4.756   4.663 -0.2313 -0.6551  0.4277
18417TIP3   OH276665   4.116   4.088  11.335 -0.1625  0.3273  0.1439
18417TIP3    H176666   4.202   4.114  11.300 -0.6941  2.1603  0.1241
18417TIP3    H276667   4.116   3.993  11.328  1.1469  0.4026 -1.5763
18418TIP3   OH276668   0.625   1.249  14.118 -0.2721  0.3375 -0.1317
18418TIP3    H176669   0.714   1.281  14.109 -0.3948  0.9659  0.7293
18418TIP3    H276670   0.633   1.154  14.113  0.6908  0.2865  1.5817
18419TIP3   OH276671   6.434   2.767  16.260 -0.5174  0.1411  0.2002
18419TIP3    H176672   6.493   2.729  16.195 -1.1208 -0.7459  0.1513
18419TIP3    H276673   6.382   2.693  16.291 -0.8897  0.7258  1.0009
18420TIP3   OH276674   5.701   5.011   0.933  0.1179  0.3592 -0.6006
18420TIP3    H176675   5.762   5.085   0.931 -0.5083  0.9734  1.1250
18420TIP3    H276676   5.752   4.938   0.969 -0.1812  0.9598  1.1630
18421TIP3   OH276677   5.855   1.046  13.177 -0.5227 -0.5473  0.7096
18421TIP3    H176678   5.829   1.018  13.089  2.4149  1.2832 -0.9145
18421TIP3    H276679   5.784   1.017  13.234 -1.4571 -3.9029 -1.8685
18422TIP3   OH276680   4.880   0.649   2.900  0.1757  0.1485 -0.9384
18422TIP3    H176681   4.955   0.635   2.958  0.3332  1.1558 -0.8777
18422TIP3    H276682   4.855   0.740   2.916 -1.5811 -0.4126 -0.3571
18423TIP3   OH276683   1.954   0.735   2.379 -0.1144 -0.0815  0.6229
18423TIP3    H176684   1.966   0.827   2.402 -1.5058  0.3239 -0.1745
18423TIP3    H276685   2.022   0.717   2.315  0.8100  0.0808  1.5206
18424TIP3   OH276686   0.029   4.606  12.449  0.1874  0.2648  0.4329
18424TIP3    H176687   0.104   4.653  12.415 -1.7527  1.7335 -2.1658
18424TIP3    H276688   0.032   4.520  12.407  0.2813  0.4178  0.1283
18425TIP3   OH276689   4.700   6.242   3.421  0.0136 -0.2071  0.3319
18425TIP3    H176690   4.651   6.169   3.382  1.3425 -1.0090  0.0893
18425TIP3    H276691   4.774   6.255   3.362  0.7779  0.1325  1.3396
18426TIP3   OH276692   5.029   3.411   6.243 -0.2754  0.1036 -0.4245
18426TIP3    H176693   4.962   3.433   6.178 -0.7801 -1.1673 -0.3635
18426TIP3    H276694   5.005   3.464   6.319  0.3066  1.5843 -1.2261
18427TIP3   OH276695   3.691   5.144  13.809  0.3592  0.4589 -0.0730
18427TIP3    H176696   3.699   5.053  13.781  3.6390  1.0851 -1.6411
18427TIP3    H276697   3.664   5.139  13.901  2.6805 -2.2487  0.5956
18428TIP3   OH276698   3.811   1.950   3.365 -0.6974 -0.2755 -0.0202
18428TIP3    H176699   3.722   1.983   3.350 -0.7990 -0.8885 -0.8840
18428TIP3    H276700   3.854   1.961   3.280  0.9271  2.5112  1.0552
18429TIP3   OH276701   4.855   1.472   0.295 -0.0768  0.3216  0.5594
18429TIP3    H176702   4.892   1.385   0.281 -0.2686  0.5009 -1.1775
18429TIP3    H276703   4.894   1.501   0.378  3.1553  0.2256 -0.7947
18430TIP3   OH276704   0.214   3.134   2.502  0.5644  0.1687 -0.6424
18430TIP3    H176705   0.264   3.146   2.421  0.8591  1.0618 -0.3401
18430TIP3    H276706   0.127   3.168   2.481 -0.1298 -1.8937 -1.3423
18431TIP3   OH276707   0.172   5.122  11.036  0.7044  0.9173  0.0334
18431TIP3    H176708   0.144   5.194  10.979  1.4613  0.5377 -0.8408
18431TIP3    H276709   0.115   5.129  11.113 -0.6288  1.1890 -0.9329
18432TIP3   OH276710   0.030   6.218  11.624 -0.6817 -0.0640 -0.4615
18432TIP3    H176711   0.038   6.145  11.685 -2.4172  0.3203  0.2967
18432TIP3    H276712   0.119   6.253  11.617 -0.1275 -1.2196  0.4503
18433TIP3   OH276713   4.223   5.046   0.357  0.3120 -0.0407  0.2504
18433TIP3    H176714   4.181   5.132   0.366 -0.6565 -0.3077 -1.3996
18433TIP3    H276715   4.159   4.985   0.392  0.5583 -0.1952  0.4331
18434TIP3   OH276716   0.802   6.593  17.280 -0.7105  0.5112  0.0150
18434TIP3    H176717   0.787   6.597  17.375  2.4989 -0.8426  0.7332
18434TIP3    H276718   0.820   6.684  17.255 -1.7782  0.9105  0.6612
18435TIP3   OH276719   5.162   0.195   1.366  0.3308  0.7565  0.3007
18435TIP3    H176720   5.195   0.275   1.324 -0.9910  0.8509 -0.5886
18435TIP3    H276721   5.241   0.143   1.382  1.0802  1.6710 -0.2758
18436TIP3   OH276722   0.737   6.660  16.988 -0.1847 -0.4456 -0.3131
18436TIP3    H176723   0.681   6.737  16.978 -2.6616 -1.6013  2.8014
18436TIP3    H276724   0.815   6.692  17.032  0.3275  0.7235 -1.9788
18437TIP3   OH276725   2.001   2.203   5.764  0.1580  0.1418 -0.4632
18437TIP3    H176726   1.914   2.218   5.800  0.4210  0.8446 -0.1017
18437TIP3    H276727   1.985   2.182   5.671 -0.2639  3.2705 -1.2221
18438TIP3   OH276728   4.496   1.037   5.648  0.0132 -0.3181  0.3757
18438TIP3    H176729   4.497   0.942   5.640 -1.0500 -0.7276  3.5002
18438TIP3    H276730   4.586   1.060   5.672  0.3838 -0.4570 -0.8508
18439TIP3   OH276731   2.186   0.286  12.012 -0.1923  0.4647  0.1986
18439TIP3    H176732   2.114   0.290  12.074  1.0208  0.0531  1.6993
18439TIP3    H276733   2.154   0.230  11.941 -1.7437  1.2596  0.2266
18440TIP3   OH276734   1.102   5.918   3.657 -0.1539  0.4056 -1.2077
18440TIP3    H176735   1.109   5.832   3.699  1.4805  0.1413 -1.9449
18440TIP3    H276736   1.056   5.972   3.721  0.2996 -0.5786 -0.0083
18441TIP3   OH276737   4.009   4.674   3.018  0.2742 -0.3766  0.0454
18441TIP3    H176738   3.985   4.749   2.964 -1.3575  0.8197  2.2758
18441TIP3    H276739   3.955   4.602   2.985 -1.4570  0.5855  0.6482
18442TIP3   OH276740   1.118   0.909  12.730  0.4271  0.1167  0.1546
18442TIP3    H176741   1.159   0.916  12.644 -1.3406  0.4035 -0.7292
18442TIP3    H276742   1.112   0.815  12.747  0.7007  0.0564 -0.0922
18443TIP3   OH276743   5.335   6.755   1.847 -0.1576  0.2251 -0.3552
18443TIP3    H176744   5.411   6.698   1.832  0.8221  1.0097  1.3377
18443TIP3    H276745   5.350   6.830   1.790  0.2570  0.3014 -0.1484
18444TIP3   OH276746   5.581   3.812   1.533 -0.0073 -0.2453  0.0004
18444TIP3    H176747   5.489   3.835   1.537  0.3909  1.4786  0.0357
18444TIP3    H276748   5.582   3.719   1.510 -1.7454 -0.4564  0.6365
18445TIP3   OH276749   0.176   1.066  15.537 -0.2538 -0.0441  0.4812
18445TIP3    H176750   0.205   1.092  15.450  1.9304  0.2510  1.2419
18445TIP3    H276751   0.157   1.150  15.581 -0.9927 -0.1751  0.4278
18446TIP3   OH276752   6.080   5.702   4.036 -0.0434  0.1555 -0.7693
18446TIP3    H176753   6.166   5.670   4.010 -0.1096 -0.8651  0.2075
18446TIP3    H276754   6.023   5.680   3.961  0.1339 -1.0958 -0.5646
18447TIP3   OH276755   5.031   0.810  14.274 -0.1714 -0.3404  0.1046
18447TIP3    H176756   5.082   0.801  14.194  1.1370  1.7118  0.6108
18447TIP3    H276757   5.015   0.904  14.281  1.3722 -0.1658  3.1262
18448TIP3   OH276758   0.888   4.149  13.880 -0.2776  0.0583 -0.7396
18448TIP3    H176759   0.933   4.217  13.830 -0.3176 -0.2640 -1.2215
18448TIP3    H276760   0.958   4.101  13.925 -0.3240  1.2108  0.6521
18449TIP3   OH276761   2.732   5.949  16.234  0.6077 -0.6456 -0.2447
18449TIP3    H176762   2.691   5.903  16.307 -0.0566 -0.4406 -0.4823
18449TIP3    H276763   2.826   5.944  16.252  0.4536 -0.6845  0.5666
18450TIP3   OH276764   4.581   1.799   0.748  0.4538 -0.0816  0.0808
18450TIP3    H176765   4.677   1.792   0.744  0.7036  1.9888  1.0757
18450TIP3    H276766   4.553   1.801   0.656  1.6370  1.7651 -0.2957
18451TIP3   OH276767   3.803   2.373  14.441  0.4538 -0.1438 -0.0032
18451TIP3    H176768   3.886   2.335  14.413  0.7537  0.6589 -0.2252
18451TIP3    H276769   3.824   2.421  14.521  0.0632 -0.5224  0.3261
18452TIP3   OH276770   6.247   2.259   5.118  0.0906 -0.4858  0.4007
18452TIP3    H176771   6.240   2.274   5.212 -0.4597 -0.9948  0.4436
18452TIP3    H276772   6.168   2.299   5.081  1.3510  1.7040 -0.1123
18453TIP3   OH276773   4.731   3.656  14.439 -0.4577 -0.1201  0.1441
18453TIP3    H176774   4.805   3.701  14.399  0.6449 -0.8361  1.2781
18453TIP3    H276775   4.655   3.711  14.420  0.6091  1.4412  0.2633
18454TIP3   OH276776   2.073   3.805  11.936 -0.1227  0.3836 -0.2157
18454TIP3    H176777   2.007   3.813  12.005  1.3279  1.3242  1.1232
18454TIP3    H276778   2.023   3.780  11.858 -1.8882 -0.1724  1.0242
18455TIP3   OH276779   6.019   4.582   0.937  0.1444 -0.3371  0.1361
18455TIP3    H176780   6.099   4.529   0.940  0.0271 -0.5969 -0.9390
18455TIP3    H276781   5.962   4.536   0.875 -0.2070  0.6976 -0.3372
18456TIP3   OH276782   1.232   1.883   2.817 -0.3052  0.3446  0.2488
18456TIP3    H176783   1.152   1.867   2.768  1.3153  2.0808 -3.3399
18456TIP3    H276784   1.223   1.973   2.848 -0.6549 -0.2351  1.9349
18457TIP3   OH276785   3.688   3.540  17.214 -0.0630 -0.0044  0.0595
18457TIP3    H176786   3.599   3.573  17.200  0.3107  1.2781  0.5766
18457TIP3    H276787   3.688   3.510  17.305 -0.5833 -2.1406 -0.5784
18458TIP3   OH276788   1.496   1.140   3.775 -0.7174  0.4649 -0.5414
18458TIP3    H176789   1.465   1.054   3.802 -1.3030  0.3999 -1.3998
18458TIP3    H276790   1.570   1.122   3.716 -0.9175  0.5376 -0.8195
18459TIP3   OH276791   6.189   6.567  16.814  0.4824  0.1126  0.0315
18459TIP3    H176792   6.256   6.567  16.745  1.0092 -2.0552  0.4551
18459TIP3    H276793   6.113   6.527  16.773  0.2798  0.2531  0.2725
18460TIP3   OH276794   2.627   6.244  16.454 -0.4248 -0.3462  0.0870
18460TIP3    H176795   2.541   6.213  16.484 -0.4719 -1.5170 -1.1948
18460TIP3    H276796   2.623   6.238  16.359  1.3228 -1.0514  0.0327
18461TIP3   OH276797   1.478   1.933  15.844  0.6583 -0.2220  0.8017
18461TIP3    H176798   1.520   1.964  15.764  2.1433 -2.5751  0.5795
18461TIP3    H276799   1.547   1.886  15.891 -0.7620 -0.8309  2.3905
18462TIP3   OH276800   1.924   6.459  13.714  0.0550  0.1485  0.0232
18462TIP3    H176801   1.974   6.531  13.751  0.0057 -0.0896  0.5588
18462TIP3    H276802   1.840   6.462  13.761  0.0543 -0.2578  0.0511
18463TIP3   OH276803   1.577   0.309   0.562 -0.1576  0.2047  0.4240
18463TIP3    H176804   1.637   0.268   0.499  1.9539 -0.8261  2.9524
18463TIP3    H276805   1.513   0.240   0.582 -0.1377  0.1486  0.2971
18464TIP3   OH276806   6.590   4.401  12.067  0.1463 -0.3853 -0.0268
18464TIP3    H176807   6.639   4.475  12.103 -0.5115  0.2390 -0.3824
18464TIP3    H276808   6.524   4.441  12.010 -0.3821 -1.2302 -0.0306
18465TIP3   OH276809   2.602   4.215   5.009  0.0136 -0.1037  0.5772
18465TIP3    H176810   2.661   4.143   4.983  2.4965  2.2352 -0.8328
18465TIP3    H276811   2.565   4.246   4.926  0.7863  1.6187  0.8279
18466TIP3   OH276812   3.421   2.439   4.524 -0.1231  0.1343  0.3115
18466TIP3    H176813   3.420   2.350   4.490  1.5241 -0.0706  0.7134
18466TIP3    H276814   3.435   2.494   4.447  2.9800 -0.2853  0.4267
18467TIP3   OH276815   4.131   0.171   0.227 -0.8080  0.3704  0.7719
18467TIP3    H176816   4.154   0.142   0.139 -2.0469 -0.5283  0.7156
18467TIP3    H276817   4.215   0.183   0.271 -0.1928 -1.7323  0.2713
18468TIP3   OH276818   5.739   0.594   4.260 -0.0667 -0.0944 -0.0145
18468TIP3    H176819   5.767   0.503   4.260 -3.2222 -1.2824  2.5815
18468TIP3    H276820   5.705   0.609   4.172 -0.3744 -1.8020 -0.2271
18469TIP3   OH276821   2.376   0.433   3.754  0.0097  0.3422  0.0011
18469TIP3    H176822   2.286   0.455   3.733 -0.5238 -0.7851  0.9576
18469TIP3    H276823   2.402   0.371   3.686  0.6918  2.0017 -1.2967
18470TIP3   OH276824   0.408   6.348  12.697 -0.0202 -0.9711  0.3993
18470TIP3    H176825   0.401   6.331  12.603  2.0880 -2.4029  0.4254
18470TIP3    H276826   0.337   6.297  12.736 -2.2529  1.2888 -0.4861
18471TIP3   OH276827   5.920   6.152   0.325  0.5173 -0.0139 -0.0294
18471TIP3    H176828   5.930   6.228   0.382  1.3888  0.2508 -0.5203
18471TIP3    H276829   5.841   6.109   0.357 -0.1467  1.2422  0.0817
18472TIP3   OH276830   0.009   5.394  15.736  0.1371  0.0552  0.2113
18472TIP3    H176831  -0.002   5.367  15.645  1.1224 -1.5149  0.5272
18472TIP3    H276832   0.049   5.481  15.731  0.7415 -0.2732 -0.8622
18473TIP3   OH276833   2.990   5.104  15.163 -0.0266 -0.3358  0.4250
18473TIP3    H176834   2.993   5.009  15.172 -1.2374 -0.4040  0.3244
18473TIP3    H276835   3.055   5.124  15.095  0.0605 -1.1214  0.2714
18474TIP3   OH276836   4.735   0.407  14.749 -0.0468  0.1222 -0.0425
18474TIP3    H176837   4.741   0.494  14.712  1.7078 -0.1742 -0.5449
18474TIP3    H276838   4.646   0.377  14.729 -0.8637  1.9751  0.6396
18475TIP3   OH276839   4.128   0.404   5.024  0.7304  0.0452  0.0397
18475TIP3    H176840   4.215   0.431   4.994  0.6234  0.6305  0.2608
18475TIP3    H276841   4.117   0.316   4.987  0.6074  0.7279 -1.6625
18476TIP3   OH276842   3.568   5.565  11.228 -0.3047  0.1377  0.7133
18476TIP3    H176843   3.622   5.533  11.156 -0.4636  1.8276 -0.2145
18476TIP3    H276844   3.521   5.488  11.259 -0.0254 -0.6884 -0.8185
18477TIP3   OH276845   6.141   1.852  12.217 -0.8232 -0.2308 -0.7708
18477TIP3    H176846   6.194   1.881  12.291 -0.1816  1.0979 -1.7148
18477TIP3    H276847   6.084   1.926  12.197  1.3043  0.8498 -3.6436
18478TIP3   OH276848   6.105   1.723   1.242 -0.2207 -0.5530 -0.8327
18478TIP3    H176849   6.041   1.794   1.246  2.3407  1.9196 -0.5330
18478TIP3    H276850   6.052   1.643   1.247 -3.2508  1.2764 -0.8462
18479TIP3   OH276851   1.779   5.921   3.436 -0.2085 -0.1765 -0.4806
18479TIP3    H176852   1.844   5.851   3.447 -1.3251 -0.9943  1.2753
18479TIP3    H276853   1.786   5.973   3.515 -1.9517 -0.5330 -0.0529
18480TIP3   OH276854   2.741   5.070  11.999  0.2552 -0.1834 -0.8658
18480TIP3    H176855   2.768   5.144  12.053 -0.1397 -0.6445  0.0019
18480TIP3    H276856   2.797   5.074  11.922  0.7637  0.5647 -0.4706
18481TIP3   OH276857   1.309   4.499  15.195  0.0407 -0.2664 -0.2015
18481TIP3    H176858   1.372   4.524  15.128  1.5221 -0.5455  1.0227
18481TIP3    H276859   1.309   4.572  15.257 -0.6774 -0.3741 -0.0633
18482TIP3   OH276860   0.253   0.952   0.163 -0.6767  0.1904 -0.4688
18482TIP3    H176861   0.253   0.857   0.178 -2.1314  0.3479  0.6968
18482TIP3    H276862   0.223   0.990   0.245  0.5384  1.7339 -0.6781
18483TIP3   OH276863   3.092   4.902   1.408 -0.1098 -0.3759  0.1480
18483TIP3    H176864   3.001   4.931   1.413  0.1286  0.2927  0.8093
18483TIP3    H276865   3.130   4.954   1.338  0.6725  2.0430  2.2060
18484TIP3   OH276866   1.893   3.210   0.735 -0.3801  0.8570 -0.1234
18484TIP3    H176867   1.829   3.279   0.719 -0.3311  1.5861  2.3047
18484TIP3    H276868   1.855   3.158   0.806  1.2298  0.7018  0.6810
18485TIP3   OH276869   5.039   3.281   3.476  0.1668 -0.3091 -0.5814
18485TIP3    H176870   5.093   3.350   3.514 -0.4131  0.5898 -1.3375
18485TIP3    H276871   5.100   3.210   3.457  0.7734 -0.0170  0.2186
18486TIP3   OH276872   2.915   2.825   4.040  0.4533  0.0329 -0.1227
18486TIP3    H176873   2.885   2.824   3.950  0.5719  2.4730 -0.2455
18486TIP3    H276874   2.849   2.875   4.087  1.0484 -0.0971  0.8888
18487TIP3   OH276875   4.426   3.891  17.013 -0.4706  0.0478  0.4545
18487TIP3    H176876   4.468   3.950  16.950 -4.2224  0.8225 -1.6558
18487TIP3    H276877   4.398   3.948  17.085 -0.7480  0.1835  0.2454
18488TIP3   OH276878   0.361   0.879   6.036  0.2664 -0.1664 -1.2994
18488TIP3    H176879   0.267   0.876   6.019 -0.5214  2.8176  1.3640
18488TIP3    H276880   0.387   0.788   6.047 -2.6925 -1.0167 -0.5392
18489TIP3   OH276881   3.132   2.052   0.275  0.3913  0.6443  0.2970
18489TIP3    H176882   3.049   2.036   0.229  0.0254  0.9203  0.8395
18489TIP3    H276883   3.129   2.146   0.295  1.3164  0.8846 -0.5844
18490TIP3   OH276884   1.823   6.189   2.297 -0.1584 -0.4446  0.1005
18490TIP3    H176885   1.912   6.212   2.270 -0.6743  0.2440 -1.0385
18490TIP3    H276886   1.766   6.229   2.232 -1.3020 -1.2067  0.5959
18491TIP3   OH276887   0.844   6.112  15.107 -0.5125  0.2652  0.8990
18491TIP3    H176888   0.931   6.113  15.146 -1.0386 -0.0455  2.1265
18491TIP3    H276889   0.859   6.087  15.016  0.5261 -1.5407  1.5178
18492TIP3   OH276890   4.385   4.951   0.654  0.0835 -0.5181 -0.0286
18492TIP3    H176891   4.445   5.001   0.599 -1.0270 -0.9162 -1.6736
18492TIP3    H276892   4.426   4.865   0.662  1.4456  0.2539  1.8694
18493TIP3   OH276893   0.809   4.620  14.197 -0.0805  0.7501 -0.8868
18493TIP3    H176894   0.878   4.620  14.131 -0.8332 -2.3026 -1.8713
18493TIP3    H276895   0.855   4.605  14.280  0.6327  1.7125 -1.0942
18494TIP3   OH276896   1.856   6.374  15.980 -0.6517 -0.2359  0.4792
18494TIP3    H176897   1.921   6.375  15.909 -0.7671 -1.8620  0.3159
18494TIP3    H276898   1.899   6.417  16.053  0.1863 -0.2714  0.0128
18495TIP3   OH276899   5.671   6.277   1.785 -0.3339  0.3742 -0.2826
18495TIP3    H176900   5.700   6.345   1.725 -2.2713  1.2078 -0.3611
18495TIP3    H276901   5.670   6.319   1.871  2.3167 -0.7768  0.4014
18496TIP3   OH276902   2.243   6.600   3.262 -0.4645  0.2662  0.4768
18496TIP3    H176903   2.247   6.656   3.184  0.9570  2.2123  1.8309
18496TIP3    H276904   2.293   6.648   3.328  3.6818 -4.0103  0.9596
18497TIP3   OH276905   3.996   0.162  14.455  0.6296 -0.1584  0.7891
18497TIP3    H176906   4.058   0.114  14.401  1.1135  2.1744 -0.8685
18497TIP3    H276907   4.027   0.252  14.452 -2.6250  1.0584  0.1547
18498TIP3   OH276908   3.563   3.580   4.441 -0.0512 -0.3658  0.2739
18498TIP3    H176909   3.605   3.553   4.523 -0.2307 -2.7211 -0.3390
18498TIP3    H276910   3.632   3.578   4.376 -0.7427 -3.3901 -0.5548
18499TIP3   OH276911   1.400   6.670   2.909  0.8078  0.1432  0.2116
18499TIP3    H176912   1.337   6.656   2.979  1.9315 -0.9848  1.0557
18499TIP3    H276913   1.471   6.719   2.950  0.1802  2.0745 -0.9188
18500TIP3   OH276914   4.506   0.205   1.701  0.3361  0.7233 -0.0801
18500TIP3    H176915   4.452   0.130   1.674 -1.3857  1.7153  0.4334
18500TIP3    H276916   4.504   0.263   1.625  0.9165  0.6651 -0.1455
18501TIP3   OH276917   2.589   1.505  13.781 -0.2689  0.0941 -0.8057
18501TIP3    H176918   2.521   1.527  13.717 -2.4147 -0.8678  0.9928
18501TIP3    H276919   2.594   1.410  13.779 -1.1354 -0.0373  1.1074
18502TIP3   OH276920   5.729   1.944  17.216 -0.0136 -0.3282  0.0064
18502TIP3    H176921   5.654   2.000  17.198 -1.1521 -1.8395 -0.2423
18502TIP3    H276922   5.779   1.990  17.283 -1.1580  0.7278  0.1660
18503TIP3   OH276923   5.898   0.892  12.437 -0.4118  0.4798 -0.1133
18503TIP3    H176924   5.950   0.839  12.376  1.5260  1.1112  0.9103
18503TIP3    H276925   5.942   0.881  12.521 -2.2771  0.6442  0.9339
18504TIP3   OH276926   0.663   5.776   6.192 -0.0523  0.2310  0.2007
18504TIP3    H176927   0.753   5.783   6.224  0.2314  0.3470 -0.5983
18504TIP3    H276928   0.670   5.720   6.114 -0.4899  1.1736 -0.5331
18505TIP3   OH276929   5.190   2.074   6.166 -0.3005  0.4108  0.8228
18505TIP3    H176930   5.127   2.123   6.219 -0.6443 -1.6650  2.4671
18505TIP3    H276931   5.151   1.987   6.157  1.7857 -0.5822  0.8963
18506TIP3   OH276932   4.495   4.861  16.534  0.2058  0.2184  0.1000
18506TIP3    H176933   4.544   4.857  16.452 -1.0712 -1.2550 -0.6550
18506TIP3    H276934   4.404   4.878  16.507 -0.3568 -0.9738  1.1171
18507TIP3   OH276935   4.586   1.236   3.597 -0.3241  0.0453 -0.3701
18507TIP3    H176936   4.546   1.322   3.613 -0.2173 -0.4462  3.6731
18507TIP3    H276937   4.679   1.248   3.617 -0.5916 -1.2465  2.1258
18508TIP3   OH276938   0.949   1.226   5.053  0.4611 -0.0655 -0.1385
18508TIP3    H176939   1.028   1.207   5.002 -0.0172 -0.7458 -0.6532
18508TIP3    H276940   0.877   1.203   4.994 -0.1511 -2.8088  1.4652
18509TIP3   OH276941   3.934   3.033   2.924  0.3396  0.1475  0.0428
18509TIP3    H176942   3.956   3.117   2.885  0.6214  0.9637  1.8621
18509TIP3    H276943   4.001   2.973   2.892 -0.0808  0.4814 -1.5772
18510TIP3   OH276944   3.601   3.316   2.352  0.3539  0.4202  0.8103
18510TIP3    H176945   3.570   3.390   2.405  0.7668  0.5653  0.8543
18510TIP3    H276946   3.659   3.268   2.410  1.6573  1.1698  0.1851
18511TIP3   OH276947   0.750   3.985   6.231 -0.1185  0.5565 -0.2580
18511TIP3    H176948   0.831   3.938   6.216 -0.4842  0.4085 -2.0308
18511TIP3    H276949   0.690   3.920   6.266  0.5939  0.7404  1.3571
18512TIP3   OH276950   0.299   2.035   2.664  0.1021  0.4877 -0.6952
18512TIP3    H176951   0.384   2.078   2.652 -0.2687  1.1502 -0.9753
18512TIP3    H276952   0.241   2.105   2.693  0.2929 -0.4870  2.3516
18513TIP3   OH276953   6.680   3.711   6.093 -0.3839 -0.3145  0.3056
18513TIP3    H176954   6.736   3.753   6.158 -1.3423 -1.1836  1.7580
18513TIP3    H276955   6.725   3.724   6.010  1.8176 -0.7652  1.3728
18514TIP3   OH276956   3.338   0.051  14.463  0.2234  0.0780 -0.7279
18514TIP3    H176957   3.398   0.119  14.432  2.2059 -1.6754 -1.0175
18514TIP3    H276958   3.372  -0.030  14.424 -0.6079 -1.4141  1.4369
18515TIP3   OH276959   6.141   6.655  15.580  0.2635  0.2882 -0.1784
18515TIP3    H176960   6.146   6.735  15.631 -0.5883  0.4689 -0.3632
18515TIP3    H276961   6.230   6.642  15.546  0.5353  0.8385  0.3173
18516TIP3   OH276962   2.906   2.932  14.341  0.8325 -0.0943 -0.6883
18516TIP3    H176963   2.884   3.025  14.346 -0.8830 -0.3978 -1.7092
18516TIP3    H276964   2.831   2.888  14.381  2.1933 -1.0245  0.9628
18517TIP3   OH276965   4.020   1.745   0.777  0.4427 -0.1474  0.4145
18517TIP3    H176966   4.078   1.701   0.716 -3.9773 -1.5743 -3.3772
18517TIP3    H276967   3.994   1.676   0.839  0.3728 -0.3653  0.1408
18518TIP3   OH276968   1.631   1.521   1.513  0.3685  0.2050 -0.2099
18518TIP3    H176969   1.545   1.513   1.554 -0.9319  0.9492 -2.6071
18518TIP3    H276970   1.693   1.512   1.585 -1.7023 -0.2263  1.6161
18519TIP3   OH276971   0.012   4.466  11.469 -0.2313 -0.0021 -0.0053
18519TIP3    H176972  -0.043   4.417  11.409  0.1161  0.0489 -0.3725
18519TIP3    H276973  -0.029   4.455  11.555  0.2856 -1.5876  0.0612
18520TIP3   OH276974   2.369   0.986   5.870 -0.4256  0.2545 -0.7895
18520TIP3    H176975   2.439   0.929   5.838  0.6508  0.1629  1.5262
18520TIP3    H276976   2.399   1.074   5.848 -0.2922  0.1373 -1.0911
18521TIP3   OH276977   0.215   5.102   3.696 -0.1877 -0.5079  0.1834
18521TIP3    H176978   0.178   5.014   3.696  0.7774 -0.9635 -1.8460
18521TIP3    H276979   0.185   5.140   3.779 -2.8021 -1.8105 -0.0591
18522TIP3   OH276980   2.490   5.052  11.722  0.5270 -0.2855  0.4356
18522TIP3    H176981   2.560   4.993  11.694  1.7228  0.2773  2.0639
18522TIP3    H276982   2.457   5.091  11.640  1.1094 -1.6423 -0.4817
18523TIP3   OH276983   4.488   0.232  15.998 -0.2957  0.1870  0.7894
18523TIP3    H176984   4.416   0.169  15.988  0.3758 -0.7418  1.5457
18523TIP3    H276985   4.566   0.177  16.006  0.3990  1.1529  0.8317
18524TIP3   OH276986   6.351   1.005  12.567 -0.4985  0.0157 -0.0003
18524TIP3    H176987   6.358   1.019  12.661  0.8164 -2.9759  0.4457
18524TIP3    H276988   6.432   0.961  12.543 -2.0607 -2.0590 -1.9246
18525TIP3   OH276989   0.009   2.157   5.240  0.2014  0.3643 -0.1470
18525TIP3    H176990  -0.058   2.220   5.214 -0.0726  0.5033  0.8537
18525TIP3    H276991   0.002   2.153   5.335 -0.7771 -2.2596 -0.2543
18526TIP3   OH276992   2.178   6.633  13.673  0.3052  0.4526 -0.2784
18526TIP3    H176993   2.234   6.658  13.600  0.6571 -0.0928 -0.2047
18526TIP3    H276994   2.143   6.715  13.707  0.8912  0.7797 -0.4631
18527TIP3   OH276995   4.181   4.129   4.023 -0.1052 -0.0950  0.1495
18527TIP3    H176996   4.227   4.207   4.054 -0.5895  0.2762 -0.0432
18527TIP3    H276997   4.123   4.162   3.953  1.4165 -0.9792 -1.6254
18528TIP3   OH276998   5.932   0.127  14.991 -0.5195  0.1691  0.1355
18528TIP3    H176999   5.926   0.219  15.019  1.0945  0.4827 -0.4253
18528TIP3    H277000   5.890   0.125  14.905 -1.0472  0.2463  0.3833
18529TIP3   OH277001   3.039   0.814   4.017 -0.1278  0.5347  0.1492
18529TIP3    H177002   3.116   0.776   4.059  0.0040  0.1451 -0.4306
18529TIP3    H277003   2.973   0.815   4.086 -0.0395 -0.4728  0.2689
18530TIP3   OH277004   5.837   1.791   1.987 -0.3047 -0.2234 -0.0068
18530TIP3    H177005   5.920   1.791   2.035 -0.3759  0.0688  0.1170
18530TIP3    H277006   5.780   1.850   2.036  0.1578  1.4464 -1.3665
18531TIP3   OH277007   1.997   5.353   3.101  0.4432 -0.0924  0.2857
18531TIP3    H177008   2.038   5.427   3.146 -0.7654  0.1317  1.0687
18531TIP3    H277009   1.970   5.295   3.171 -0.4836 -0.2790 -0.2153
18532TIP3   OH277010   5.624   3.809  16.413 -0.9274 -0.3308  0.2310
18532TIP3    H177011   5.654   3.754  16.485 -1.0308  1.1913  1.5016
18532TIP3    H277012   5.646   3.898  16.440 -1.5957  0.3539 -1.3224
18533TIP3   OH277013   5.303   0.627   3.311  0.5418 -0.2778  0.2789
18533TIP3    H177014   5.381   0.681   3.296  1.3491 -1.3492  0.5119
18533TIP3    H277015   5.236   0.689   3.339  1.2810  0.6757 -0.0001
18534TIP3   OH277016   1.594   0.400  13.288 -0.1040 -0.0037  0.2398
18534TIP3    H177017   1.612   0.449  13.368 -0.9346 -1.7062  1.5430
18534TIP3    H277018   1.515   0.350  13.308 -0.1305 -0.7601 -1.5380
18535TIP3   OH277019   3.479   5.505   2.247 -0.2450  0.4766  0.2816
18535TIP3    H177020   3.390   5.481   2.220 -0.1756  1.5673 -0.9975
18535TIP3    H277021   3.474   5.599   2.264  0.7836  0.6634 -0.3784
18536TIP3   OH277022   2.007   0.383   6.417  0.1097  0.6650  0.0542
18536TIP3    H177023   1.916   0.395   6.444  0.1690 -0.3698  0.7632
18536TIP3    H277024   2.032   0.299   6.455  1.5914  1.2832  0.4929
18537TIP3   OH277025   4.883   3.203  14.121  0.0955 -0.3134 -0.3520
18537TIP3    H177026   4.862   3.183  14.030 -0.1530 -0.5178 -0.2545
18537TIP3    H277027   4.959   3.148  14.141 -0.8653 -1.5602  0.0493
18538TIP3   OH277028   4.682   1.885  15.251  0.8146  0.3932 -0.0710
18538TIP3    H177029   4.768   1.926  15.244  0.9467  0.4813  1.6281
18538TIP3    H277030   4.633   1.920  15.177  2.2514  0.2653 -1.1322
18539TIP3   OH277031   3.703   5.117   5.058  0.6453 -0.5263 -0.2671
18539TIP3    H177032   3.613   5.127   5.088  0.6823 -0.6668 -0.1057
18539TIP3    H277033   3.753   5.180   5.110  0.5654 -0.1017 -0.7039
18540TIP3   OH277034   6.309   1.072   1.362  0.2253  0.1898  0.7309
18540TIP3    H177035   6.237   1.110   1.412 -1.1112  0.6404 -1.3772
18540TIP3    H277036   6.376   1.140   1.362 -0.4301  0.8548  0.5539
18541TIP3   OH277037   2.664   6.312  13.415  0.2124  0.0058 -0.4809
18541TIP3    H177038   2.612   6.362  13.477 -0.7586  1.3705 -2.3172
18541TIP3    H277039   2.660   6.222  13.448  1.5679  0.9337  2.5955
18542TIP3   OH277040   4.437   0.107   4.257 -0.2014 -0.5393 -0.0325
18542TIP3    H177041   4.443   0.038   4.192 -2.6066  0.6309 -1.6304
18542TIP3    H277042   4.384   0.070   4.327 -2.1549 -0.1620 -1.2405
18543TIP3   OH277043   6.534   5.148   2.975 -0.2772  0.1619  0.2404
18543TIP3    H177044   6.586   5.214   3.022 -0.0013 -0.2392  0.5059
18543TIP3    H277045   6.584   5.132   2.895 -1.5489  2.0156 -0.9948
18544TIP3   OH277046   0.240   4.841  14.074 -0.3623  0.3632 -0.0435
18544TIP3    H177047   0.178   4.779  14.112  1.9693 -1.3794  1.1243
18544TIP3    H277048   0.184   4.908  14.032 -3.0346  0.3761  3.1475
18545TIP3   OH277049   5.499   2.036   3.846 -0.5014 -0.0705  0.3607
18545TIP3    H177050   5.446   1.957   3.837  0.0880 -0.5059  0.6617
18545TIP3    H277051   5.458   2.100   3.787 -1.9578 -0.0715  1.3431
18546TIP3   OH277052   0.945   1.526   0.461  0.0354 -0.1938 -0.7856
18546TIP3    H177053   0.988   1.595   0.512  0.8187 -2.0534  1.2099
18546TIP3    H277054   0.910   1.572   0.385  1.1507  2.2755  0.0658
18547TIP3   OH277055   6.750   1.949  13.750  0.3944  0.1200  0.3537
18547TIP3    H177056   6.832   1.907  13.778  1.5535  2.1746  0.2049
18547TIP3    H277057   6.757   1.952  13.654  0.1669  0.3596  0.3460
18548TIP3   OH277058   6.612   1.928  12.153 -0.1438 -0.3496  0.1382
18548TIP3    H177059   6.661   1.856  12.115  1.0908 -0.2980  1.5528
18548TIP3    H277060   6.666   1.959  12.225 -1.4925  0.8081  0.7081
18549TIP3   OH277061   1.492   5.710   0.632 -0.3497  0.1650 -0.2744
18549TIP3    H177062   1.456   5.784   0.681  0.0239 -0.4358  0.9619
18549TIP3    H277063   1.559   5.748   0.576 -0.1818  0.7687  0.3269
18550TIP3   OH277064   1.609   2.238  16.493  0.1154  1.0678 -0.0507
18550TIP3    H177065   1.563   2.262  16.412  0.3248 -0.7532 -0.7760
18550TIP3    H277066   1.662   2.314  16.515  0.2752  1.4955 -1.7982
18551TIP3   OH277067   6.544   3.910   4.349 -0.5994  0.4616  0.5121
18551TIP3    H177068   6.484   3.844   4.313  0.1896  0.5302 -1.0193
18551TIP3    H277069   6.539   3.983   4.286 -0.6042  1.4097  1.5827
18552TIP3   OH277070   5.755   5.684  13.585 -0.0172  0.6121  0.0260
18552TIP3    H177071   5.727   5.596  13.559  2.5448  0.1707 -1.6116
18552TIP3    H277072   5.686   5.742  13.552 -0.5557 -0.6117 -1.0688
18553TIP3   OH277073   6.180   6.245  14.762 -0.4255 -0.0873  0.5861
18553TIP3    H177074   6.140   6.276  14.844 -0.5772 -0.5242  0.6818
18553TIP3    H277075   6.274   6.260  14.774 -0.4645  0.0196  0.7695
18554TIP3   OH277076   3.324   6.552   3.131 -1.3624 -0.1956  0.1678
18554TIP3    H177077   3.301   6.459   3.142 -0.9233 -0.3543 -0.1992
18554TIP3    H277078   3.353   6.579   3.218 -0.4284 -0.7175  0.0405
18555TIP3   OH277079   5.944   5.976  13.092 -0.0111 -0.0701  0.0630
18555TIP3    H177080   5.891   5.937  13.023  0.3523 -0.5930  0.0784
18555TIP3    H277081   6.017   5.916  13.104 -0.4305 -0.3648  1.3982
18556TIP3   OH277082   6.712   5.097   4.106  0.2516 -0.1024 -0.4799
18556TIP3    H177083   6.644   5.074   4.043 -0.4886  2.4066 -0.6892
18556TIP3    H277084   6.665   5.124   4.185  0.9445  1.5462 -0.5867
18557TIP3   OH277085   4.202   6.474  16.248  0.3160  0.2610  0.1234
18557TIP3    H177086   4.127   6.443  16.198  0.4154  0.4877 -0.1749
18557TIP3    H277087   4.192   6.435  16.334 -0.3193  0.5454  0.1839
18558TIP3   OH277088   2.132   5.783   0.027 -0.8095 -0.2944  0.6749
18558TIP3    H177089   2.103   5.691   0.024 -0.2283 -0.5016 -2.9058
18558TIP3    H277090   2.223   5.780  -0.001 -0.7076  1.3700  0.7579
18559TIP3   OH277091   2.230   4.025   0.614  0.0638  0.5667  0.4348
18559TIP3    H177092   2.264   3.987   0.534 -0.1270  0.0799  0.5815
18559TIP3    H277093   2.170   4.094   0.585 -2.3290 -1.5163  0.0538
18560TIP3   OH277094   6.220   6.241  15.786  0.1219 -0.6376 -0.0790
18560TIP3    H177095   6.295   6.217  15.731  0.2172 -1.8144  0.5278
18560TIP3    H277096   6.161   6.287  15.726  0.0219 -2.2594 -1.3234
18561TIP3   OH277097   2.101   1.775  14.608 -0.3211 -0.2832 -0.2731
18561TIP3    H177098   2.153   1.807  14.682 -1.4345 -1.9812  1.3581
18561TIP3    H277099   2.163   1.769  14.536  1.1042  0.2817  0.8477
18562TIP3   OH277100   2.301   1.716  12.794  0.2624  0.2105  0.2144
18562TIP3    H177101   2.341   1.776  12.857  0.9785 -0.6113  0.5611
18562TIP3    H277102   2.314   1.629  12.832  0.6941 -0.3022 -1.0674
18563TIP3   OH277103   4.211   4.444   6.252  0.0647 -0.3604 -0.6280
18563TIP3    H177104   4.295   4.478   6.284 -0.4822  1.0964 -0.6603
18563TIP3    H277105   4.146   4.500   6.293 -0.9393 -1.6808 -0.3390
18564TIP3   OH277106   6.425   3.553   2.445 -0.3306  0.3649  0.4727
18564TIP3    H177107   6.364   3.617   2.482  0.8776  0.5105  2.3359
18564TIP3    H277108   6.508   3.599   2.440  0.3082 -0.7138  0.8000
18565TIP3   OH277109   1.685   5.608   2.169  0.3560 -0.0315  0.3078
18565TIP3    H177110   1.662   5.526   2.213  1.7243 -0.8789 -0.4695
18565TIP3    H277111   1.763   5.638   2.215  0.0994  0.6227  0.3196
18566TIP3   OH277112   1.148   5.688   5.653 -0.2643  0.6119 -0.0368
18566TIP3    H177113   1.062   5.684   5.694  0.2492 -0.1242  1.0010
18566TIP3    H277114   1.143   5.764   5.595 -1.6003  0.5860  0.0154
18567TIP3   OH277115   6.289   5.775  11.918  0.4239  0.7584  0.2984
18567TIP3    H177116   6.364   5.736  11.872  0.2815 -0.3229  0.9524
18567TIP3    H277117   6.224   5.791  11.849  0.5189 -0.1099 -0.0076
18568TIP3   OH277118   1.438   0.764   5.069  0.2396 -0.3010 -0.6299
18568TIP3    H177119   1.430   0.753   4.975 -1.0571 -2.6678 -0.3369
18568TIP3    H277120   1.393   0.688   5.106  2.3695 -0.4913  1.8791
18569TIP3   OH277121   3.511   3.562   2.109  0.0068  0.8896 -0.3623
18569TIP3    H177122   3.519   3.501   2.183 -2.3049  0.9769  0.0402
18569TIP3    H277123   3.448   3.520   2.051  0.3387  1.7308 -1.3476
18570TIP3   OH277124   1.892   0.991  15.107 -0.6093 -0.6970 -0.5912
18570TIP3    H177125   1.862   0.995  15.016 -0.3692  1.8878 -0.6404
18570TIP3    H277126   1.822   1.032  15.158  0.2211 -0.0511  0.0717
18571TIP3   OH277127   6.193   0.154   2.635 -0.4397 -0.2511  0.2620
18571TIP3    H177128   6.272   0.191   2.594 -0.5421 -1.3549 -1.0111
18571TIP3    H277129   6.222   0.128   2.722  1.0539 -1.9348 -0.6504
18572TIP3   OH277130   0.850   3.729  15.403 -0.1367 -0.2364  0.5415
18572TIP3    H177131   0.898   3.661  15.450  0.4761 -1.4964 -1.7276
18572TIP3    H277132   0.908   3.805  15.405  1.2138 -1.1823 -0.6046
18573TIP3   OH277133   4.463   0.932   5.229 -0.0941  0.3305  0.0656
18573TIP3    H177134   4.456   0.900   5.139  2.7914 -3.2721  0.8742
18573TIP3    H277135   4.546   0.979   5.232  0.1025 -0.0545  0.9566
18574TIP3   OH277136   6.695   4.502   0.345  0.1295 -0.4677  0.5089
18574TIP3    H177137   6.757   4.531   0.278 -1.1894 -1.1802 -1.1239
18574TIP3    H277138   6.691   4.407   0.334  0.3877 -0.6776  2.0903
18575TIP3   OH277139   3.150   1.548  16.632  0.3924 -0.3063  0.3564
18575TIP3    H177140   3.074   1.523  16.685  0.8980  0.7057  1.5798
18575TIP3    H277141   3.226   1.525  16.685  0.9022  1.2652  0.3355
18576TIP3   OH277142   4.220   1.033  16.068  0.4866  0.4356  0.1180
18576TIP3    H177143   4.241   1.046  16.161  0.0346  2.6891 -0.0536
18576TIP3    H277144   4.283   0.967  16.039  1.4918  0.6414  1.7135
18577TIP3   OH277145   2.036   4.752  12.476  0.3530  0.3499 -0.0940
18577TIP3    H177146   2.036   4.751  12.381  0.0712  0.1587 -0.0938
18577TIP3    H277147   2.120   4.713  12.501  0.0356 -0.4703 -0.2624
18578TIP3   OH277148   1.938   3.879   0.529 -0.0545 -0.1618  0.0116
18578TIP3    H177149   1.965   3.924   0.609 -0.1378 -2.2089  1.2599
18578TIP3    H277150   1.945   3.946   0.460 -0.5525  1.8161  1.7878
18579TIP3   OH277151   1.854   0.935  14.843 -0.3977 -0.0578 -0.1477
18579TIP3    H177152   1.894   0.976  14.766 -1.9796  0.0567 -0.9558
18579TIP3    H277153   1.875   0.842  14.836  0.3056  0.1027 -0.1724
18580TIP3   OH277154   3.246   4.544   0.540  0.5339  0.2938  0.9360
18580TIP3    H177155   3.335   4.520   0.566  0.4388 -0.2688  0.7664
18580TIP3    H277156   3.243   4.639   0.549  1.6742  0.5299 -0.6571
18581TIP3   OH277157   5.580   6.696  15.573  0.1584  0.2192 -0.0253
18581TIP3    H177158   5.514   6.694  15.642  1.3526  1.3339  1.2191
18581TIP3    H277159   5.617   6.608  15.572 -2.2937 -0.9070 -1.7991
18582TIP3   OH277160   0.039   0.065   4.741  0.2480 -0.3577 -0.0523
18582TIP3    H177161   0.058   0.130   4.809 -0.4742  0.9988 -1.0942
18582TIP3    H277162  -0.030   0.010   4.778 -0.6087  0.7813  0.1061
18583TIP3   OH277163   1.750   4.733  13.714  0.2472  0.3388  0.4371
18583TIP3    H177164   1.752   4.826  13.691  0.7335  0.4225  0.7993
18583TIP3    H277165   1.657   4.711  13.719 -0.0244 -0.2561 -3.8564
18584TIP3   OH277166   6.404   2.725  11.597 -0.1932  0.1324 -0.0806
18584TIP3    H177167   6.331   2.786  11.582  1.1730  1.7439 -0.4741
18584TIP3    H277168   6.412   2.677  11.514  0.4249  1.3549 -0.7559
18585TIP3   OH277169   1.415   3.697  13.819 -0.3248  0.2704  0.3430
18585TIP3    H177170   1.387   3.688  13.728  0.5242  1.4717 -0.0654
18585TIP3    H277171   1.440   3.609  13.846 -1.8248 -0.3422 -0.1363
18586TIP3   OH277172   1.298   3.426  16.736 -0.1732 -0.0376  0.1501
18586TIP3    H177173   1.383   3.387  16.719 -0.2067  0.4831 -1.2970
18586TIP3    H277174   1.243   3.401  16.662 -0.7177  1.2189  0.0925
18587TIP3   OH277175   6.196   5.372  12.586 -0.3442 -0.6759 -0.0145
18587TIP3    H177176   6.235   5.305  12.530  2.1587  0.8220 -0.2178
18587TIP3    H277177   6.175   5.326  12.668 -0.0717 -1.9942 -0.6616
18588TIP3   OH277178   0.442   1.040   3.647  0.2466 -0.0722  0.3749
18588TIP3    H177179   0.520   1.035   3.592  0.4443  0.0792  0.6415
18588TIP3    H277180   0.370   1.048   3.584  0.4023 -0.6326  0.1132
18589TIP3   OH277181   2.219   1.043   4.112  0.4104 -0.5415 -0.0112
18589TIP3    H177182   2.208   1.058   4.019  0.2902  0.2336  0.1234
18589TIP3    H277183   2.313   1.027   4.123  0.4362 -0.5535 -0.2506
18590TIP3   OH277184   5.260   3.810   4.860  0.1614  0.2038 -0.3490
18590TIP3    H177185   5.280   3.896   4.823  0.1750  0.5856  0.5011
18590TIP3    H277186   5.345   3.768   4.871  0.2445  0.5069  0.2056
18591TIP3   OH277187   6.735   3.835   5.794 -0.1526 -0.3780  0.1711
18591TIP3    H177188   6.690   3.751   5.787  0.0953 -0.4291 -1.1843
18591TIP3    H277189   6.677   3.897   5.749  0.5695 -0.2220 -0.5767
18592TIP3   OH277190   0.421   3.647  16.941 -0.0656 -0.5312  0.5928
18592TIP3    H177191   0.486   3.617  17.005  0.4872  2.8378  1.7751
18592TIP3    H277192   0.354   3.691  16.992 -0.2211  1.2380 -0.9934
18593TIP3   OH277193   2.681   5.878   6.104 -0.2957  0.2554  0.0409
18593TIP3    H177194   2.649   5.826   6.178  0.6397  0.1015  0.3428
18593TIP3    H277195   2.721   5.814   6.045  2.8254  0.7674  1.4054
18594TIP3   OH277196   1.889   3.784  16.200 -0.1271 -0.3316  0.6105
18594TIP3    H177197   1.977   3.795  16.236 -0.2579  2.0654  0.3738
18594TIP3    H277198   1.836   3.753  16.274  0.8007 -1.4530  0.8389
18595TIP3   OH277199   6.439   5.882   5.492  0.2456  0.1186 -0.1785
18595TIP3    H177200   6.482   5.960   5.456 -0.2503 -0.1366 -1.3780
18595TIP3    H277201   6.490   5.808   5.456 -0.1639 -0.1354 -0.2483
18596TIP3   OH277202   4.520   3.185  12.384  0.1147 -0.3956 -0.7249
18596TIP3    H177203   4.517   3.281  12.376 -0.5399 -0.4294 -0.9448
18596TIP3    H277204   4.598   3.160  12.333  0.6876  0.0671 -0.0913
18597TIP3   OH277205   0.190   3.196   1.778 -0.1603 -0.1117 -0.1777
18597TIP3    H177206   0.166   3.245   1.699 -1.7427 -0.0276  0.3058
18597TIP3    H277207   0.106   3.170   1.815  0.5232  0.3154  1.7724
18598TIP3   OH277208   3.924   6.396  12.797  0.0701 -0.0843  0.0437
18598TIP3    H177209   3.850   6.455  12.783  1.1558  1.1790 -0.6338
18598TIP3    H277210   3.962   6.426  12.880  1.5034  1.2206 -1.0203
18599TIP3   OH277211   3.007   6.430   0.436  0.1781 -0.2394  0.1974
18599TIP3    H177212   2.979   6.341   0.460 -0.1028 -0.0886  0.4404
18599TIP3    H277213   2.946   6.457   0.368 -0.1451  0.0067  0.5741
18600TIP3   OH277214   0.170   1.754   5.922  0.1443 -0.3456  0.1771
18600TIP3    H177215   0.261   1.729   5.936  0.1472 -2.0083 -2.2538
18600TIP3    H277216   0.119   1.691   5.974  0.3364  0.0328  0.8357
18601TIP3   OH277217   3.307   1.665  14.509 -0.1002  0.4793 -0.1000
18601TIP3    H177218   3.283   1.577  14.482 -0.1423  1.0694 -2.1172
18601TIP3    H277219   3.224   1.713  14.511 -0.2951  0.1770  2.4428
18602TIP3   OH277220   1.822   5.237   6.118  0.0568  0.1965  0.1281
18602TIP3    H177221   1.765   5.249   6.042  1.7916  0.8846 -1.1107
18602TIP3    H277222   1.787   5.159   6.162  0.1186 -1.3742 -2.4261
18603TIP3   OH277223   3.132   4.062  10.264  0.0862  0.0107  0.0307
18603TIP3    H177224   3.096   3.981  10.300 -0.1868 -0.1105 -0.5188
18603TIP3    H277225   3.163   4.110  10.341  0.7610 -0.8546  0.3171
18604TIP3   OH277226   4.160   4.965  11.447  0.0906  0.1804 -0.1142
18604TIP3    H177227   4.109   4.885  11.436  2.0046 -1.0772 -0.3412
18604TIP3    H277228   4.215   4.948  11.524  1.4614  0.7277 -0.9348
18605TIP3   OH277229   3.091   1.580   5.921  0.1039  0.2972 -0.1182
18605TIP3    H177230   3.112   1.527   5.998  1.4938 -1.4645 -1.6076
18605TIP3    H277231   3.161   1.645   5.916  1.3107 -1.0193 -1.0867
18606TIP3   OH277232   5.072   4.868  16.691  0.7384 -0.3532  0.3066
18606TIP3    H177233   5.083   4.919  16.771  0.6561 -0.3424  0.3098
18606TIP3    H277234   5.113   4.921  16.623  0.9417 -0.4317  0.3670
18607TIP3   OH277235   6.313   2.357   4.229  0.4083  0.1344 -0.6211
18607TIP3    H177236   6.332   2.303   4.305 -1.5138 -1.0550 -0.9092
18607TIP3    H277237   6.309   2.295   4.156 -1.6599  0.6358 -0.9942
18608TIP3   OH277238   4.562   1.506  13.971  0.4218 -0.0598  0.4431
18608TIP3    H177239   4.592   1.517  13.881 -1.4949  0.7552 -0.1480
18608TIP3    H277240   4.544   1.596  14.001  1.5441 -0.2746  1.8341
18609TIP3   OH277241   2.836   2.690  15.088  0.1449  0.1849 -0.1353
18609TIP3    H177242   2.831   2.732  15.174 -0.8623 -0.8177  0.3246
18609TIP3    H277243   2.890   2.612  15.102 -1.4252 -0.9225  0.0307
18610TIP3   OH277244   4.171   5.144   4.144  0.3321  0.2944  0.0008
18610TIP3    H177245   4.229   5.082   4.099 -0.1586  0.8598 -1.4793
18610TIP3    H277246   4.186   5.127   4.237  2.8117  0.3663 -0.3114
18611TIP3   OH277247   0.595   1.453   1.070  0.6331  0.1402 -0.6335
18611TIP3    H177248   0.632   1.413   0.992  0.8667 -0.9283  0.0113
18611TIP3    H277249   0.655   1.428   1.141 -0.9177 -1.0218  0.3146
18612TIP3   OH277250   1.258   0.418  14.535 -0.9618 -0.0488  0.0526
18612TIP3    H177251   1.332   0.421  14.475 -0.5788  1.5877  0.5444
18612TIP3    H277252   1.181   0.434  14.479 -0.4767  3.0196  0.1138
18613TIP3   OH277253   3.089   3.690   2.384  0.4845  0.3237 -0.5371
18613TIP3    H177254   3.172   3.731   2.360  0.0394  1.9038  0.4561
18613TIP3    H277255   3.023   3.758   2.369 -0.2597  0.0816  1.3574
18614TIP3   OH277256   6.364   5.716  14.758 -0.1563 -0.3424 -0.5870
18614TIP3    H177257   6.328   5.723  14.846  0.9100 -1.1632 -0.0547
18614TIP3    H277258   6.347   5.801  14.718 -0.3908  0.1506  0.5200
18615TIP3   OH277259   0.508   3.525   3.371  0.1481 -0.1443 -0.0419
18615TIP3    H177260   0.545   3.566   3.449 -0.0879 -0.8485  0.4538
18615TIP3    H277261   0.428   3.483   3.402  0.4662 -1.1086 -0.4885
18616TIP3   OH277262   5.656   2.738  11.124  0.2719  0.3651 -0.2030
18616TIP3    H177263   5.561   2.742  11.136  0.0284 -1.0079 -1.4331
18616TIP3    H277264   5.671   2.782  11.040  0.3025 -2.1575 -1.6151
18617TIP3   OH277265   4.192   4.947  12.441 -0.4505  0.3138 -0.4048
18617TIP3    H177266   4.138   4.963  12.519 -1.4990  1.1283 -1.2575
18617TIP3    H277267   4.239   5.029  12.428 -0.4301  0.2497 -0.7309
18618TIP3   OH277268   3.645   3.132  11.308  0.3111  0.2006  0.9421
18618TIP3    H177269   3.623   3.149  11.217 -1.2770  0.0855  1.2844
18618TIP3    H277270   3.594   3.196  11.358 -0.1708 -0.8377  1.8346
18619TIP3   OH277271   5.296   5.501   4.907 -0.3137  0.5306 -0.2117
18619TIP3    H177272   5.251   5.555   4.841 -0.4438  2.4277  1.3405
18619TIP3    H277273   5.240   5.425   4.918 -1.5057  1.3170 -0.6164
18620TIP3   OH277274   5.628   6.080   0.647 -0.0349 -0.1061  0.4936
18620TIP3    H177275   5.714   6.104   0.612  0.5461 -1.1673  1.1279
18620TIP3    H277276   5.567   6.097   0.575  0.5256  1.7557  0.4102
18621TIP3   OH277277   2.254   3.404   2.503  0.7217 -0.2703 -0.1727
18621TIP3    H177278   2.178   3.449   2.465 -0.1043 -0.3385  1.3102
18621TIP3    H277279   2.244   3.417   2.598  0.4571 -3.4992  0.3496
18622TIP3   OH277280   4.619   3.969   0.287 -0.1144 -0.6862 -0.7010
18622TIP3    H177281   4.704   4.010   0.305 -0.1111 -0.3909 -1.3516
18622TIP3    H277282   4.555   4.032   0.316 -0.1085 -0.2468 -1.6000
18623TIP3   OH277283   6.653   2.290   2.827  0.2122  0.2326  0.3542
18623TIP3    H177284   6.671   2.257   2.915 -0.5341 -1.5856 -0.1415
18623TIP3    H277285   6.570   2.336   2.835  0.0698 -0.0600  0.5783
18624TIP3   OH277286   2.571   5.411  13.177 -0.3742  0.3860  0.4582
18624TIP3    H177287   2.527   5.381  13.098 -0.5105  3.4473 -0.7728
18624TIP3    H277288   2.550   5.345  13.243 -1.3030 -1.6245 -1.7134
18625TIP3   OH277289   2.766   6.492  13.198  0.0518  0.0642  0.2813
18625TIP3    H177290   2.804   6.569  13.240  1.1355 -0.1517 -0.2621
18625TIP3    H277291   2.716   6.449  13.267 -1.4092  1.7766  0.3425
18626TIP3   OH277292   1.649   5.992  15.204 -0.0082 -0.1559  0.5444
18626TIP3    H177293   1.670   5.961  15.292 -0.5906  0.0483  0.7609
18626TIP3    H277294   1.733   6.019  15.168  0.2245 -0.1465  1.0792
18627TIP3   OH277295   6.135   2.471  12.497 -0.0897  0.1987 -0.5520
18627TIP3    H177296   6.198   2.542  12.509  0.2340 -0.0767 -0.5960
18627TIP3    H277297   6.156   2.410  12.568  0.4419 -0.4350 -1.2358
18628TIP3   OH277298   2.185   4.614   3.987  0.4630 -0.5422 -0.1334
18628TIP3    H177299   2.270   4.632   4.028  0.2442  2.0442 -0.5922
18628TIP3    H277300   2.128   4.684   4.020 -0.8502 -0.8768 -1.5838
18629TIP3   OH277301   5.707   1.063  16.884 -0.5398  0.0169 -0.5186
18629TIP3    H177302   5.671   0.981  16.853 -0.5877 -0.0449 -0.2989
18629TIP3    H277303   5.723   1.049  16.977  0.4044 -0.0829 -0.6895
18630TIP3   OH277304   6.626   4.991  13.338  0.0118 -0.1271 -0.2625
18630TIP3    H177305   6.580   4.988  13.421  2.0592 -0.4881  0.9318
18630TIP3    H277306   6.565   4.951  13.275 -0.8606 -1.6005  1.4416
18631TIP3   OH277307   5.370   2.891   5.175  0.1854  0.2618  1.0911
18631TIP3    H177308   5.409   2.971   5.140  0.4621 -0.1524  0.4235
18631TIP3    H277309   5.309   2.863   5.106  1.1072 -0.8450  0.7067
18632TIP3   OH277310   1.107   3.038  14.086 -0.1136 -0.4099 -0.3773
18632TIP3    H177311   1.059   3.120  14.091 -0.4209 -0.6643  1.2152
18632TIP3    H277312   1.186   3.052  14.139 -0.4271 -1.3013  0.3423
18633TIP3   OH277313   0.124   5.335  14.278  0.6819 -0.3780 -1.0017
18633TIP3    H177314   0.121   5.413  14.334  1.7659 -0.1522 -1.2286
18633TIP3    H277315   0.146   5.368  14.191  0.4510 -0.8748 -1.2565
18634TIP3   OH277316   3.306   3.425  16.535  0.6284  0.0595 -0.0447
18634TIP3    H177317   3.231   3.457  16.486  0.4806 -1.8291 -1.1773
18634TIP3    H277318   3.287   3.332  16.549  3.0889 -0.7034 -1.1532
18635TIP3   OH277319   5.272   4.064   2.724 -0.4811 -0.5979  0.7701
18635TIP3    H177320   5.364   4.076   2.700 -0.3923 -0.6010  1.1085
18635TIP3    H277321   5.274   3.995   2.790 -0.7718 -0.9254  0.4408
18636TIP3   OH277322   0.160   0.867  13.167 -0.6040 -0.0401 -0.5348
18636TIP3    H177323   0.251   0.838  13.161 -1.2007 -2.3904  0.5533
18636TIP3    H277324   0.155   0.912  13.252 -0.9720 -2.3952  0.7988
18637TIP3   OH277325   2.259   6.535   2.440 -0.2363 -0.0066 -0.0757
18637TIP3    H177326   2.350   6.552   2.463  0.1057 -0.3781 -1.1222
18637TIP3    H277327   2.224   6.621   2.417  0.1149 -0.0046 -0.5999
18638TIP3   OH277328   5.483   2.666  12.897  0.1005 -0.4665  0.3514
18638TIP3    H177329   5.444   2.750  12.876  2.1536  0.8746  1.5911
18638TIP3    H277330   5.532   2.642  12.818  0.5254  0.1418  0.4217
18639TIP3   OH277331   1.181   5.008  13.841 -0.4664 -0.4789 -0.1992
18639TIP3    H177332   1.192   5.057  13.759 -0.4064  0.2612  0.2438
18639TIP3    H277333   1.094   4.968  13.833 -1.2513  1.0861  0.1399
18640TIP3   OH277334   6.206   1.511  15.122  0.0083  0.1987 -0.3540
18640TIP3    H177335   6.169   1.537  15.207 -1.1710  0.6629 -0.9895
18640TIP3    H277336   6.287   1.562  15.116 -0.0718  0.4255  0.3396
18641TIP3   OH277337   5.418   2.363   4.467  0.6389  0.4592 -0.2367
18641TIP3    H177338   5.423   2.408   4.551  0.5860  2.9395 -1.4571
18641TIP3    H277339   5.335   2.394   4.429  0.2753 -1.2206 -0.9134
18642TIP3   OH277340   3.805   0.128   1.910 -0.4055  0.0638 -0.0873
18642TIP3    H177341   3.741   0.090   1.850 -1.4037 -0.7790  1.4570
18642TIP3    H277342   3.793   0.080   1.992  1.8234  0.2668  0.4292
18643TIP3   OH277343   0.475   1.988  11.049 -0.0355  0.4447  0.5094
18643TIP3    H177344   0.512   1.998  11.137 -0.7325  0.1761  0.8386
18643TIP3    H277345   0.479   1.894  11.031 -0.7653  0.3828  0.6455
18644TIP3   OH277346   3.174   0.434   4.283 -0.4142  0.0342 -0.4026
18644TIP3    H177347   3.254   0.383   4.294  1.1014  2.5458  1.3665
18644TIP3    H277348   3.107   0.370   4.258  1.9536 -2.2754 -1.2380
18645TIP3   OH277349   3.330   6.440   3.420 -0.2138 -0.6211  0.1381
18645TIP3    H177350   3.323   6.347   3.441  0.1693 -0.3704  1.4631
18645TIP3    H277351   3.266   6.483   3.477 -0.8929 -0.1150 -0.9565
18646TIP3   OH277352   2.002   1.625  11.597  0.0476 -0.1664 -0.3880
18646TIP3    H177353   2.085   1.672  11.607  0.1301 -0.2597 -0.6084
18646TIP3    H277354   1.946   1.686  11.549  0.0004 -0.1150 -0.2662
18647TIP3   OH277355   3.263   4.737   6.376  0.0175 -0.5104  0.2058
18647TIP3    H177356   3.170   4.761   6.374 -0.1762 -1.0894  1.3985
18647TIP3    H277357   3.309   4.820   6.388 -0.1930  0.0122 -2.0877
18648TIP3   OH277358   5.473   5.820  12.234 -0.0008  0.0248 -0.5869
18648TIP3    H177359   5.405   5.830  12.168  0.6609 -0.7913 -1.4285
18648TIP3    H277360   5.482   5.906  12.274 -1.6639  0.0866 -0.3101
18649TIP3   OH277361   3.790   4.430   3.438 -1.1058 -0.3203  0.0702
18649TIP3    H177362   3.736   4.457   3.364 -0.3536  1.4884  0.1148
18649TIP3    H277363   3.728   4.414   3.509 -1.9034 -2.7705 -1.0613
18650TIP3   OH277364   2.043   3.532  14.736  0.3771 -0.2525 -0.0027
18650TIP3    H177365   1.950   3.553  14.745  0.4827  0.0916  0.3209
18650TIP3    H277366   2.079   3.606  14.686  0.2379 -1.0179 -1.2864
18651TIP3   OH277367   5.645   6.579   4.464  0.0060  0.4499  0.1358
18651TIP3    H177368   5.586   6.539   4.400 -0.5838 -0.0574  0.9801
18651TIP3    H277369   5.593   6.584   4.544  1.4017 -0.9100  1.1869
18652TIP3   OH277370   5.893   0.404  14.647  0.0438 -0.2316 -0.2626
18652TIP3    H177371   5.956   0.343  14.688  1.0837 -0.1839 -1.6927
18652TIP3    H277372   5.818   0.403  14.705  0.9117 -1.2068  0.9124
18653TIP3   OH277373   5.222   1.952  11.470 -0.0891  0.0080 -0.2661
18653TIP3    H177374   5.286   2.003  11.421  1.2413 -0.1130  1.2742
18653TIP3    H277375   5.275   1.889  11.520 -1.4335 -0.4260  0.6615
18654TIP3   OH277376   1.495   1.344   4.374  0.1111  0.6511  0.2405
18654TIP3    H177377   1.432   1.413   4.394  1.9592  2.6008 -0.3936
18654TIP3    H277378   1.559   1.385   4.316  0.9590 -1.7798 -0.6642
18655TIP3   OH277379   2.550   5.585   3.736 -0.1768 -0.4345 -0.8829
18655TIP3    H177380   2.510   5.531   3.668 -1.5183 -1.4690  0.6506
18655TIP3    H277381   2.477   5.610   3.792  0.8930  0.3555  0.2094
18656TIP3   OH277382   4.832   6.777   1.607  0.7544  0.4903 -0.5392
18656TIP3    H177383   4.834   6.866   1.645 -0.8204 -0.6845  2.6932
18656TIP3    H277384   4.899   6.730   1.656  1.4919 -0.1865 -2.1522
18657TIP3   OH277385   5.168   0.899  12.914 -0.4080 -0.3955 -0.3355
18657TIP3    H177386   5.193   0.959  12.843  1.2716 -1.4209 -0.6602
18657TIP3    H277387   5.208   0.937  12.992  1.4204 -1.4963 -0.6861
18658TIP3   OH277388   0.252   5.305  15.409  0.0718 -0.5906  0.2197
18658TIP3    H177389   0.274   5.396  15.390 -0.4681 -1.0702 -3.4002
18658TIP3    H277390   0.319   5.276  15.471  1.1096  1.8135  0.3163
18659TIP3   OH277391   6.092   3.293  15.072 -0.1763 -0.0901  0.4135
18659TIP3    H177392   6.167   3.235  15.077 -1.3084 -1.6087  0.5370
18659TIP3    H277393   6.077   3.304  14.978  1.0478  1.4273  0.3543
18660TIP3   OH277394   0.166   3.220   2.791 -0.0027 -0.6239 -0.3488
18660TIP3    H177395   0.189   3.127   2.791 -0.7477 -0.8652  1.4826
18660TIP3    H277396   0.091   3.226   2.851 -1.3200  0.8700 -2.0088
18661TIP3   OH277397   3.481   4.266   0.533 -0.2797  0.5608 -0.1141
18661TIP3    H177398   3.531   4.299   0.608  1.0155  0.7408 -1.0151
18661TIP3    H277399   3.533   4.194   0.499 -2.1302 -1.2333  0.6691
18662TIP3   OH277400   6.167   4.261   1.095 -0.4964 -0.8062  0.4172
18662TIP3    H177401   6.196   4.170   1.101  1.1621 -0.2309  2.2478
18662TIP3    H277402   6.193   4.289   1.007 -0.4654 -1.8984  0.0626
18663TIP3   OH277403   4.277   2.853   1.144 -0.0821 -0.3850  0.5365
18663TIP3    H177404   4.370   2.832   1.137  0.8672  3.0854  1.1829
18663TIP3    H277405   4.253   2.886   1.058 -1.1472 -2.4214 -0.0189
18664TIP3   OH277406   4.814   4.210   6.094  0.8029  0.4018  0.8442
18664TIP3    H177407   4.826   4.276   6.162 -2.5188  0.1454  1.8555
18664TIP3    H277408   4.719   4.200   6.086  1.1128 -1.7469 -1.7611
18665TIP3   OH277409   1.784   2.408   1.647  0.3598 -0.3637  0.0472
18665TIP3    H177410   1.721   2.447   1.588  0.2908 -2.2969 -1.2549
18665TIP3    H277411   1.860   2.467   1.644 -0.1286  0.2390 -0.9600
18666TIP3   OH277412   5.628   4.058  12.049 -0.1387  0.6481  0.3553
18666TIP3    H177413   5.687   4.040  12.122 -1.3996  2.0198  1.7696
18666TIP3    H277414   5.569   4.127  12.081 -1.5484  0.4007 -1.5134
18667TIP3   OH277415   0.914   6.430   2.014 -0.5311  0.0882 -0.0964
18667TIP3    H177416   0.881   6.374   1.944 -2.2200 -1.2537  1.6761
18667TIP3    H277417   1.009   6.427   2.005 -0.5817 -2.5922 -0.4613
18668TIP3   OH277418   3.412   3.660  17.236 -0.1745 -0.0078 -0.0815
18668TIP3    H177419   3.374   3.630  17.153  0.2364  0.8652 -0.5990
18668TIP3    H277420   3.368   3.743  17.254 -0.4107 -0.2902  0.6947
18669TIP3   OH277421   4.115   0.788   5.118  0.2346 -0.1884  0.1242
18669TIP3    H177422   4.099   0.704   5.161 -1.0693  0.4294  0.9040
18669TIP3    H277423   4.140   0.764   5.028 -1.9186 -1.4004 -0.2242
18670TIP3   OH277424   5.971   2.729  14.693  0.4619 -0.4088  0.3384
18670TIP3    H177425   5.946   2.673  14.619  2.2520 -0.9484  0.0956
18670TIP3    H277426   5.970   2.670  14.769 -3.4653  0.5749  1.2915
18671TIP3   OH277427   1.576   6.465  11.059  0.2493  0.3224 -0.6990
18671TIP3    H177428   1.629   6.503  10.988  0.9075  0.5787 -0.0887
18671TIP3    H277429   1.622   6.492  11.139 -1.4559  1.5665 -0.0870
18672TIP3   OH277430   2.314   1.755   5.532  0.0718 -0.9799 -0.1899
18672TIP3    H177431   2.257   1.772   5.458 -1.4439 -2.0056  0.6960
18672TIP3    H277432   2.349   1.667   5.517  0.3778 -0.8809 -0.0716
18673TIP3   OH277433   2.895   6.578  12.223  0.5902  0.3750  0.3512
18673TIP3    H177434   2.928   6.582  12.312 -0.8926 -0.6101  0.9888
18673TIP3    H277435   2.868   6.487  12.211 -1.2156  0.9366 -0.3177
18674TIP3   OH277436   5.897   0.225  12.609  0.0871 -0.5923  0.0554
18674TIP3    H177437   5.919   0.312  12.576 -0.3113  0.1987  1.7961
18674TIP3    H277438   5.808   0.209  12.580 -0.4824  0.3602  1.1993
18675TIP3   OH277439   4.850   0.866  16.044 -0.2718  0.3339 -0.2135
18675TIP3    H177440   4.764   0.841  16.012 -1.4167  2.8117  0.6591
18675TIP3    H277441   4.863   0.955  16.011 -0.0741  1.7409  3.2341
18676TIP3   OH277442   4.329   6.597  11.810  0.4102  0.2141 -0.5549
18676TIP3    H177443   4.372   6.670  11.766 -1.0910  2.1920  1.0244
18676TIP3    H277444   4.261   6.568  11.750 -1.4758  2.7376  0.2099
18677TIP3   OH277445   3.696   3.278   3.015 -0.6170  0.7351  0.4629
18677TIP3    H177446   3.708   3.186   3.038 -0.4933  0.3248 -1.1199
18677TIP3    H277447   3.607   3.299   3.043 -0.6025  0.1775  0.9419
18678TIP3   OH277448   5.355   2.670  17.114  0.2270 -0.2042  0.3397
18678TIP3    H177449   5.434   2.633  17.074 -0.6611 -0.3837 -1.2955
18678TIP3    H277450   5.374   2.764  17.120  0.3330 -0.1597 -0.6136
18679TIP3   OH277451   3.237   2.041  15.163  0.0674  0.5781  0.4931
18679TIP3    H177452   3.279   2.033  15.249  1.0609 -0.9355 -0.0905
18679TIP3    H277453   3.305   2.014  15.101 -0.7831  1.1952 -0.7414
18680TIP3   OH277454   2.316   0.583   0.517  0.1507 -0.2557  0.5723
18680TIP3    H177455   2.408   0.557   0.512 -0.0015 -1.1632  1.9715
18680TIP3    H277456   2.319   0.676   0.539  0.7223 -0.3003  0.7088
18681TIP3   OH277457   5.247   2.561   4.642  0.5817 -0.0099 -0.1422
18681TIP3    H177458   5.193   2.482   4.650  1.3164 -0.4687  0.3566
18681TIP3    H277459   5.183   2.631   4.625  0.0230 -0.8664 -1.7297
18682TIP3   OH277460   1.587   1.210   2.677 -0.5795 -0.1337 -0.2678
18682TIP3    H177461   1.663   1.252   2.718 -0.1109 -1.9794  0.8506
18682TIP3    H277462   1.584   1.249   2.590 -0.8926  3.0623  1.0112
18683TIP3   OH277463   1.449   2.271   6.354 -0.1809  0.0173 -0.6053
18683TIP3    H177464   1.386   2.199   6.356  0.9784 -1.0360  1.8626
18683TIP3    H277465   1.531   2.230   6.327  0.2841  0.5820 -0.0846
18684TIP3   OH277466   2.507   5.098  14.496  0.4280 -0.4939  0.0097
18684TIP3    H177467   2.592   5.135  14.520  0.6497 -1.5179  0.9487
18684TIP3    H277468   2.468   5.073  14.580 -0.3795 -0.9214 -0.4794
18685TIP3   OH277469   1.903   6.008   1.275  0.1496 -0.3508 -0.2601
18685TIP3    H177470   1.996   6.030   1.281  0.5617 -1.1897 -2.4842
18685TIP3    H277471   1.865   6.081   1.225 -0.6465  0.4914  1.4751
18686TIP3   OH277472   6.070   4.813  15.379  1.1313  0.1285 -0.0546
18686TIP3    H177473   6.036   4.890  15.334 -1.1041 -0.8358 -0.1731
18686TIP3    H277474   6.142   4.783  15.325  1.3386  1.5143 -0.5856
18687TIP3   OH277475   5.262   3.071   6.332 -0.5005  0.5979  0.2690
18687TIP3    H177476   5.199   3.139   6.310  0.3105  1.0221 -0.8469
18687TIP3    H277477   5.287   3.033   6.247 -0.2380 -0.4461  0.7993
18688TIP3   OH277478   0.076   0.099   2.091  0.0678 -0.2939  0.2459
18688TIP3    H177479   0.037   0.177   2.051  0.2467 -0.5042 -0.3482
18688TIP3    H277480   0.012   0.030   2.077  0.7124 -0.6842 -0.8983
18689TIP3   OH277481   5.012   2.471  14.937  0.2577 -0.0183 -0.7119
18689TIP3    H177482   4.974   2.514  14.860  0.2160  1.8036  0.2529
18689TIP3    H277483   5.106   2.481  14.926  0.2629 -0.0238 -0.6756
18690TIP3   OH277484   4.035   4.723  14.920 -0.2118  0.2275 -0.3378
18690TIP3    H177485   4.121   4.693  14.949 -1.1057 -0.5084  1.7120
18690TIP3    H277486   4.019   4.674  14.839  0.7175 -0.6701 -0.0012
18691TIP3   OH277487   6.257   3.224   0.327  0.1096 -0.0527 -0.0265
18691TIP3    H177488   6.328   3.202   0.386 -0.4132  0.2440  0.7362
18691TIP3    H277489   6.202   3.285   0.378 -0.3451  0.2104 -0.8164
18692TIP3   OH277490   4.957   3.828  13.003 -0.8557  0.6286 -0.4723
18692TIP3    H177491   4.933   3.914  13.040  0.6476  0.3557  1.2893
18692TIP3    H277492   4.994   3.849  12.917 -0.0135  1.8408  0.1447
18693TIP3   OH277493   3.383   0.605  16.335  0.1009 -0.8438 -0.1119
18693TIP3    H177494   3.440   0.551  16.390 -0.4393 -0.8014  0.5166
18693TIP3    H277495   3.300   0.557  16.333 -0.1355 -0.4379 -0.2075
18694TIP3   OH277496   2.270   4.132   5.576  0.4100 -0.2268 -0.1430
18694TIP3    H177497   2.322   4.132   5.656 -1.9782 -0.1025  1.5203
18694TIP3    H277498   2.207   4.202   5.589  0.1345 -0.0144 -2.2996
18695TIP3   OH277499   6.564   0.181   1.773  0.0527 -0.0835 -0.1666
18695TIP3    H177500   6.499   0.220   1.714 -1.9572 -0.0197  1.9688
18695TIP3    H277501   6.572   0.090   1.743 -1.0006 -0.0865 -0.4704
18696TIP3   OH277502   0.209   0.482   0.306 -0.5688 -0.3601  0.4693
18696TIP3    H177503   0.134   0.432   0.336 -1.4651  1.2052  0.9555
18696TIP3    H277504   0.171   0.561   0.267  0.7333 -0.5433 -1.2880
18697TIP3   OH277505   0.523   1.559   0.325 -0.3773 -0.4881 -0.2931
18697TIP3    H177506   0.580   1.630   0.352 -0.5519 -0.2224 -0.6065
18697TIP3    H277507   0.442   1.603   0.296 -0.8587 -0.8723  0.4386
18698TIP3   OH277508   4.865   6.422  15.149 -0.3442 -0.2640 -0.0693
18698TIP3    H177509   4.885   6.491  15.087  0.3710  0.5420  1.0190
18698TIP3    H277510   4.919   6.442  15.225 -0.8669 -1.4672  0.6467
18699TIP3   OH277511   1.399   2.496   1.329  0.9541 -0.4302  0.4612
18699TIP3    H177512   1.360   2.437   1.265  1.2957 -0.8359  0.6239
18699TIP3    H277513   1.371   2.462   1.414 -1.2066  1.2887  0.5130
18700TIP3   OH277514   2.483   3.795  16.775 -0.2260  0.4374  0.0440
18700TIP3    H177515   2.442   3.861  16.719  1.0125 -0.1101 -1.6058
18700TIP3    H277516   2.563   3.836  16.807 -1.5896  1.2441  2.6634
18701TIP3   OH277517   3.637   5.748  10.481  0.2430 -0.0292  0.1099
18701TIP3    H177518   3.628   5.717  10.390 -3.1620  1.4111 -0.1850
18701TIP3    H277519   3.620   5.670  10.534  0.0607 -0.4222 -0.5123
18702TIP3   OH277520   1.572   0.356   5.308 -0.4792 -0.2529  0.1276
18702TIP3    H177521   1.572   0.295   5.382  0.2854  0.6964  0.9326
18702TIP3    H277522   1.520   0.431   5.337  0.6133  0.5455  0.0863
18703TIP3   OH277523   5.439   5.987   4.763  0.4454 -0.0086  0.3101
18703TIP3    H177524   5.466   5.969   4.853  1.3612  0.3551  0.1198
18703TIP3    H277525   5.352   6.024   4.771  0.5237  0.0326  1.0528
18704TIP3   OH277526   5.433   4.708   1.516  0.7360  0.1221 -0.1983
18704TIP3    H177527   5.378   4.704   1.594  0.0673  0.5937 -0.6300
18704TIP3    H277528   5.434   4.801   1.494  1.2896  0.0462 -0.4944
18705TIP3   OH277529   3.142   0.529   0.798  0.0178 -0.4733 -0.1718
18705TIP3    H177530   3.175   0.440   0.810  0.9379 -0.4080 -1.9018
18705TIP3    H277531   3.056   0.528   0.840 -0.0102 -2.1977 -0.1902
18706TIP3   OH277532   3.261   0.622   0.509  0.6653 -0.6162 -0.1794
18706TIP3    H177533   3.341   0.573   0.527  0.1210 -1.3121  0.4038
18706TIP3    H277534   3.210   0.564   0.453 -0.9248 -1.7496  2.2266
18707TIP3   OH277535   4.499   0.163   3.050 -0.5444  0.0324  0.1270
18707TIP3    H177536   4.502   0.258   3.045  0.6080 -0.0151 -0.4064
18707TIP3    H277537   4.414   0.143   3.090 -0.0419  1.3625  2.0004
18708TIP3   OH277538   1.799   3.275  14.761  0.4926 -0.2459 -0.7615
18708TIP3    H177539   1.800   3.231  14.676  1.6387 -0.8564 -0.4591
18708TIP3    H277540   1.871   3.234  14.810  1.1162  1.4412 -0.1938
18709TIP3   OH277541   3.754   1.912   5.222 -0.4045 -0.2148  0.3788
18709TIP3    H177542   3.715   1.963   5.152 -3.8685 -2.3338  0.5067
18709TIP3    H277543   3.814   1.852   5.178 -1.8768 -0.9163 -0.7856
18710TIP3   OH277544   1.907   2.690   6.872  0.3338 -0.2767 -0.5572
18710TIP3    H177545   1.859   2.736   6.803 -0.2778 -0.9133 -0.5564
18710TIP3    H277546   1.891   2.597   6.856 -1.4575 -0.4199  1.5706
18711TIP3   OH277547   1.465   6.235  14.577  0.0644  0.7174 -0.1512
18711TIP3    H177548   1.547   6.267  14.540  0.1746  0.5319 -0.0730
18711TIP3    H277549   1.401   6.244  14.507  0.7765 -1.8487 -1.2421
18712TIP3   OH277550   1.705   5.461  12.249 -0.1306  0.4227  0.0519
18712TIP3    H177551   1.775   5.493  12.191  0.0779  0.6596  0.4330
18712TIP3    H277552   1.630   5.447  12.191  0.1115  0.5528 -0.2941
18713TIP3   OH277553   1.539   5.120  11.314  0.0066  0.1939  0.6044
18713TIP3    H177554   1.557   5.198  11.366  1.4042 -0.3651  1.0027
18713TIP3    H277555   1.613   5.114  11.253 -0.4834 -0.3861  0.0507
18714TIP3   OH277556   6.737   5.430   4.582  0.3786 -0.7053  0.3559
18714TIP3    H177557   6.762   5.480   4.659 -0.2679 -1.3028  0.9698
18714TIP3    H277558   6.687   5.356   4.616 -1.4745 -0.0282 -0.7321
18715TIP3   OH277559   5.230   1.046  15.712  0.0831 -0.2212  0.8272
18715TIP3    H177560   5.272   0.970  15.673  0.2995  0.1258  0.3680
18715TIP3    H277561   5.303   1.103  15.738 -0.0821  0.2102  0.3781
18716TIP3   OH277562   3.985   3.877   5.254  0.5592  0.1039  0.8260
18716TIP3    H177563   4.000   3.887   5.348  2.9289  1.6332  0.3800
18716TIP3    H277564   4.052   3.815   5.225 -1.2515 -1.7112  0.3577
18717TIP3   OH277565   4.474   5.251  10.764  0.0291 -0.8017  0.0464
18717TIP3    H177566   4.407   5.246  10.695 -0.4399 -0.2301  0.4526
18717TIP3    H277567   4.431   5.298  10.835  1.4468  1.2062 -0.3642
18718TIP3   OH277568   6.278   0.906  16.094  0.4798 -0.4730 -0.2640
18718TIP3    H177569   6.300   0.888  16.185 -0.3085  0.0419  0.0401
18718TIP3    H277570   6.349   0.961  16.062  1.6141 -1.9900 -0.4711
18719TIP3   OH277571   5.537   3.480  15.951  0.2336 -0.1475  0.0077
18719TIP3    H177572   5.543   3.483  15.856  0.0817  0.2283  0.0082
18719TIP3    H277573   5.601   3.413  15.978  0.4755 -0.0513 -0.3357
18720TIP3   OH277574   2.362   6.411   1.548  0.5035  0.4835  0.2536
18720TIP3    H177575   2.365   6.407   1.644  0.1860 -3.1764  0.2580
18720TIP3    H277576   2.282   6.363   1.525  0.9645  0.6409 -1.8510
18721TIP3   OH277577   2.565   5.944  15.853  0.5216  0.1264  0.3910
18721TIP3    H177578   2.554   5.954  15.947 -0.7408 -1.4140  0.4527
18721TIP3    H277579   2.476   5.945  15.817  0.8136 -1.4562 -0.4979
18722TIP3   OH277580   6.488   5.173   0.389  0.0831 -0.4396  1.0133
18722TIP3    H177581   6.526   5.257   0.416  1.6945 -1.2144  1.3158
18722TIP3    H277582   6.466   5.129   0.470 -0.4031 -0.4642  0.8686
18723TIP3   OH277583   1.202   2.627  13.614 -0.1279  0.3397  0.3533
18723TIP3    H177584   1.205   2.722  13.612  1.9507  0.3013 -1.1387
18723TIP3    H277585   1.201   2.601  13.522  2.4989 -1.0749  0.6299
18724TIP3   OH277586   2.267   5.940   4.686 -0.4393 -0.0078 -0.2763
18724TIP3    H177587   2.334   5.980   4.740 -0.0468 -2.4213  1.1681
18724TIP3    H277588   2.298   5.951   4.596  0.7997  0.7602  0.2270
18725TIP3   OH277589   2.775   4.406  11.584  0.0393 -0.1742  0.0439
18725TIP3    H177590   2.755   4.451  11.666  0.7452 -1.2734  0.8470
18725TIP3    H277591   2.690   4.391  11.543 -0.3340  0.2599  0.6539
18726TIP3   OH277592   4.767   0.915   1.950 -0.4835 -0.2263 -0.4311
18726TIP3    H177593   4.687   0.863   1.943 -1.1353  0.4345  1.5295
18726TIP3    H277594   4.831   0.856   1.990  0.3715 -1.0346 -2.7673
18727TIP3   OH277595   3.147   3.225  11.613 -0.3584  0.4896  0.3521
18727TIP3    H177596   3.102   3.210  11.530 -0.6002  0.4145  0.4971
18727TIP3    H277597   3.128   3.147  11.665  1.5325 -0.4814 -0.2906
18728TIP3   OH277598   5.101   3.976   4.095 -0.0826 -0.0881 -0.2677
18728TIP3    H177599   5.143   4.027   4.025 -0.8542  0.4767 -0.3323
18728TIP3    H277600   5.166   3.910   4.118  0.9748  0.9486 -0.1593
18729TIP3   OH277601   4.634   0.682  16.924  0.0366  1.1894  0.0376
18729TIP3    H177602   4.552   0.704  16.880 -0.6431  0.6933  1.0177
18729TIP3    H277603   4.698   0.745  16.890 -0.3945  0.7115 -1.7916
18730TIP3   OH277604   5.492   6.112  13.408 -0.4658 -0.0727 -0.7651
18730TIP3    H177605   5.410   6.078  13.372 -0.8092 -1.9530  1.5864
18730TIP3    H277606   5.560   6.063  13.361 -0.6544  1.0132 -2.2451
18731TIP3   OH277607   4.905   4.673   0.066 -0.2341 -0.3900  0.5003
18731TIP3    H177608   4.887   4.653   0.158  0.9423 -0.0798  0.8114
18731TIP3    H277609   4.898   4.589   0.022 -0.2541 -0.6352  0.9632
18732TIP3   OH277610   0.293   3.862  12.039  0.4696 -0.7324 -0.2996
18732TIP3    H177611   0.311   3.925  12.109 -0.0588 -0.1566 -0.6733
18732TIP3    H277612   0.243   3.792  12.082  1.6302 -1.2617  0.2661
18733TIP3   OH277613   4.366   5.474   5.291 -0.4215  0.1044 -0.2785
18733TIP3    H177614   4.382   5.450   5.382 -2.4603 -1.4982 -0.2720
18733TIP3    H277615   4.373   5.569   5.290 -1.6598  0.2931  1.8820
18734TIP3   OH277616   6.115   1.406  12.075  0.3921  0.0678 -0.6828
18734TIP3    H177617   6.022   1.405  12.095  0.7811 -1.9888  1.4278
18734TIP3    H277618   6.156   1.441  12.155  1.4156  1.9272 -1.9464
18735TIP3   OH277619   1.978   4.535   1.038  0.3829 -0.3638 -0.5927
18735TIP3    H177620   2.018   4.496   0.960  1.5822 -0.4540  0.0592
18735TIP3    H277621   2.042   4.521   1.108 -0.3328  0.4263  0.2380
18736TIP3   OH277622   0.278   3.929   5.251 -0.1495 -0.3301 -0.3272
18736TIP3    H177623   0.237   4.002   5.296 -1.2480 -0.9269 -0.3122
18736TIP3    H277624   0.240   3.851   5.292  0.5213 -0.8986 -0.7601
18737TIP3   OH277625   1.220   3.569   3.244 -0.0709  0.5443  0.0433
18737TIP3    H177626   1.134   3.605   3.269 -0.5155 -0.2823 -0.2473
18737TIP3    H277627   1.200   3.506   3.175  0.5878 -0.8487  1.0689
18738TIP3   OH277628   6.533   6.450  15.677 -0.4922  0.3093 -0.7308
18738TIP3    H177629   6.474   6.506  15.626 -0.6487 -0.8525 -1.8833
18738TIP3    H277630   6.506   6.361  15.655  0.2535 -0.2301  0.4608
18739TIP3   OH277631   3.544   6.001   1.810 -0.0818  0.0007  0.1191
18739TIP3    H177632   3.605   6.075   1.811 -0.0001 -0.0641 -0.0906
18739TIP3    H277633   3.504   6.004   1.723  2.0416 -1.9287 -1.0433
18740TIP3   OH277634   6.307   5.384   0.262  0.4580  0.0541  0.0238
18740TIP3    H177635   6.357   5.381   0.181 -0.8747  1.4671 -0.9148
18740TIP3    H277636   6.236   5.446   0.244 -0.9563 -1.0043  1.6626
18741TIP3   OH277637   0.881   2.117  11.550 -0.1936 -0.5649 -0.4474
18741TIP3    H177638   0.821   2.172  11.499  0.1120  0.2129  0.0238
18741TIP3    H277639   0.827   2.042  11.577 -0.8104 -0.1399 -0.4842
18742TIP3   OH277640   3.486   1.667   5.387  0.3566  0.1025 -0.2312
18742TIP3    H177641   3.455   1.592   5.336 -1.4169  0.1854  0.6410
18742TIP3    H277642   3.483   1.740   5.326  0.1554 -0.1685 -0.5556
18743TIP3   OH277643   6.282   6.402  11.353  0.1910  0.6267  0.3921
18743TIP3    H177644   6.207   6.443  11.311  0.7796  0.3813 -0.9583
18743TIP3    H277645   6.266   6.308  11.345  1.1915  0.5424 -1.0191
18744TIP3   OH277646   0.997   2.400   4.747 -0.0080  0.4336  0.9402
18744TIP3    H177647   1.083   2.406   4.706 -0.3743 -2.6636 -0.5198
18744TIP3    H277648   0.942   2.357   4.682 -1.7126 -0.9083  3.1273
18745TIP3   OH277649   4.110   6.421   0.022 -0.0166 -0.3937 -0.2063
18745TIP3    H177650   4.097   6.390   0.111 -0.1904 -1.4825 -0.5883
18745TIP3    H277651   4.072   6.508   0.020 -1.2953 -0.9231  0.4186
18746TIP3   OH277652   1.148   6.141   4.423 -0.1326 -0.0355 -0.2288
18746TIP3    H177653   1.076   6.123   4.364  0.3696  0.0065 -0.8685
18746TIP3    H277654   1.226   6.110   4.376  0.2793  0.0737  0.3720
18747TIP3   OH277655   2.338   1.495   2.662  0.5123 -0.0903  0.0691
18747TIP3    H177656   2.293   1.463   2.741  0.6449 -1.3636 -0.3473
18747TIP3    H277657   2.329   1.424   2.599  0.3828  0.9269 -1.0935
18748TIP3   OH277658   1.912   1.389   0.955  0.0013  0.5062  0.1285
18748TIP3    H177659   1.847   1.441   1.001 -0.4669 -0.7333  0.9240
18748TIP3    H277660   1.862   1.344   0.887  0.8001  2.8974 -2.2177
18749TIP3   OH277661   4.809   4.972   1.477  0.0881  0.4276 -0.2681
18749TIP3    H177662   4.820   5.059   1.439  1.3648  1.1277  1.5177
18749TIP3    H277663   4.725   4.942   1.445 -0.6133  2.5326 -0.5846
18750TIP3   OH277664   6.085   2.649  16.344  0.1874  0.0328 -0.2450
18750TIP3    H177665   6.079   2.564  16.302  0.9817  0.5841 -1.5355
18750TIP3    H277666   6.042   2.637  16.429  1.3781 -1.9831  0.1391
18751TIP3   OH277667   1.206   6.749  17.293 -0.2587  0.0949 -0.6726
18751TIP3    H177668   1.155   6.820  17.331 -1.2198 -0.3779 -1.0524
18751TIP3    H277669   1.231   6.781  17.206 -1.5880 -0.4093 -1.2690
18752TIP3   OH277670   6.657   2.402  13.537  0.1094 -0.3108  0.3579
18752TIP3    H177671   6.571   2.400  13.495 -0.7719 -0.5829  2.0585
18752TIP3    H277672   6.688   2.492  13.526 -0.8918  0.0785  0.6266
18753TIP3   OH277673   1.216   2.613  13.342  0.1982  0.3011 -0.9117
18753TIP3    H177674   1.246   2.564  13.266  1.9419 -0.6212  0.2923
18753TIP3    H277675   1.136   2.657  13.313  0.2966 -0.7695 -2.9622
18754TIP3   OH277676   1.080   6.307   2.394 -0.4716 -0.4692 -0.0812
18754TIP3    H177677   1.071   6.381   2.452  2.2314 -0.5329  0.5649
18754TIP3    H277678   0.998   6.259   2.402 -1.3202  1.1362  1.3396
18755TIP3   OH277679   4.120   3.063   4.977  0.8473 -0.3383  0.1675
18755TIP3    H177680   4.066   2.989   5.003 -1.3613  0.1585 -2.5315
18755TIP3    H277681   4.066   3.140   4.993  1.4240  0.3345 -0.9577
18756TIP3   OH277682   1.456   0.119  15.431  0.2673 -0.4242 -0.3194
18756TIP3    H177683   1.436   0.176  15.357 -0.3327 -0.6972 -0.3722
18756TIP3    H277684   1.552   0.120  15.437  0.4078 -1.4489 -1.9165
18757TIP3   OH277685   6.695   5.523   0.289 -0.5524 -0.4145  0.1556
18757TIP3    H177686   6.772   5.547   0.237  1.3375 -2.0512  2.0280
18757TIP3    H277687   6.649   5.605   0.302  0.4051  0.5003 -1.6943
18758TIP3   OH277688   1.902   1.133  12.250 -0.1377  0.2116  0.2854
18758TIP3    H177689   1.867   1.048  12.278  0.4640 -0.7915 -1.7813
18758TIP3    H277690   1.919   1.180  12.331 -0.6921 -1.5615  1.4892
18759TIP3   OH277691   2.184   4.063  14.310  0.0642 -0.5579  0.1763
18759TIP3    H177692   2.255   4.107  14.358 -0.1416 -0.1503  0.1034
18759TIP3    H277693   2.144   4.005  14.375 -0.6479  0.4869  0.7003
18760TIP3   OH277694   4.232   1.137  12.920  0.2704  0.4744  0.2301
18760TIP3    H177695   4.308   1.126  12.977 -1.5423  0.8875  2.9117
18760TIP3    H277696   4.187   1.215  12.954 -1.3147  0.3062 -1.3200
18761TIP3   OH277697   5.704   1.029  17.160  0.1225  0.6820 -0.1291
18761TIP3    H177698   5.662   0.967  17.219  0.5361 -0.2944 -0.8268
18761TIP3    H277699   5.739   1.097  17.218  1.9775 -1.0911  0.9810
18762TIP3   OH277700   6.736   5.724  11.865 -0.2750  0.3579  0.3628
18762TIP3    H177701   6.772   5.638  11.889  2.3295  1.1854 -0.2801
18762TIP3    H277702   6.753   5.779  11.941 -0.5868  0.6835  0.1987
18763TIP3   OH277703   4.922   4.426  12.159 -0.2961 -0.0936 -0.9574
18763TIP3    H177704   4.936   4.496  12.223 -0.2574 -1.2172  0.3365
18763TIP3    H277705   4.829   4.432  12.136  0.1848  1.7859 -2.6544
18764TIP3   OH277706   5.057   0.397   4.400  0.2154 -0.2603  0.1808
18764TIP3    H177707   5.096   0.411   4.487  1.2446 -2.9908  0.2399
18764TIP3    H277708   4.979   0.452   4.401  1.8846  2.3406  1.5628
18765TIP3   OH277709   0.829   6.491  16.264  0.0541  0.0718 -0.1261
18765TIP3    H177710   0.832   6.572  16.315  1.4420  0.2153 -0.3997
18765TIP3    H277711   0.873   6.427  16.319  0.9553  0.0615 -0.8326
18766TIP3   OH277712   3.745   5.948   4.955 -0.0371 -0.3059  0.0316
18766TIP3    H177713   3.818   5.893   4.982 -0.4011 -0.7350  0.1449
18766TIP3    H277714   3.769   5.980   4.868 -0.8344 -2.5084 -1.0686
18767TIP3   OH277715   1.828   0.656  17.315 -0.8777  0.1460 -0.5276
18767TIP3    H177716   1.858   0.743  17.289  0.0314  0.7662  2.2349
18767TIP3    H277717   1.889   0.596  17.273 -1.1636  0.8337 -1.9919
18768TIP3   OH277718   6.516   1.583  16.667 -0.0745 -0.3066  0.3949
18768TIP3    H177719   6.526   1.506  16.611  1.0082 -0.9944  1.4734
18768TIP3    H277720   6.590   1.639  16.645  0.0163 -0.3000  0.7102
18769TIP3   OH277721   0.401   5.921   1.134 -0.2947 -0.6238 -0.0092
18769TIP3    H177722   0.468   5.854   1.121 -0.7763 -1.5017  1.7663
18769TIP3    H277723   0.447   5.992   1.180 -0.1143 -0.3314 -0.6334
18770TIP3   OH277724   5.141   5.154   0.775 -0.0805 -0.1490 -0.3224
18770TIP3    H177725   5.181   5.177   0.691  0.6656 -1.4163 -0.3440
18770TIP3    H277726   5.086   5.078   0.756  1.9237 -1.9731  0.7020
18771TIP3   OH277727   3.639   4.334   1.220  0.1264 -0.5415 -0.0377
18771TIP3    H177728   3.582   4.257   1.224 -1.4062  0.5478 -0.1050
18771TIP3    H277729   3.647   4.354   1.127 -1.0349  0.4585  0.0523
18772TIP3   OH277730   4.924   1.171  13.269  0.0070  0.3967  0.5563
18772TIP3    H177731   4.908   1.105  13.336 -1.6657  1.0848  0.8746
18772TIP3    H277732   4.986   1.129  13.209 -0.3197 -1.1136  1.2207
18773TIP3   OH277733   0.469   1.679   4.065  0.2596  0.3348  0.2537
18773TIP3    H177734   0.444   1.648   3.978  3.0402 -1.1594 -0.1315
18773TIP3    H277735   0.411   1.633   4.125  0.0384 -0.6426 -0.6893
18774TIP3   OH277736   0.579   3.024   2.450  0.8037 -0.2464  0.1432
18774TIP3    H177737   0.543   2.957   2.508  0.8608  0.3672  0.8992
18774TIP3    H277738   0.639   3.074   2.506 -1.8164  2.6582  0.5813
18775TIP3   OH277739   0.304   0.741  14.684  0.1207  0.1146 -0.2239
18775TIP3    H177740   0.220   0.781  14.708  0.7003  1.7216 -0.7251
18775TIP3    H277741   0.366   0.775  14.749  0.7511  0.5521 -1.0346
18776TIP3   OH277742   2.330   1.810  13.731  0.2204 -0.0298  0.5195
18776TIP3    H177743   2.245   1.764  13.726 -0.0529  0.5623 -0.7624
18776TIP3    H277744   2.308   1.901  13.713  1.2295 -0.0112 -0.7294
18777TIP3   OH277745   1.091   4.770  14.040 -0.1214  0.7368 -0.2688
18777TIP3    H177746   1.175   4.771  13.995 -0.6603  1.3209 -1.3097
18777TIP3    H277747   1.026   4.770  13.970 -1.0502 -2.7496  0.4074
18778TIP3   OH277748   2.539   3.747   4.277  0.2379  0.0204  0.2498
18778TIP3    H177749   2.569   3.834   4.303  3.2504 -0.5596 -0.9067
18778TIP3    H277750   2.496   3.761   4.193  1.7928  0.2959 -0.5320
18779TIP3   OH277751   5.444   4.505  11.349 -0.7540 -0.0584 -0.0749
18779TIP3    H177752   5.534   4.537  11.349 -0.6538 -0.3326 -0.0653
18779TIP3    H277753   5.408   4.536  11.266 -1.0812  1.2225  0.5257
18780TIP3   OH277754   2.925   3.311  14.830 -0.1869 -0.2197 -0.0609
18780TIP3    H177755   2.904   3.228  14.874 -1.1883  1.2011  2.3473
18780TIP3    H277756   2.992   3.351  14.886  0.9129  0.2589 -1.6563
18781TIP3   OH277757   2.668   2.332   6.137  0.0730  0.1349 -0.3087
18781TIP3    H177758   2.613   2.310   6.062  0.5461  0.2359 -0.6886
18781TIP3    H277759   2.629   2.283   6.210 -0.8627  0.6602 -0.4406
18782TIP3   OH277760   6.571   4.361   5.255 -0.7150 -0.3938  0.4329
18782TIP3    H177761   6.552   4.439   5.308  0.1986  1.1696 -1.4194
18782TIP3    H277762   6.497   4.353   5.196  0.7424  1.2866 -1.7796
18783TIP3   OH277763   2.799   5.111  13.033 -0.4830 -0.4757 -0.5578
18783TIP3    H177764   2.889   5.081  13.018 -0.3308 -0.6923  0.6882
18783TIP3    H277765   2.807   5.174  13.104 -0.8196  2.4411 -2.9111
18784TIP3   OH277766   2.403   3.352   3.963 -0.0337  0.5106 -0.2843
18784TIP3    H177767   2.422   3.272   3.914  1.3423  0.4719  0.2635
18784TIP3    H277768   2.418   3.328   4.055  0.3580  1.3766 -0.1130
18785TIP3   OH277769   1.965   4.520  13.208  0.4146  0.2110  0.7221
18785TIP3    H177770   2.024   4.516  13.133 -0.8328 -2.6768 -0.2304
18785TIP3    H277771   2.014   4.478  13.279 -0.3449 -2.1558 -0.0580
18786TIP3   OH277772   3.242   0.156   4.424  0.0557 -0.4368 -0.1978
18786TIP3    H177773   3.249   0.165   4.519 -0.2198  0.7795 -0.2725
18786TIP3    H277774   3.168   0.097   4.411  0.1618 -0.6948  0.3395
18787TIP3   OH277775   4.257   0.744  14.207 -0.0403 -0.1182 -0.2932
18787TIP3    H177776   4.187   0.754  14.272 -1.4512 -0.6327 -1.6888
18787TIP3    H277777   4.216   0.765  14.124  1.6341  0.1207 -1.0991
18788TIP3   OH277778   0.677   3.040   0.868  0.9126 -0.0840 -0.7331
18788TIP3    H177779   0.663   3.135   0.873  1.8612  0.1220 -1.6174
18788TIP3    H277780   0.592   3.003   0.890  0.9346  0.9136  1.2875
18789TIP3   OH277781   3.857   4.734  13.819 -0.6940  0.0061 -0.5544
18789TIP3    H177782   3.877   4.686  13.739 -1.3967 -0.3668 -0.5138
18789TIP3    H277783   3.767   4.709  13.840 -0.3783 -0.2387  0.5857
18790TIP3   OH277784   0.348   4.715  11.636  0.3344  0.0423 -0.1063
18790TIP3    H177785   0.334   4.642  11.696  0.4525  1.1066  1.2707
18790TIP3    H277786   0.260   4.751  11.622  0.5282  1.0236  1.0701
18791TIP3   OH277787   6.424   5.134   5.433  0.4319 -0.3202 -0.4886
18791TIP3    H177788   6.416   5.159   5.525  1.0620 -0.1147 -0.4904
18791TIP3    H277789   6.340   5.160   5.394  0.3697  0.0889 -0.0899
18792TIP3   OH277790   3.838   5.439   3.559 -0.5473 -0.3404 -0.3072
18792TIP3    H177791   3.867   5.349   3.548  2.4883  0.5276 -0.4427
18792TIP3    H277792   3.869   5.464   3.646 -0.4878  0.8136 -0.6381
18793TIP3   OH277793   5.373   6.492   0.881 -0.0316 -0.1702 -0.4192
18793TIP3    H177794   5.433   6.464   0.812 -1.7425 -2.0223 -1.2519
18793TIP3    H277795   5.405   6.448   0.960 -0.1383 -0.9878 -0.8159
18794TIP3   OH277796   3.975   3.194  13.797 -0.4600  0.4251  0.1689
18794TIP3    H177797   3.991   3.100  13.796 -1.5807  0.2112 -1.2361
18794TIP3    H277798   3.895   3.205  13.848 -0.1294  0.6572  0.6410
18795TIP3   OH277799   3.109   5.693   1.699 -0.2184  0.1321  0.2805
18795TIP3    H177800   3.093   5.607   1.738 -0.7219 -0.0236 -0.2521
18795TIP3    H277801   3.200   5.713   1.720 -0.4613  0.0399  1.5005
18796TIP3   OH277802   0.425   1.141   4.022  0.5802  0.5024  0.3637
18796TIP3    H177803   0.350   1.120   4.078  0.3463  3.2120  1.1897
18796TIP3    H277804   0.387   1.164   3.938  0.4733  1.4732  0.6620
18797TIP3   OH277805   5.490   3.138   6.130  0.5740  0.5431  0.4924
18797TIP3    H177806   5.502   3.185   6.213 -0.1278  1.4780  0.0727
18797TIP3    H277807   5.401   3.158   6.103  0.3263 -0.8593  0.1755
18798TIP3   OH277808   2.746   3.017   1.903 -0.1453  0.0416 -0.6319
18798TIP3    H177809   2.737   3.096   1.850  0.5070 -0.5633 -1.6937
18798TIP3    H277810   2.673   2.961   1.876 -0.4085  0.1432 -0.1347
18799TIP3   OH277811   3.837   4.930  16.712  0.3994 -0.3006  0.4347
18799TIP3    H177812   3.799   4.946  16.799 -0.0015  1.6937 -0.0772
18799TIP3    H277813   3.919   4.981  16.712 -0.5001  1.2239 -0.9628
18800TIP3   OH277814   2.087   3.134   4.262  0.6369  0.0250 -0.1803
18800TIP3    H177815   2.056   3.195   4.195 -1.3752  0.6775  1.2429
18800TIP3    H277816   2.096   3.188   4.341 -0.2025 -1.2969  0.8563
18801TIP3   OH277817   2.534   4.783   1.706  0.4390  0.2786  0.0493
18801TIP3    H177818   2.602   4.728   1.744  1.3679  0.3635 -1.3928
18801TIP3    H277819   2.581   4.857   1.667 -0.5366  0.6632 -0.4482
18802TIP3   OH277820   5.387   6.649  14.985 -0.6475 -0.1964 -0.2496
18802TIP3    H177821   5.383   6.717  14.917  0.8922  1.5134  1.2418
18802TIP3    H277822   5.464   6.597  14.961 -0.1381  0.3711  0.1177
18803TIP3   OH277823   6.281   6.718  11.377 -0.3956 -0.1071 -0.2137
18803TIP3    H177824   6.274   6.633  11.421  0.1340  0.4347  0.9617
18803TIP3    H277825   6.309   6.696  11.288 -0.4859 -1.1740  0.0032
18804TIP3   OH277826   3.404   3.587  11.444  0.0783  0.4227 -0.0666
18804TIP3    H177827   3.381   3.510  11.496  1.2920  1.2014  1.7743
18804TIP3    H277828   3.419   3.554  11.356 -1.6104 -1.0620  0.1488
18805TIP3   OH277829   2.342   6.631  14.770  0.0171  0.4060 -0.1171
18805TIP3    H177830   2.310   6.541  14.766  1.9854 -0.3293 -0.3934
18805TIP3    H277831   2.313   6.671  14.688 -1.5765  0.3052  0.3711
18806TIP3   OH277832   2.128   4.876   3.362  0.0311 -0.4551 -0.3600
18806TIP3    H177833   2.045   4.922   3.376 -0.0480 -0.2686 -1.3686
18806TIP3    H277834   2.142   4.879   3.268  1.1142 -0.6178 -0.2238
18807TIP3   OH277835   1.620   3.826  15.124  0.0319  0.1673 -0.2758
18807TIP3    H177836   1.532   3.846  15.093 -0.1697  3.0875  1.7984
18807TIP3    H277837   1.616   3.840  15.219  2.4995 -0.6657  0.0408
18808TIP3   OH277838   0.084   0.395   4.534 -0.1719  0.1940  0.2189
18808TIP3    H177839   0.003   0.356   4.502  0.3387 -0.1772 -0.6589
18808TIP3    H277840   0.080   0.487   4.508  0.5472 -0.2466 -1.6114
18809TIP3   OH277841   1.397   3.809  12.066  0.2589 -0.5080 -0.6706
18809TIP3    H177842   1.304   3.827  12.080  0.9607  0.8546  4.0624
18809TIP3    H277843   1.432   3.889  12.028  0.0236  0.4305  1.0245
18810TIP3   OH277844   5.458   0.455   2.783  0.2063  0.5422 -0.0842
18810TIP3    H177845   5.370   0.437   2.751 -0.4903  1.8004  1.0084
18810TIP3    H277846   5.481   0.378   2.834 -0.5117  0.4515  0.1142
18811TIP3   OH277847   5.926   0.183   0.088 -0.4718 -0.1590 -0.3316
18811TIP3    H177848   5.921   0.241   0.164 -1.6445  1.7335 -1.7658
18811TIP3    H277849   5.868   0.109   0.111 -1.2371  0.6470  0.4137
18812TIP3   OH277850   2.946   0.916  13.153 -0.1698  0.4853  0.3898
18812TIP3    H177851   2.886   0.843  13.166 -0.0882  0.5056  0.9313
18812TIP3    H277852   3.001   0.916  13.232  2.6012 -1.3925 -1.3821
18813TIP3   OH277853   2.227   3.945   0.353 -0.3557  0.3558 -0.1192
18813TIP3    H177854   2.150   3.889   0.348  1.2936 -2.1662  0.7159
18813TIP3    H277855   2.274   3.929   0.271  0.5646 -0.1912  0.4986
18814TIP3   OH277856   6.520   0.080   6.083  0.0784  0.2550  0.3149
18814TIP3    H177857   6.597   0.051   6.133  0.7728  0.8907 -0.3487
18814TIP3    H277858   6.469   0.132   6.146 -1.6645 -2.9687  1.7990
18815TIP3   OH277859   1.377   3.362   3.929 -0.3585 -0.3053 -0.0924
18815TIP3    H177860   1.302   3.304   3.912 -0.3327 -0.2048 -0.5724
18815TIP3    H277861   1.338   3.449   3.937 -0.2581 -0.1966 -0.7277
18816TIP3   OH277862   0.691   6.440  14.569 -0.5529 -0.4677  0.2517
18816TIP3    H177863   0.755   6.484  14.513 -1.3070  0.0684 -0.2082
18816TIP3    H277864   0.721   6.349  14.574  0.1552 -0.2563 -0.0771
18817TIP3   OH277865   0.652   5.055  16.739  0.4835  0.3051 -0.5246
18817TIP3    H177866   0.745   5.079  16.733  0.7560 -0.7096 -0.5109
18817TIP3    H277867   0.620   5.059  16.649  0.7267 -0.0797 -0.6270
18818TIP3   OH277868   2.670   4.531  16.046  0.1560  0.1104 -0.0504
18818TIP3    H177869   2.701   4.526  15.956  0.5375  2.0857 -0.0568
18818TIP3    H277870   2.644   4.441  16.067  3.3272 -1.1542 -0.9429
18819TIP3   OH277871   6.371   0.591   1.770  0.6939 -0.6307 -0.3632
18819TIP3    H177872   6.394   0.526   1.704  1.6682 -0.5762 -0.0937
18819TIP3    H277873   6.402   0.674   1.734  1.7684 -0.6789  0.3955
18820TIP3   OH277874   6.159   6.253  17.304 -0.3361 -0.2189  0.2217
18820TIP3    H177875   6.153   6.192  17.231  1.1750 -1.2102  0.8723
18820TIP3    H277876   6.145   6.339  17.265 -2.0878 -0.9061 -0.7763
18821TIP3   OH277877   4.299   1.628   1.486  0.2325 -0.3010  0.0033
18821TIP3    H177878   4.205   1.643   1.495 -0.0390 -1.0543 -1.2689
18821TIP3    H277879   4.318   1.652   1.395  1.3538  0.2084  0.3603
18822TIP3   OH277880   2.561   0.456  15.526 -0.1400  0.0747 -0.3448
18822TIP3    H177881   2.494   0.483  15.589  1.2224  0.4874  0.9941
18822TIP3    H277882   2.521   0.472  15.441 -1.1695  1.8581  0.4101
18823TIP3   OH277883   6.179   3.831  17.072  0.0357  0.3717  0.1190
18823TIP3    H177884   6.114   3.848  17.141 -1.1402 -0.1309 -0.8317
18823TIP3    H277885   6.194   3.737  17.076  2.7815  0.7676  2.0847
18824TIP3   OH277886   6.112   0.722  12.427 -0.4852  0.2125 -0.2065
18824TIP3    H177887   6.179   0.785  12.399  0.2015  0.3264  1.5022
18824TIP3    H277888   6.149   0.684  12.507 -1.7215 -1.0112 -0.1903
18825TIP3   OH277889   0.341   0.109   4.056 -0.4952  0.2530  0.4230
18825TIP3    H177890   0.311   0.187   4.008 -1.9136  0.7049  1.9597
18825TIP3    H277891   0.265   0.080   4.106  0.3804 -1.3676  0.8993
18826TIP3   OH277892   5.014   6.207  15.373 -0.1517  0.1490 -0.4066
18826TIP3    H177893   4.981   6.199  15.284  1.2703  0.3013 -0.9680
18826TIP3    H277894   5.108   6.222  15.363  0.1035 -0.2420  1.1313
18827TIP3   OH277895   0.551   1.201   0.664 -0.1269 -0.5415 -0.0333
18827TIP3    H177896   0.477   1.255   0.692  0.8325  0.2213  1.1060
18827TIP3    H277897   0.568   1.229   0.574  0.5723  1.3577  0.6396
18828TIP3   OH277898   4.703   5.643  15.088  0.6924  0.2645 -0.6619
18828TIP3    H177899   4.611   5.625  15.109  0.4300  0.5480 -1.5166
18828TIP3    H277900   4.704   5.736  15.066  1.5495  0.7376  1.1757
18829TIP3   OH277901   6.200   1.930   4.563 -0.2335  0.5578  0.1642
18829TIP3    H177902   6.211   1.928   4.658 -0.5830  0.8889  0.2157
18829TIP3    H277903   6.242   1.850   4.532 -2.9596 -1.2924  0.9161
18830TIP3   OH277904   5.537   0.322   3.926  0.2302 -0.7256  0.1858
18830TIP3    H177905   5.530   0.330   3.830  0.4118 -0.7807  0.1670
18830TIP3    H277906   5.484   0.245   3.947 -0.8744  0.0448  0.2792
18831TIP3   OH277907   4.920   4.997  14.637 -0.5422 -0.3570 -0.4633
18831TIP3    H177908   5.006   5.017  14.675  1.1090 -2.2397 -2.8984
18831TIP3    H277909   4.883   5.082  14.615  0.5924  0.5144  0.8130
18832TIP3   OH277910   1.796   0.561  11.231 -0.1493  0.0641 -0.1392
18832TIP3    H177911   1.742   0.485  11.212 -0.0235 -0.0257 -0.1344
18832TIP3    H277912   1.858   0.532  11.297  0.9021 -0.2745 -1.2267
18833TIP3   OH277913   1.320   4.964   3.833 -0.2855  0.0402 -0.3662
18833TIP3    H177914   1.370   4.898   3.785  2.7824  1.7699  0.1841
18833TIP3    H277915   1.356   5.048   3.803 -2.7456  1.4188  0.3016
18834TIP3   OH277916   1.139   1.872  14.802  0.2689 -0.7185  0.1763
18834TIP3    H177917   1.123   1.778  14.794 -0.0728 -0.5870 -0.8032
18834TIP3    H277918   1.052   1.911  14.802  0.4167 -0.3835  0.4484
18835TIP3   OH277919   0.985   3.755  13.853 -0.2904 -0.4992 -0.5737
18835TIP3    H177920   0.900   3.750  13.896  0.2065  0.4726  0.5797
18835TIP3    H277921   1.029   3.830  13.894  1.7442 -1.9341  0.0295
18836TIP3   OH277922   4.119   4.082  17.106  0.3025 -0.2332 -0.1610
18836TIP3    H177923   4.093   4.020  17.038 -2.1026  1.4904 -0.9337
18836TIP3    H277924   4.065   4.058  17.182  0.2044  0.1889 -0.0951
18837TIP3   OH277925   4.022   5.485   4.391  0.9515 -0.0089 -0.0207
18837TIP3    H177926   3.982   5.486   4.478 -0.1229  0.6297 -0.4960
18837TIP3    H277927   3.960   5.434   4.338  0.8691  0.7969 -0.7207
18838TIP3   OH277928   0.895   0.844  13.246 -0.5484  0.4959 -0.4986
18838TIP3    H177929   0.884   0.749  13.234  0.6427  0.3524 -0.6443
18838TIP3    H277930   0.962   0.868  13.182  0.4725  1.0987  0.7515
18839TIP3   OH277931   1.174   5.816   0.623 -0.2727  0.0887 -0.0633
18839TIP3    H177932   1.116   5.765   0.679  0.5421  0.6560  1.3687
18839TIP3    H277933   1.221   5.873   0.684  0.7809  0.6199 -1.3285
18840TIP3   OH277934   6.222   3.435   1.487 -0.3863  0.4874 -0.2901
18840TIP3    H177935   6.314   3.450   1.510  0.0209  0.2046 -1.6363
18840TIP3    H277936   6.175   3.509   1.527  0.1404 -0.3079  1.9533
18841TIP3   OH277937   6.628   4.357   2.712  0.0815 -0.0367  0.3560
18841TIP3    H177938   6.679   4.437   2.697 -0.8896  0.9477  1.9306
18841TIP3    H277939   6.541   4.389   2.736 -0.6634 -1.6256 -0.1056
18842TIP3   OH277940   4.911   6.142   6.140 -0.2607  0.4299  0.3638
18842TIP3    H177941   4.826   6.097   6.133  0.0519 -0.1036 -0.0588
18842TIP3    H277942   4.942   6.121   6.228  1.0278 -2.2862 -0.6378
18843TIP3   OH277943   5.151   0.961  11.775 -0.5283 -0.7439  0.4714
18843TIP3    H177944   5.173   0.973  11.867  1.0334 -0.0665  0.0529
18843TIP3    H277945   5.108   1.042  11.750  1.9614  0.5050 -0.1341
18844TIP3   OH277946   0.387   4.264  14.415 -0.9719 -0.2298  0.1062
18844TIP3    H177947   0.446   4.216  14.357 -1.2913  0.8979 -1.1917
18844TIP3    H277948   0.419   4.354  14.414 -2.9879  0.5481 -1.0806
18845TIP3   OH277949   5.597   3.828   1.818  0.6234  0.0598  0.5787
18845TIP3    H177950   5.646   3.759   1.862 -1.4559 -1.3199  0.9070
18845TIP3    H277951   5.605   3.808   1.725 -0.4803 -1.0881  0.6894
18846TIP3   OH277952   2.058   0.640  15.636  0.1640  0.0962  0.1509
18846TIP3    H177953   2.039   0.550  15.664 -3.0022  0.0595 -1.5812
18846TIP3    H277954   2.027   0.695  15.708  2.5324 -0.0914  1.4199
18847TIP3   OH277955   2.651   4.249   2.727  0.2562 -0.0638 -0.3544
18847TIP3    H177956   2.719   4.273   2.791  0.1484 -0.5909 -0.0313
18847TIP3    H277957   2.697   4.247   2.643  0.2694  1.2282 -0.3938
18848TIP3   OH277958   6.039   1.100   3.357 -0.0579  0.4427 -0.3372
18848TIP3    H177959   5.965   1.083   3.415  0.0508 -0.3763 -0.4158
18848TIP3    H277960   6.092   1.165   3.403 -1.9700  2.8536 -1.3058
18849TIP3   OH277961   3.989   4.366   3.283 -0.5513 -0.0447 -0.0003
18849TIP3    H177962   3.924   4.317   3.234 -1.0400 -0.1477  0.7412
18849TIP3    H277963   3.946   4.388   3.366 -0.2122  1.3097 -0.1601
18850TIP3   OH277964   3.181   3.835   1.958 -0.4419  0.5152 -0.3683
18850TIP3    H177965   3.275   3.824   1.944 -0.7414  0.3134 -2.4398
18850TIP3    H277966   3.175   3.896   2.032  1.3092  0.8334 -0.4429
18851TIP3   OH277967   5.629   2.913   6.042  0.2421 -0.0732  0.1561
18851TIP3    H177968   5.716   2.950   6.032 -0.1878  0.7939 -0.5717
18851TIP3    H277969   5.574   2.987   6.069 -0.1738 -0.7254  1.1681
18852TIP3   OH277970   6.282   5.831  15.322 -0.8240  0.4236 -0.1099
18852TIP3    H177971   6.265   5.922  15.297 -0.7487 -0.0792 -2.1421
18852TIP3    H277972   6.253   5.780  15.247  0.5171 -1.1430  0.3925
18853TIP3   OH277973   0.042   3.834   6.312  0.0741  0.0234  0.2343
18853TIP3    H177974   0.065   3.747   6.343 -0.7401 -0.6621 -0.9936
18853TIP3    H277975  -0.051   3.842   6.331 -0.4870 -0.4701 -2.0116
18854TIP3   OH277976   1.011   2.788  11.309  0.1248 -0.0664  0.1747
18854TIP3    H177977   0.934   2.815  11.259 -0.5793  0.1298  1.3190
18854TIP3    H277978   1.055   2.724  11.253 -1.2600 -0.7097 -0.2267
18855TIP3   OH277979   0.019   3.663   4.346  0.0995 -0.3453  0.2282
18855TIP3    H177980  -0.064   3.621   4.368 -0.7817 -0.1374 -2.3641
18855TIP3    H277981   0.012   3.751   4.383 -0.4891 -0.5863  0.7036
18856TIP3   OH277982   4.487   2.161   0.369 -0.3150  0.6911 -0.4345
18856TIP3    H177983   4.508   2.178   0.461 -2.4685 -1.6932  0.6335
18856TIP3    H277984   4.539   2.084   0.346  0.8271  1.7506 -1.5282
18857TIP3   OH277985   5.873   3.042   2.029 -0.3977 -0.7580 -0.2290
18857TIP3    H177986   5.811   3.097   1.981  0.9919  2.9174  1.8068
18857TIP3    H277987   5.846   3.048   2.121  2.0104 -0.2803  0.5311
18858TIP3   OH277988   5.373   4.511   2.624  0.1138  0.4660 -0.4921
18858TIP3    H177989   5.294   4.523   2.677  0.1160  0.7828 -0.5559
18858TIP3    H277990   5.415   4.598   2.624 -0.3665  0.7178 -1.7587
18859TIP3   OH277991   6.587   3.655  15.372 -0.6107  0.3104 -0.2849
18859TIP3    H177992   6.627   3.652  15.285  0.1381 -2.2651  0.0800
18859TIP3    H277993   6.548   3.568  15.384  1.4891 -0.3686  2.8944
18860TIP3   OH277994   0.399   5.409   4.358 -0.4524  0.3769  0.1435
18860TIP3    H177995   0.473   5.348   4.349 -0.6817  0.1642 -0.3258
18860TIP3    H277996   0.321   5.353   4.353 -0.6401  0.4356  1.8739
18861TIP3   OH277997   1.222   5.149   0.411  0.0938 -0.4365  0.1848
18861TIP3    H177998   1.178   5.073   0.450 -0.3322 -0.7909 -0.9515
18861TIP3    H277999   1.172   5.167   0.331  0.7942  0.4261 -0.0682
18862TIP3   OH278000   1.892   4.351  11.255 -0.1567  0.4653 -0.4693
18862TIP3    H178001   1.821   4.314  11.203 -1.4192  0.4781  1.1627
18862TIP3    H278002   1.942   4.404  11.193 -1.1616 -0.0875 -1.8043
18863TIP3   OH278003   3.975   6.618  12.423 -0.1253 -0.6301 -0.0295
18863TIP3    H178004   3.888   6.590  12.454  0.0277 -0.6565  0.3912
18863TIP3    H278005   3.958   6.662  12.340 -0.6426  0.0798  0.4354
18864TIP3   OH278006   3.836   2.475  13.755 -0.1963 -0.1301  0.4573
18864TIP3    H178007   3.892   2.411  13.798 -0.0873 -0.6418 -0.4103
18864TIP3    H278008   3.774   2.422  13.705  0.1000  0.4274 -0.5281
18865TIP3   OH278009   4.318   3.223   6.634 -0.5439 -0.1515 -0.1711
18865TIP3    H178010   4.412   3.233   6.619 -0.8515  3.9478 -0.4546
18865TIP3    H278011   4.310   3.138   6.678  3.1081 -1.1465 -1.0432
18866TIP3   OH278012   0.309   0.283   1.185 -0.2271 -0.4187  0.6529
18866TIP3    H178013   0.369   0.352   1.213 -0.2798  0.4550 -1.2628
18866TIP3    H278014   0.287   0.237   1.266  0.5097  1.2402  1.8567
18867TIP3   OH278015   5.289   6.042   1.468  0.1460 -0.7018 -0.0581
18867TIP3    H178016   5.279   6.042   1.372  0.1836  0.2951 -0.0717
18867TIP3    H278017   5.242   6.120   1.497  0.5194 -0.7494  0.6975
18868TIP3   OH278018   2.138   2.896   4.590 -0.3670 -0.4347  0.2409
18868TIP3    H178019   2.192   2.818   4.599  1.1065  0.3849 -1.0202
18868TIP3    H278020   2.122   2.905   4.496 -0.3041  0.8860  0.3279
18869TIP3   OH278021   3.022   2.614  11.963  0.1359  0.5977  0.1253
18869TIP3    H178022   2.992   2.666  12.038  0.0463 -0.2176  0.6687
18869TIP3    H278023   3.006   2.524  11.989  2.0100  0.1796 -0.0166
18870TIP3   OH278024   2.357   5.833   3.864 -0.1599 -0.4092  0.2107
18870TIP3    H178025   2.273   5.877   3.876 -0.8129 -1.6334  0.2353
18870TIP3    H278026   2.415   5.902   3.832 -0.9608  0.6340  0.9088
18871TIP3   OH278027   5.066   5.476  11.520  0.3365  0.0852 -0.1126
18871TIP3    H178028   5.092   5.418  11.591 -0.4726 -0.9266 -0.6178
18871TIP3    H278029   5.063   5.419  11.443 -1.7385  0.4864 -0.3798
18872TIP3   OH278030   0.332   5.783  11.895 -0.2152 -0.3057 -0.0812
18872TIP3    H178031   0.278   5.746  11.965  1.1914 -0.8075  0.7678
18872TIP3    H278032   0.410   5.816  11.939  0.1663  0.4705 -1.2782
18873TIP3   OH278033   5.456   0.232  12.305 -0.2026  0.4809  0.0139
18873TIP3    H178034   5.370   0.194  12.321 -1.2558  1.8348 -1.9785
18873TIP3    H278035   5.489   0.256  12.392 -1.2708 -1.1512  0.9176
18874TIP3   OH278036   3.814   2.127  14.124 -0.0078 -0.0731 -0.1111
18874TIP3    H178037   3.732   2.162  14.160  0.0584  0.2827 -0.2971
18874TIP3    H278038   3.874   2.124  14.199 -0.3919 -0.9743  0.1676
18875TIP3   OH278039   1.841   0.461  11.894  1.4067 -0.1592 -0.0824
18875TIP3    H178040   1.836   0.513  11.975 -1.3611 -1.6524  0.8261
18875TIP3    H278041   1.765   0.488  11.843  1.5261 -1.3029 -0.8888
18876TIP3   OH278042   0.875   4.724   0.884  0.3864  0.1018  0.0508
18876TIP3    H178043   0.958   4.702   0.925  0.8928  1.3295 -0.2659
18876TIP3    H278044   0.837   4.791   0.941 -0.8517 -1.1134  0.7079
18877TIP3   OH278045   1.978   4.718  11.919 -0.0281  0.1525  0.1061
18877TIP3    H178046   1.994   4.652  11.853  1.2186  1.0272 -0.5090
18877TIP3    H278047   1.938   4.791  11.872 -0.3253  0.2873  0.5571
18878TIP3   OH278048   1.014   4.563   6.240  0.4860  0.0972  0.4521
18878TIP3    H178049   1.101   4.568   6.200  0.2109 -0.6644 -0.2848
18878TIP3    H278050   1.009   4.475   6.277 -0.0846  0.0199  0.2089
18879TIP3   OH278051   5.100   6.023   5.625 -0.2527 -0.4596  0.0703
18879TIP3    H178052   5.182   6.021   5.575  0.3866  0.3813  1.0453
18879TIP3    H278053   5.090   6.114   5.652 -0.2933 -0.9495  1.8873
18880TIP3   OH278054   0.550   2.287   4.639  0.2137  0.0389 -0.5429
18880TIP3    H178055   0.509   2.284   4.553 -1.3832 -1.1872  0.2103
18880TIP3    H278056   0.490   2.336   4.694 -0.0132 -1.2595  0.4358
18881TIP3   OH278057   5.900   3.380  15.659 -0.4690 -0.3012  0.0483
18881TIP3    H178058   5.857   3.339  15.584  0.6028 -0.3081 -0.5846
18881TIP3    H278059   5.933   3.463  15.625 -1.5815  0.5575  1.0073
18882TIP3   OH278060   0.771   1.458  15.699  0.5828  0.1080  0.3158
18882TIP3    H178061   0.735   1.472  15.786 -2.2033 -0.7325 -0.5868
18882TIP3    H278062   0.713   1.507  15.641  1.2050 -0.8956 -1.2297
18883TIP3   OH278063   1.478   1.173  15.286 -0.3123 -0.6919  0.2439
18883TIP3    H178064   1.400   1.224  15.308  1.1473  0.8041  2.4416
18883TIP3    H278065   1.463   1.143  15.197 -1.8401  2.5752 -0.7543
18884TIP3   OH278066   5.995   3.659   3.064  0.1605 -0.2831 -0.1184
18884TIP3    H178067   6.010   3.746   3.027  0.4411 -0.3362 -0.1272
18884TIP3    H278068   6.060   3.603   3.022  0.6877 -0.2859  0.6903
18885TIP3   OH278069   2.780   4.566   2.625  0.2854 -0.1872 -0.1946
18885TIP3    H178070   2.712   4.504   2.650 -1.3422  1.0134 -1.4163
18885TIP3    H278071   2.811   4.534   2.541 -1.0492  0.9556 -1.1673
18886TIP3   OH278072   4.833   5.337   4.506 -0.1299 -0.0700  0.0495
18886TIP3    H178073   4.787   5.263   4.466 -0.5931 -0.0577  0.5562
18886TIP3    H278074   4.845   5.312   4.597  0.4601  0.1251  0.0291
18887TIP3   OH278075   1.518   3.771  10.858 -0.3166  0.2777  0.4539
18887TIP3    H178076   1.486   3.715  10.787 -0.1990 -0.0512  0.6584
18887TIP3    H278077   1.446   3.832  10.874 -0.2279  0.5414 -0.1464
18888TIP3   OH278078   4.792   5.912   4.688 -0.4428 -0.6235  0.2424
18888TIP3    H178079   4.781   5.818   4.700  2.0679 -1.0247 -0.2014
18888TIP3    H278080   4.853   5.920   4.615  0.1072  1.3427  0.8572
18889TIP3   OH278081   2.058   5.050  12.039 -0.1389  0.5473 -0.1855
18889TIP3    H178082   2.117   5.106  12.091 -0.3316  0.2791  0.3331
18889TIP3    H278083   2.093   5.054  11.950  1.5394 -0.7696  0.3713
18890TIP3   OH278084   5.771   5.598   6.142  0.2126 -0.4421 -0.0398
18890TIP3    H178085   5.791   5.686   6.175  3.6495 -0.1867 -2.3788
18890TIP3    H278086   5.689   5.609   6.095 -0.1066  1.1970  0.7998
18891TIP3   OH278087   0.178   2.235  10.844 -0.1176 -0.4211 -0.0097
18891TIP3    H178088   0.099   2.285  10.822  0.4395  0.3913 -0.2093
18891TIP3    H278089   0.167   2.152  10.797 -0.7614 -0.2420 -0.1903
18892TIP3   OH278090   3.912   4.640   4.652 -0.4786 -0.1373 -0.1660
18892TIP3    H178091   3.821   4.670   4.661 -0.2057  1.2581 -1.5367
18892TIP3    H278092   3.948   4.647   4.740 -1.7508 -0.9839  0.4619
18893TIP3   OH278093   0.121   1.861  12.100 -0.6383  0.0479 -0.7507
18893TIP3    H178094   0.107   1.931  12.164  0.5178 -0.7387  0.4125
18893TIP3    H278095   0.085   1.783  12.141 -2.1054 -0.0503 -2.1278
18894TIP3   OH278096   0.126   4.127  14.586 -0.1630 -0.6549  0.2785
18894TIP3    H178097   0.169   4.207  14.618 -3.0656  1.3883 -0.4624
18894TIP3    H278098   0.085   4.089  14.664 -0.5280 -0.1979  0.3175
18895TIP3   OH278099   2.328   5.405  11.826  0.1279 -0.1448 -0.4637
18895TIP3    H178100   2.351   5.338  11.890  1.3518 -0.9295 -1.6724
18895TIP3    H278101   2.399   5.403  11.762 -0.4435  1.4499 -1.2111
18896TIP3   OH278102   4.206   5.104   2.594  0.4853  0.1754 -0.1656
18896TIP3    H178103   4.245   5.046   2.659  1.3637  0.0141 -0.8081
18896TIP3    H278104   4.113   5.108   2.617  0.4434 -1.2850  0.0474
18897TIP3   OH278105   0.010   1.179  11.721 -0.2951  0.4262 -0.0377
18897TIP3    H178106   0.048   1.093  11.704  0.9717  0.4310  2.3915
18897TIP3    H278107  -0.081   1.161  11.748 -0.6091  0.0344 -1.3069
18898TIP3   OH278108   4.700   2.466  15.064  0.1041 -0.2374 -0.6463
18898TIP3    H178109   4.612   2.477  15.029  0.1134 -2.0656 -1.3540
18898TIP3    H278110   4.758   2.496  14.994  0.0740 -2.1236 -1.5513
18899TIP3   OH278111   4.920   2.561   4.529 -0.2536 -0.2332  0.3826
18899TIP3    H178112   4.848   2.576   4.467 -0.2348 -1.8732 -0.0792
18899TIP3    H278113   4.877   2.521   4.605  0.1767 -1.3826  0.0345
18900TIP3   OH278114   1.815   6.615  12.264 -0.1316  0.7820 -0.3666
18900TIP3    H178115   1.722   6.615  12.240  0.2045 -0.1276 -1.8274
18900TIP3    H278116   1.856   6.674  12.201  0.7194 -1.3014 -1.9022
18901TIP3   OH278117   4.481   1.622   5.377  0.2502  0.0471 -0.2863
18901TIP3    H178118   4.522   1.703   5.407  1.8317  0.1781 -2.4990
18901TIP3    H278119   4.458   1.639   5.286  0.6519 -1.9772 -0.8240
18902TIP3   OH278120   4.212   0.424   5.512 -0.3624  0.3011 -0.0132
18902TIP3    H178121   4.255   0.481   5.575  0.0216  0.5571 -0.5002
18902TIP3    H278122   4.221   0.336   5.549 -0.5296  0.4994  0.5017
18903TIP3   OH278123   4.989   4.259  13.621 -0.0750 -0.1179 -0.2721
18903TIP3    H178124   4.930   4.212  13.680  0.5502 -0.7862 -0.1759
18903TIP3    H278125   4.982   4.211  13.538 -0.8122  0.7073 -0.7127
18904TIP3   OH278126   4.046   4.945  12.986 -0.4490 -0.6719 -0.0775
18904TIP3    H178127   4.101   5.012  13.026  0.3784 -2.1657  1.3851
18904TIP3    H278128   3.964   4.947  13.036 -0.4880 -0.6302 -0.1434
18905TIP3   OH278129   6.343   2.102   4.113 -0.8343  0.1853  0.2426
18905TIP3    H178130   6.274   2.072   4.173  1.4764 -1.2439  2.3826
18905TIP3    H278131   6.359   2.028   4.055 -0.9767  0.4693 -0.1677
18906TIP3   OH278132   5.955   1.485   5.849 -0.1375 -0.3648 -0.2544
18906TIP3    H178133   6.003   1.562   5.878  0.9636 -1.2935  0.5049
18906TIP3    H278134   5.872   1.490   5.895  0.0196  0.2481 -0.0227
18907TIP3   OH278135   6.727   2.696   2.079 -0.1314  0.2427 -0.1424
18907TIP3    H178136   6.802   2.735   2.035  1.8731 -2.9530  0.1861
18907TIP3    H278137   6.670   2.665   2.008  0.3766 -0.0473 -0.4234
18908TIP3   OH278138   6.299   4.113   1.360  0.4174 -0.0409 -0.0369
18908TIP3    H178139   6.294   4.209   1.355 -0.6694 -0.0980 -0.3977
18908TIP3    H278140   6.272   4.084   1.273  2.2921 -0.6563 -0.4417
18909TIP3   OH278141   6.018   0.532   0.953 -0.6118 -0.0892 -0.7500
18909TIP3    H178142   5.985   0.617   0.926 -1.1559 -0.3260 -0.8362
18909TIP3    H278143   5.964   0.506   1.027  0.5642  0.3332  0.2999
18910TIP3   OH278144   6.593   5.080   2.048  0.4915  0.2284  0.1294
18910TIP3    H178145   6.675   5.117   2.081  0.2398 -0.5278  1.6939
18910TIP3    H278146   6.591   4.992   2.084 -0.7784  0.0633 -0.3130
18911TIP3   OH278147   0.784   3.184   6.583  0.6060  0.0266  0.4430
18911TIP3    H178148   0.705   3.132   6.598 -0.1492  0.4159 -1.7328
18911TIP3    H278149   0.764   3.269   6.621  0.6989 -0.4078  1.4761
18912TIP3   OH278150   4.152   6.544  12.736 -0.1664 -0.2551  0.0119
18912TIP3    H178151   4.080   6.481  12.738  0.0986 -0.5763 -0.4596
18912TIP3    H278152   4.152   6.583  12.823 -1.0459 -0.0955 -0.0442
18913TIP3   OH278153   2.985   2.963   4.832  0.1485 -0.1099 -0.2679
18913TIP3    H178154   2.920   3.033   4.835  0.6270  0.3715 -0.9215
18913TIP3    H278155   3.048   2.987   4.900  0.6817  0.4733 -0.9568
18914TIP3   OH278156   0.871   2.905  14.673 -0.3051  0.0657 -0.2186
18914TIP3    H178157   0.930   2.978  14.693  0.6150 -0.1923 -1.8102
18914TIP3    H278158   0.795   2.945  14.633 -0.6179  0.2854  0.5761
18915TIP3   OH278159   5.215   1.229   4.218 -0.4111 -0.0793 -0.1507
18915TIP3    H178160   5.220   1.134   4.211  2.2089 -0.0145 -0.1250
18915TIP3    H278161   5.258   1.249   4.301 -0.1128  1.1627 -0.5801
18916TIP3   OH278162   6.209   4.409  12.169  0.3405  0.0911 -0.4313
18916TIP3    H178163   6.177   4.340  12.111  1.8175 -1.1864  0.1817
18916TIP3    H278164   6.268   4.461  12.115 -2.0884  2.0711 -1.3910
18917TIP3   OH278165   1.018   0.003  12.687 -0.2080  0.3781  0.3065
18917TIP3    H178166   0.962  -0.048  12.745  1.3487  0.5434  2.0571
18917TIP3    H278167   1.087  -0.058  12.660  1.2208  1.2692  1.7766
18918TIP3   OH278168   4.396   1.190   5.078 -0.0664 -0.5683  0.1895
18918TIP3    H178169   4.357   1.103   5.072  1.4565 -1.4207  1.6288
18918TIP3    H278170   4.427   1.208   4.989 -1.3388 -0.9992 -0.3707
18919TIP3   OH278171   4.950   2.634  16.695 -0.8438  0.3751 -0.9393
18919TIP3    H178172   4.955   2.589  16.611 -0.0900 -1.8009  0.1964
18919TIP3    H278173   4.858   2.629  16.720 -0.8229 -0.3034 -0.9725
18920TIP3   OH278174   4.089   5.468   5.783  0.1438  0.1349 -0.1619
18920TIP3    H178175   4.093   5.427   5.869  0.0216 -0.8690 -0.6302
18920TIP3    H278176   4.059   5.557   5.801 -0.3364 -0.2058  0.7805
18921TIP3   OH278177   5.797   0.458  13.389 -0.0435  0.1922  0.0219
18921TIP3    H178178   5.848   0.377  13.380 -0.5412 -0.1444  0.1930
18921TIP3    H278179   5.726   0.448  13.326 -0.9044 -0.1209  1.0235
18922TIP3   OH278180   5.814   5.947   5.798  0.3235  0.3553 -1.5156
18922TIP3    H178181   5.883   5.918   5.857  0.0324 -1.8573 -2.1728
18922TIP3    H278182   5.777   6.024   5.840  1.6105  0.1729  0.0376
18923TIP3   OH278183   2.352   5.734   1.383  0.7138 -0.2919  0.3550
18923TIP3    H178184   2.303   5.733   1.300  1.6937  1.9653 -0.3295
18923TIP3    H278185   2.285   5.717   1.450 -0.6021  0.4508 -0.7121
18924TIP3   OH278186   5.985   0.466  13.118 -0.3384  0.0508 -0.0715
18924TIP3    H178187   5.898   0.460  13.079 -0.5864 -1.6954  0.6336
18924TIP3    H278188   5.987   0.551  13.162 -1.9719 -0.1982  0.5321
18925TIP3   OH278189   3.632   2.257  17.009  0.1802  0.6904  0.2299
18925TIP3    H178190   3.599   2.227  16.925 -0.1096  0.9178  0.2617
18925TIP3    H278191   3.555   2.294  17.054  0.4064  0.9088  0.4416
18926TIP3   OH278192   1.107   2.878   5.267 -0.2517  0.2760  0.0961
18926TIP3    H178193   1.198   2.884   5.239 -1.0516  2.0993 -2.4923
18926TIP3    H278194   1.074   2.799   5.224  0.0492 -0.2857  0.8884
18927TIP3   OH278195   6.123   0.348  12.864 -0.3969 -0.0515 -0.5104
18927TIP3    H178196   6.076   0.406  12.924  0.5623 -1.1765  1.4515
18927TIP3    H278197   6.063   0.275  12.850 -0.7352  0.3494 -1.1707
18928TIP3   OH278198   5.306   4.064   4.755 -0.4864  0.3743 -0.0593
18928TIP3    H178199   5.370   4.121   4.798 -0.3700  1.3089 -1.3943
18928TIP3    H278200   5.272   4.117   4.682  1.2428 -1.9664 -2.8144
18929TIP3   OH278201   6.152   6.161  14.300  0.3613  0.5479  0.1222
18929TIP3    H178202   6.120   6.074  14.276 -1.2269  0.7085  1.4750
18929TIP3    H278203   6.246   6.150  14.311  0.3903 -0.6637 -1.0746
18930TIP3   OH278204   2.297   5.610  14.545 -0.4469 -0.1331  0.0304
18930TIP3    H178205   2.248   5.668  14.487  0.3712  0.9718  0.3980
18930TIP3    H278206   2.262   5.523  14.528 -0.8864  0.3004 -1.4072
18931TIP3   OH278207   4.975   1.382   4.288 -0.4572  0.0445  0.2941
18931TIP3    H178208   4.891   1.350   4.321 -0.4885 -0.0219  0.1543
18931TIP3    H278209   5.019   1.303   4.254  0.0887 -0.0837  1.2759
18932TIP3   OH278210   1.951   6.128  12.922  0.0625  0.0839 -0.5265
18932TIP3    H178211   2.007   6.198  12.888 -1.1602  0.8567 -0.9959
18932TIP3    H278212   1.869   6.172  12.945 -0.1365 -0.9089  0.7694
18933TIP3   OH278213   4.024   3.054   5.682  0.5338 -0.9393 -0.5466
18933TIP3    H178214   4.081   3.071   5.757  1.1636  1.3596 -1.4751
18933TIP3    H278215   3.935   3.068   5.716  0.8000 -0.0734 -0.1712
18934TIP3   OH278216   0.671   5.880  11.347 -0.1892 -0.6389  0.5996
18934TIP3    H178217   0.698   5.788  11.345  0.2963 -0.5205 -1.7863
18934TIP3    H278218   0.582   5.879  11.382 -0.1735 -2.0009  0.6385
18935TIP3   OH278219   6.672   0.933   3.763 -0.2078 -0.4502  0.3035
18935TIP3    H178220   6.617   0.952   3.839 -0.9267 -0.7599 -0.1229
18935TIP3    H278221   6.680   1.017   3.718 -0.1613 -0.3634  0.4711
18936TIP3   OH278222   2.637   3.060   2.920  0.6274 -0.2906  0.5304
18936TIP3    H178223   2.603   3.093   3.003  0.7286 -1.4758  1.0729
18936TIP3    H278224   2.688   2.982   2.945 -0.0715 -1.1806 -0.7054
18937TIP3   OH278225   4.201   3.714  15.063  0.0675  0.0969  0.1763
18937TIP3    H178226   4.220   3.792  15.116 -0.4187  0.1625  0.2623
18937TIP3    H278227   4.108   3.724  15.040 -0.1290 -0.7061  0.5988
18938TIP3   OH278228   0.848   0.185  12.910  0.2421 -0.0698  0.0543
18938TIP3    H178229   0.874   0.193  12.819 -0.6869 -1.5248 -0.3670
18938TIP3    H278230   0.757   0.156  12.907 -0.7096  2.3912  1.4768
18939TIP3   OH278231   1.508   1.529  15.925  0.5816  0.3051  0.2339
18939TIP3    H178232   1.570   1.556  15.857  1.2653  0.6809  0.9853
18939TIP3    H278233   1.540   1.572  16.005  0.9679 -1.6730  1.2152
18940TIP3   OH278234   4.921   3.028  16.689 -0.0497 -0.3240  0.3897
18940TIP3    H178235   4.913   3.113  16.646  0.5451  0.9238  2.5591
18940TIP3    H278236   4.913   2.964  16.618 -0.0114  1.5349 -1.3935
18941TIP3   OH278237   5.399   0.058   6.559  0.0157  0.4550  0.6369
18941TIP3    H178238   5.473   0.113   6.533 -0.5334  0.1567 -1.7267
18941TIP3    H278239   5.327   0.120   6.571  0.1347  0.5358  0.9556
18942TIP3   OH278240   2.367   4.482  15.919 -0.0416  0.7698 -0.5078
18942TIP3    H178241   2.362   4.421  15.845  1.4232 -0.0256  0.0105
18942TIP3    H278242   2.338   4.430  15.994  0.3670  0.9726 -0.2066
18943TIP3   OH278243   0.002   6.002   2.664  0.2668 -0.1701 -0.5563
18943TIP3    H178244   0.052   6.074   2.702  2.4566 -1.2654 -1.2013
18943TIP3    H278245   0.057   5.925   2.678 -1.7014 -1.6375 -0.4829
18944TIP3   OH278246   6.572   4.451  13.056 -0.1434  0.8579 -0.4987
18944TIP3    H178247   6.614   4.521  13.005  2.1535 -1.3633 -1.9501
18944TIP3    H278248   6.519   4.404  12.992  0.5699 -0.3287 -0.2485
18945TIP3   OH278249   2.860   2.110  12.150  0.0497 -0.1017 -0.6421
18945TIP3    H178250   2.903   2.108  12.235 -0.3994  0.7606 -0.3877
18945TIP3    H278251   2.906   2.043  12.099  0.2425 -0.7171  0.3022
18946TIP3   OH278252   2.927   1.428  16.749  0.4753 -0.0848 -0.5518
18946TIP3    H178253   2.873   1.414  16.828  1.3037 -0.9247 -0.1124
18946TIP3    H278254   2.995   1.361  16.755  1.5424  0.9228 -1.1200
18947TIP3   OH278255   6.275   1.147   5.601  0.1490 -0.0446  0.1671
18947TIP3    H178256   6.295   1.238   5.578 -0.0875 -0.2172 -0.7927
18947TIP3    H278257   6.245   1.108   5.518  1.3188 -1.2936  0.2984
18948TIP3   OH278258   3.635   1.223  12.720 -0.3715 -0.6718  0.1814
18948TIP3    H178259   3.680   1.291  12.770 -2.4344  2.3503 -1.7317
18948TIP3    H278260   3.569   1.188  12.780  0.6062 -0.8952  1.1455
18949TIP3   OH278261   5.187   5.066  11.588  0.0909 -0.1277  0.8134
18949TIP3    H178262   5.197   4.971  11.581  1.6614  0.0882 -0.6556
18949TIP3    H278263   5.220   5.087  11.675  3.1014 -0.6295 -0.0856
18950TIP3   OH278264   6.452   2.201  16.435 -0.0698 -0.1743 -0.1766
18950TIP3    H178265   6.510   2.149  16.491 -0.1248 -0.6542 -0.5583
18950TIP3    H278266   6.496   2.286  16.426 -0.2678  0.0598  0.9431
18951TIP3   OH278267   4.742   4.191  14.991 -0.0293 -0.1187 -0.2327
18951TIP3    H178268   4.821   4.223  15.034  0.7988  0.6607 -2.2179
18951TIP3    H278269   4.760   4.100  14.970 -0.4358 -0.4986  1.0330
18952TIP3   OH278270   4.754   0.448   5.457  0.4754  0.1293 -0.2539
18952TIP3    H178271   4.822   0.392   5.495 -0.3956  0.2396  1.5345
18952TIP3    H278272   4.789   0.537   5.466  1.5023  0.0101 -2.3677
18953TIP3   OH278273   4.445   4.457  13.144  0.8367 -0.0580 -0.2296
18953TIP3    H178274   4.439   4.481  13.236 -2.6431  1.7264 -0.7617
18953TIP3    H278275   4.500   4.524  13.104  1.3239 -0.1331  0.3001
18954TIP3   OH278276   0.653   1.456  16.410  0.2382  0.1816  0.0757
18954TIP3    H178277   0.723   1.401  16.445 -0.6406 -0.9690  0.0801
18954TIP3    H278278   0.680   1.545  16.431  0.8261 -0.3392  1.6834
18955TIP3   OH278279   5.483   1.338   4.477  0.0601 -0.3523  0.2739
18955TIP3    H178280   5.485   1.264   4.416 -0.6652  1.3248 -1.9163
18955TIP3    H278281   5.574   1.370   4.478 -0.1963  0.5591 -1.2658
18956TIP3   OH278282   4.530   1.198  11.163 -0.7820 -0.4261  0.8844
18956TIP3    H178283   4.518   1.192  11.258 -1.0319  2.8525  1.2033
18956TIP3    H278284   4.612   1.152  11.146  0.0364  0.1441  2.9536
18957TIP3   OH278285   5.409   1.470   3.619  0.7864 -0.3582  0.6036
18957TIP3    H178286   5.328   1.421   3.603  1.2563 -1.3772  1.2529
18957TIP3    H278287   5.433   1.504   3.533 -0.3897  0.0639  0.4184
18958TIP3   OH278288   4.207   2.287   5.994 -0.7741  0.2732  0.7830
18958TIP3    H178289   4.143   2.349   5.957  0.4992 -0.1068 -2.4267
18958TIP3    H278290   4.267   2.342   6.044 -0.1986  1.5913 -1.2316
18959TIP3   OH278291   3.465   6.290   2.400 -0.9276 -0.1045  0.3681
18959TIP3    H178292   3.522   6.266   2.472 -1.4657 -0.9806  0.5088
18959TIP3    H278293   3.498   6.375   2.371  0.1666 -0.3933  0.7257
18960TIP3   OH278294   4.180   3.203  11.931  0.1936 -0.3920  1.2114
18960TIP3    H178295   4.217   3.259  11.999 -0.4092  0.3604  0.9380
18960TIP3    H278296   4.253   3.147  11.903  0.9121  0.5004  1.2431
18961TIP3   OH278297   6.273   3.246  11.713 -0.2034  0.5713  0.1946
18961TIP3    H178298   6.366   3.235  11.695 -0.4823  0.1439 -1.0802
18961TIP3    H278299   6.234   3.263  11.627 -1.4775 -0.6374  0.5014
18962TIP3   OH278300   1.076   0.624  15.989 -0.3741  0.2029 -0.5685
18962TIP3    H178301   1.043   0.557  15.930 -1.5235  0.9194 -0.7706
18962TIP3    H278302   1.080   0.704  15.936  0.2188  0.4800 -0.1272
18963TIP3   OH278303   0.812   0.388   0.210 -0.0174  0.0240  0.4858
18963TIP3    H178304   0.720   0.410   0.192  0.1055  0.3511  0.2437
18963TIP3    H278305   0.860   0.424   0.135  0.3170 -0.0833  0.6467
18964TIP3   OH278306   2.702   0.806  14.589  0.0321 -0.0813  0.7714
18964TIP3    H178307   2.644   0.739  14.625 -1.3168 -0.5183 -1.9668
18964TIP3    H278308   2.758   0.758  14.527 -0.0125  1.1019 -0.2087
18965TIP3   OH278309   1.922   0.854   2.834  0.5660  0.2080  0.0690
18965TIP3    H178310   1.877   0.895   2.760  0.4851  2.4344  1.2668
18965TIP3    H278311   2.011   0.889   2.830  0.7529 -0.1788  0.6675
18966TIP3   OH278312   6.564   6.487   5.862 -0.3710 -0.0466 -0.2048
18966TIP3    H178313   6.490   6.429   5.880  0.1985 -0.6766  0.1553
18966TIP3    H278314   6.626   6.470   5.934 -0.1125  0.8742 -0.1940
18967TIP3   OH278315   5.934   2.601  16.788  0.5863  0.3115 -0.5250
18967TIP3    H178316   6.026   2.573  16.786  0.1045 -1.5505  0.8918
18967TIP3    H278317   5.884   2.519  16.799 -1.2119  1.3430 -0.6331
18968TIP3   OH278318   3.607   2.032  16.559 -0.2295 -0.7923 -0.0541
18968TIP3    H178319   3.683   1.975  16.551 -0.0284 -0.7371  1.1824
18968TIP3    H278320   3.545   1.999  16.494  1.3818  0.0778 -2.1336
18969TIP3   OH278321   3.350   2.314   5.183  0.3336  0.0906 -0.3093
18969TIP3    H178322   3.383   2.313   5.273 -0.1436 -2.8349 -0.0761
18969TIP3    H278323   3.275   2.374   5.186  0.5808  0.3618  1.1434
18970TIP3   OH278324   5.966   3.573  16.429  0.1418 -0.6511  0.3620
18970TIP3    H178325   5.880   3.591  16.389  0.2936  0.9527  0.6809
18970TIP3    H278326   6.003   3.660  16.445  2.1076 -1.3128 -0.3308
18971TIP3   OH278327   6.325   0.529  14.886 -0.8036 -0.1464  0.0296
18971TIP3    H178328   6.293   0.451  14.931  1.7120 -0.5089  1.3847
18971TIP3    H278329   6.409   0.501  14.848 -0.0172  1.7787  0.2369
18972TIP3   OH278330   3.791   3.846  15.926  0.2303 -0.0964 -0.0013
18972TIP3    H178331   3.741   3.926  15.944  0.5765  0.9569 -3.1757
18972TIP3    H278332   3.880   3.868  15.952  0.3199  0.5720 -0.8365
18973TIP3   OH278333   3.792   0.879  11.830 -0.2793  0.5951  0.5382
18973TIP3    H178334   3.881   0.867  11.798  0.0828 -2.8126  2.4052
18973TIP3    H278335   3.796   0.959  11.883  1.5716  0.6827  0.3272
18974TIP3   OH278336   4.482   1.789  16.982  0.5129  0.2165  0.1362
18974TIP3    H178337   4.539   1.833  17.044  2.6377 -0.5807 -1.1540
18974TIP3    H278338   4.445   1.859  16.929  2.2066  0.6216 -0.5454
18975TIP3   OH278339   1.237   6.124   0.671  0.2920  0.5578 -0.3460
18975TIP3    H178340   1.289   6.088   0.599 -1.7170  0.8028 -2.0105
18975TIP3    H278341   1.298   6.177   0.721  1.9043 -0.1682 -1.4689
18976TIP3   OH278342   1.395   0.714  11.121 -0.0971 -0.1719  0.4864
18976TIP3    H178343   1.412   0.630  11.078  0.2729  0.2854 -0.2784
18976TIP3    H278344   1.301   0.712  11.141 -0.5645  0.0798 -1.4392
18977TIP3   OH278345   5.236   4.858   2.370 -0.3867  0.2623 -0.0613
18977TIP3    H178346   5.227   4.829   2.461 -1.4434 -2.4412 -0.9168
18977TIP3    H278347   5.295   4.933   2.374  1.6660 -1.3106  2.6108
18978TIP3   OH278348   4.092   6.700  14.309 -0.7741  0.5143  0.7001
18978TIP3    H178349   4.060   6.638  14.244 -2.3056  1.2748  0.6944
18978TIP3    H278350   4.170   6.739  14.268 -1.2361  0.3869 -0.3358
18979TIP3   OH278351   4.860   4.251   1.169  0.2383 -0.2299  0.2143
18979TIP3    H178352   4.868   4.341   1.203  2.4447 -0.6525  1.0402
18979TIP3    H278353   4.903   4.255   1.084  0.0050 -0.4238  0.0894
18980TIP3   OH278354   4.809   1.891   6.239 -0.4280 -0.4660  0.4790
18980TIP3    H178355   4.882   1.936   6.196  1.1789 -1.9721  1.5179
18980TIP3    H278356   4.778   1.953   6.306 -1.7109  1.1181 -1.4472
18981TIP3   OH278357   4.549   1.055   4.007  0.0501 -0.0804  0.5148
18981TIP3    H178358   4.522   1.061   3.916  0.3607 -0.6454  0.3828
18981TIP3    H278359   4.514   0.971   4.038  0.9643 -0.4586  0.5624
18982TIP3   OH278360   2.141   2.099   1.066 -0.2931 -0.0355  0.2068
18982TIP3    H178361   2.176   2.168   1.010  0.6331 -1.2026 -0.7188
18982TIP3    H278362   2.135   2.139   1.153  1.0672  0.9567 -0.1150
18983TIP3   OH278363   1.750   4.279  16.486 -0.4448 -0.4060  0.1203
18983TIP3    H178364   1.842   4.271  16.463 -0.2593  2.0536 -0.1606
18983TIP3    H278365   1.705   4.293  16.403 -1.2816 -2.6092  0.1223
18984TIP3   OH278366   3.572   4.249   3.648  0.4482 -0.7959  0.1783
18984TIP3    H178367   3.477   4.261   3.645  0.4106 -0.6587  1.3620
18984TIP3    H278368   3.585   4.182   3.715  1.2631  0.3518  1.2118
18985TIP3   OH278369   3.035   6.605  15.775  0.1336  0.2218  0.6050
18985TIP3    H178370   2.948   6.608  15.736  0.5134 -0.4217 -0.3293
18985TIP3    H278371   3.069   6.694  15.764 -0.1175  0.2818  0.2985
18986TIP3   OH278372   2.619   3.557  13.449 -1.1069 -0.0316 -0.1638
18986TIP3    H178373   2.536   3.575  13.493 -1.9019  2.4645 -2.3656
18986TIP3    H278374   2.682   3.616  13.491 -0.6478 -1.2153  0.8498
18987TIP3   OH278375   2.659   3.816   2.778 -0.0799 -0.3020 -0.1936
18987TIP3    H178376   2.731   3.752   2.776  0.4278  0.1921 -3.8357
18987TIP3    H278377   2.688   3.886   2.719 -1.6980  2.1414  1.7278
18988TIP3   OH278378   0.177   6.275  14.532  0.0035  0.0714 -0.2711
18988TIP3    H178379   0.139   6.239  14.612  0.2977  1.5209  0.5453
18988TIP3    H278380   0.180   6.201  14.472 -0.3436 -1.0188  1.0093
18989TIP3   OH278381   1.083   2.930   2.216 -0.2976 -0.6460 -0.2984
18989TIP3    H178382   1.120   2.914   2.302  0.6911  1.1448 -0.3392
18989TIP3    H278383   0.992   2.955   2.233  0.1723  0.7285  0.3549
18990TIP3   OH278384   0.025   2.161   0.985  0.8433  0.7813 -0.7628
18990TIP3    H178385   0.080   2.090   0.951 -0.8905 -1.9115  1.6401
18990TIP3    H278386  -0.058   2.152   0.938  0.2813  0.5168  0.2440
18991TIP3   OH278387   4.868   3.330   1.125 -0.4305  0.5929  0.3132
18991TIP3    H178388   4.925   3.358   1.197 -1.5600 -0.0556  1.5116
18991TIP3    H278389   4.829   3.249   1.156  0.4544 -0.7244 -1.8281
18992TIP3   OH278390   3.409   3.105   3.731 -0.4061  0.1116  0.1913
18992TIP3    H178391   3.496   3.102   3.689 -1.1785  2.3698 -1.7910
18992TIP3    H278392   3.428   3.100   3.825  1.6188 -2.4164 -0.2286
18993TIP3   OH278393   3.595   1.805  13.223  0.2636 -0.3556 -0.1978
18993TIP3    H178394   3.647   1.813  13.143 -0.1556 -0.4486 -0.4794
18993TIP3    H278395   3.582   1.895  13.252  1.1546 -0.3551  0.2491
18994TIP3   OH278396   4.079   4.185   0.848  0.1435  0.2226  0.2588
18994TIP3    H178397   4.015   4.158   0.783  0.9644 -2.6314  0.5158
18994TIP3    H278398   4.033   4.178   0.932  0.4470 -0.8087  0.3532
18995TIP3   OH278399   1.051   4.445   5.470 -1.0850 -0.1497 -0.0361
18995TIP3    H178400   1.001   4.484   5.542  1.9478 -0.4389  2.4479
18995TIP3    H278401   1.094   4.369   5.509  0.6109 -0.3895 -2.1696
18996TIP3   OH278402   2.092   0.117   6.442  0.4206  0.2537  0.4141
18996TIP3    H178403   2.090   0.027   6.474  0.6293  0.3521  0.7032
18996TIP3    H278404   2.177   0.125   6.399  0.1843  0.1528 -0.0912
18997TIP3   OH278405   6.121   5.817  13.399 -0.1723  1.3838  0.0232
18997TIP3    H178406   6.065   5.872  13.453 -1.0287  0.3341  0.2467
18997TIP3    H278407   6.104   5.728  13.430  2.6603  1.1087  1.0406
18998TIP3   OH278408   4.213   3.404   3.549  0.0986  0.2201 -0.1458
18998TIP3    H178409   4.267   3.331   3.578 -0.0196  0.1130 -0.1932
18998TIP3    H278410   4.271   3.479   3.550  0.4943 -0.0625 -1.0859
18999TIP3   OH278411   4.377   0.720   2.592 -0.0201  0.0682 -0.4682
18999TIP3    H178412   4.465   0.755   2.577  0.7235 -1.4650  0.1489
18999TIP3    H278413   4.392   0.631   2.623 -1.7821 -0.0274  0.1911
19000TIP3   OH278414   3.166   3.930   3.056 -0.1250  0.1504  0.0433
19000TIP3    H178415   3.209   3.937   3.141  2.2529  1.5336 -1.1632
19000TIP3    H278416   3.221   3.869   3.006  0.1209  1.4511 -1.3518
19001TIP3   OH278417   3.943   1.970  16.803  0.2830 -0.4617  0.3105
19001TIP3    H178418   3.901   2.056  16.798  0.3129 -0.2358  2.7519
19001TIP3    H278419   3.995   1.964  16.723 -0.3700  1.4518 -0.3063
19002TIP3   OH278420   3.362   2.800   0.920 -0.4607  0.2430  0.1362
19002TIP3    H178421   3.298   2.761   0.860 -1.3848 -0.5696  1.5945
19002TIP3    H278422   3.439   2.743   0.912 -1.9361 -2.3002  2.5395
19003TIP3   OH278423   6.463   4.889  12.696  0.3644  0.8743  0.3082
19003TIP3    H178424   6.477   4.865  12.604 -2.5412  1.5022 -0.4024
19003TIP3    H278425   6.505   4.819  12.746  0.8030 -0.2447 -1.5213
19004TIP3   OH278426   6.396   0.780   2.000 -0.6056 -0.2222 -0.0886
19004TIP3    H178427   6.307   0.811   2.018 -0.5940 -1.8964  3.9253
19004TIP3    H278428   6.387   0.685   1.993  1.0302 -0.7713  3.3024
19005TIP3   OH278429   3.065   5.719   3.681  0.2233 -0.2497  0.1293
19005TIP3    H178430   3.050   5.747   3.771 -0.1973 -0.5638  0.1588
19005TIP3    H278431   3.016   5.637   3.673  0.8019 -0.5669 -0.1875
19006TIP3   OH278432   3.026   3.731  16.598  0.7465 -0.1801  0.3331
19006TIP3    H178433   3.083   3.793  16.552  0.1064  0.7431  0.7548
19006TIP3    H278434   3.000   3.668  16.532  2.2927 -0.6558  0.1315
19007TIP3   OH278435   6.453   0.404   6.504 -0.2636  0.2582  0.1477
19007TIP3    H178436   6.481   0.315   6.527  1.3414  1.4084  3.2755
19007TIP3    H278437   6.527   0.441   6.457 -0.4291  0.3414 -0.0504
19008TIP3   OH278438   3.797   3.826  11.325 -0.0514 -0.0849 -0.5505
19008TIP3    H178439   3.709   3.789  11.311 -0.9327  1.2237  1.0960
19008TIP3    H278440   3.788   3.917  11.297  1.0075 -0.1056 -0.9863
19009TIP3   OH278441   5.478   6.340   6.291  0.5243 -0.7014 -0.3892
19009TIP3    H178442   5.499   6.347   6.384 -0.0546  0.0503 -0.3047
19009TIP3    H278443   5.383   6.331   6.289  0.0270  3.1534 -1.0341
19010TIP3   OH278444   0.932   1.038   4.259  0.4888  0.1396  0.1094
19010TIP3    H178445   0.880   1.112   4.290 -0.4181 -0.8656  1.1224
19010TIP3    H278446   1.022   1.062   4.277  0.1730  0.7921  0.8783
19011TIP3   OH278447   2.434   4.049  17.091  0.1133 -0.1519 -0.5265
19011TIP3    H178448   2.366   3.982  17.093 -0.1899  0.1102 -1.4335
19011TIP3    H278449   2.419   4.096  17.009  0.9431  0.3767 -0.3912
19012TIP3   OH278450   2.360   5.211  13.274 -0.3309 -0.1797 -0.0775
19012TIP3    H178451   2.367   5.168  13.189 -0.1185  1.0164 -0.6839
19012TIP3    H278452   2.297   5.159  13.323  0.1580 -1.3522 -0.6684
19013TIP3   OH278453   6.467   3.416   5.963  0.3428 -0.7862  0.4558
19013TIP3    H178454   6.417   3.340   5.992 -0.7460 -0.9968 -1.7140
19013TIP3    H278455   6.403   3.471   5.918  1.0910  1.4873  1.9932
19014TIP3   OH278456   1.456   6.131   3.345 -0.1895 -0.2842 -0.4807
19014TIP3    H178457   1.405   6.053   3.368 -0.4228  0.1887  0.6688
19014TIP3    H278458   1.392   6.201   3.338  0.3034  0.5491  2.0111
19015TIP3   OH278459   4.536   3.994  12.152  0.2094  0.1285 -0.1338
19015TIP3    H178460   4.467   4.060  12.153  1.4236  1.4827  1.2805
19015TIP3    H278461   4.582   4.007  12.069 -0.3159  0.2180 -0.4114
19016TIP3   OH278462   4.577   1.417  12.711 -0.3023 -0.3026 -0.2765
19016TIP3    H178463   4.591   1.510  12.727 -1.5941 -0.0369 -0.6030
19016TIP3    H278464   4.594   1.405  12.618 -1.2975 -0.1447 -0.4912
19017TIP3   OH278465   3.055   5.410   2.709  0.5219  0.2936 -0.2355
19017TIP3    H178466   3.071   5.483   2.768  2.4457 -0.0400 -0.2936
19017TIP3    H278467   3.008   5.449   2.635 -1.1153  0.8684  1.0352
19018TIP3   OH278468   1.148   4.999   1.089  0.0567 -0.2221  0.5968
19018TIP3    H178469   1.065   4.999   1.136 -0.4609  0.5421 -0.2907
19018TIP3    H278470   1.191   4.918   1.116  0.2032  0.6208  3.1217
19019TIP3   OH278471   0.474   2.696   2.206 -0.7336  0.1065  0.3507
19019TIP3    H178472   0.489   2.773   2.151 -0.0218 -1.4975 -1.8680
19019TIP3    H278473   0.552   2.689   2.261 -0.6937  0.8211  0.3893
19020TIP3   OH278474   3.388   0.985   3.514  0.1876 -0.3185  0.1361
19020TIP3    H178475   3.403   0.918   3.448  1.5700 -1.0247  1.1060
19020TIP3    H278476   3.410   0.942   3.597  2.7227  1.7382  0.6793
19021TIP3   OH278477   2.274   2.721  14.228 -0.2885 -0.1921 -0.7042
19021TIP3    H178478   2.355   2.716  14.177 -0.5925 -0.0154 -1.2178
19021TIP3    H278479   2.205   2.705  14.164 -0.6893  0.2033 -0.3762
19022TIP3   OH278480   0.422   3.894   4.657  0.1329 -0.8275 -0.1857
19022TIP3    H178481   0.461   3.808   4.647 -0.6316 -1.0479 -1.5238
19022TIP3    H278482   0.329   3.876   4.674 -0.4154 -0.2934 -2.3233
19023TIP3   OH278483   4.142   1.971   2.634  0.4097 -0.1266  0.4044
19023TIP3    H178484   4.162   1.942   2.545  1.6133 -0.5338  0.7930
19023TIP3    H278485   4.085   1.903   2.669 -0.9621  0.5651 -0.3941
19024TIP3   OH278486   5.573   5.011   6.001 -0.4050 -0.1809 -0.0326
19024TIP3    H178487   5.637   4.940   6.003  1.3817  1.3825  0.8420
19024TIP3    H278488   5.544   5.014   5.909  1.5337 -0.3088 -0.6996
19025TIP3   OH278489   2.884   6.466  12.956  0.4684 -0.0986  0.2315
19025TIP3    H178490   2.828   6.447  13.031  0.6889  1.3616  0.8031
19025TIP3    H278491   2.919   6.553  12.974  0.8453  0.1128 -1.3849
19026TIP3   OH278492   5.928   4.407   0.089 -0.4574  0.4828 -0.0699
19026TIP3    H178493   5.934   4.464   0.166 -0.0808  1.4835 -0.8341
19026TIP3    H278494   5.852   4.351   0.107  0.9866 -0.9494  2.1141
19027TIP3   OH278495   1.862   4.365   1.200 -0.4807 -0.1666  0.2793
19027TIP3    H178496   1.780   4.327   1.168 -1.0292  1.0028  0.2377
19027TIP3    H278497   1.884   4.433   1.136  0.1093  0.0546  0.7065
19028TIP3   OH278498   4.962   3.523  17.221 -0.9024  0.5937  0.5091
19028TIP3    H178499   4.969   3.559  17.132 -0.9069  2.9250  1.3735
19028TIP3    H278500   4.970   3.429  17.209 -3.3291  0.5929 -2.2111
19029TIP3   OH278501   5.852   3.194  16.626 -0.5087  0.1106  0.7493
19029TIP3    H178502   5.811   3.265  16.576  0.4806  0.1741  0.0035
19029TIP3    H278503   5.800   3.117  16.604  0.6287 -0.1296 -1.4324
19030TIP3   OH278504   6.386   5.077   0.641  0.0935 -0.8841 -0.2892
19030TIP3    H178505   6.366   4.987   0.616 -0.3305 -1.1365  0.8548
19030TIP3    H278506   6.418   5.069   0.731 -1.0992  0.2099  0.2650
19031TIP3   OH278507   5.147   5.825   5.990  0.0765 -0.0385 -0.1926
19031TIP3    H178508   5.121   5.914   5.964  0.0666 -0.3207 -1.2194
19031TIP3    H278509   5.207   5.797   5.921  0.1964 -0.7723  0.2032
19032TIP3   OH278510   6.311   2.322  16.656 -0.1970  0.2944 -0.3708
19032TIP3    H178511   6.355   2.268  16.722 -1.4831 -1.5130 -0.9083
19032TIP3    H278512   6.333   2.280  16.573 -0.4375  1.1899 -0.9010
19033TIP3   OH278513   2.009   2.077   3.966  0.1143  0.1293  0.0431
19033TIP3    H178514   1.941   2.016   3.938  0.6752 -0.5334  0.0980
19033TIP3    H278515   1.995   2.086   4.061 -1.4043  1.9039 -0.2914
19034TIP3   OH278516   4.513   3.134   3.285  0.1161 -0.5582  0.3003
19034TIP3    H178517   4.535   3.141   3.378  0.4025  1.7637  0.1142
19034TIP3    H278518   4.435   3.187   3.275 -2.1397 -3.7068 -0.2078
19035TIP3   OH278519   1.491   6.513   3.969  0.4541  0.0811 -0.0546
19035TIP3    H178520   1.558   6.557   4.020  0.0426 -0.6536  1.1746
19035TIP3    H278521   1.514   6.420   3.975  0.0768 -0.0598 -0.7361
19036TIP3   OH278522   4.856   3.926   2.137 -0.2292  0.4218 -0.6723
19036TIP3    H178523   4.927   3.913   2.075 -2.6205 -1.7435 -3.2205
19036TIP3    H278524   4.780   3.947   2.083 -2.2211 -0.4276  1.5994
19037TIP3   OH278525   6.082   3.756   0.897  0.2405 -0.2978 -0.4397
19037TIP3    H178526   6.102   3.843   0.861  0.6093  0.5762  1.7326
19037TIP3    H278527   5.986   3.754   0.902  0.1991 -0.3089 -1.1340
19038TIP3   OH278528   6.289   2.598   2.065 -0.5699  0.0741 -0.4683
19038TIP3    H178529   6.354   2.529   2.077 -2.1834 -1.4311 -0.0027
19038TIP3    H278530   6.319   2.645   1.987  1.6563  0.1527  0.3665
19039TIP3   OH278531   5.630   6.445   2.735  0.0981  0.1317 -0.5398
19039TIP3    H178532   5.643   6.514   2.800 -0.4495  0.5731 -0.9014
19039TIP3    H278533   5.686   6.373   2.766 -1.1236 -0.1503  1.1410
19040TIP3   OH278534   1.276   5.604  14.709  0.0673 -0.0860  0.8546
19040TIP3    H178535   1.197   5.632  14.662  0.8692  0.6172 -0.1111
19040TIP3    H278536   1.315   5.537  14.653 -0.3367 -1.1347  1.7946
19041TIP3   OH278537   1.158   5.191  12.948  0.0071  0.2398 -0.2005
19041TIP3    H178538   1.251   5.173  12.931 -0.4403 -2.0755 -0.4972
19041TIP3    H278539   1.143   5.154  13.035 -0.7159  0.3539 -0.2775
19042TIP3   OH278540   3.014   3.636  14.772 -0.0721  0.2581 -0.2538
19042TIP3    H178541   3.045   3.569  14.832 -1.2730 -1.0702 -1.0638
19042TIP3    H278542   3.092   3.689  14.752  0.4377  0.4785  2.0778
19043TIP3   OH278543   3.710   6.768   1.499  0.1798 -0.3004  0.1697
19043TIP3    H178544   3.722   6.673   1.494  3.4938 -0.0098  0.3453
19043TIP3    H278545   3.721   6.799   1.409 -0.6985 -0.0640  0.1406
19044TIP3   OH278546   4.542   2.767   7.067  0.6017  0.5397 -0.0029
19044TIP3    H178547   4.461   2.720   7.049  0.1693  0.9596  0.7720
19044TIP3    H278548   4.524   2.857   7.038  0.2772  0.9665  1.4126
19045TIP3   OH278549   0.389   1.663  16.878  0.5778  0.2908  0.3622
19045TIP3    H178550   0.320   1.711  16.833  0.4778 -0.5155 -0.3611
19045TIP3    H278551   0.470   1.708  16.854  0.4905  0.0752 -0.3491
19046TIP3   OH278552   5.520   2.827   2.806 -0.3579 -0.2875  0.1573
19046TIP3    H178553   5.458   2.790   2.868 -2.3623  1.6868 -0.5202
19046TIP3    H278554   5.575   2.885   2.858 -0.3905 -0.5289  0.4621
19047TIP3   OH278555   4.964   6.279   6.479 -0.0484 -0.0336  0.0343
19047TIP3    H178556   4.990   6.193   6.444 -2.3043 -0.6516 -0.2430
19047TIP3    H278557   4.980   6.272   6.573 -1.1316 -1.1601  0.1638
19048TIP3   OH278558   1.425   6.309  16.956  0.2064 -0.2392  0.2566
19048TIP3    H178559   1.381   6.379  17.003  0.8942 -1.0569  2.1995
19048TIP3    H278560   1.362   6.279  16.891 -1.1112  0.3643  1.2338
19049TIP3   OH278561   4.885   3.008  14.979  0.0476 -0.5558  0.0360
19049TIP3    H178562   4.865   3.084  15.034  1.1782  0.3155 -0.7151
19049TIP3    H278563   4.915   3.046  14.896 -0.0871 -1.8348 -0.6198
19050TIP3   OH278564   1.776   4.724   1.080 -0.6318  0.3161  0.4757
19050TIP3    H178565   1.816   4.756   1.160  2.1939 -1.8574  0.0890
19050TIP3    H278566   1.831   4.651   1.053 -1.7375  0.6505 -3.2313
19051TIP3   OH278567   0.022   1.610   2.945  1.2000 -0.4015  0.3758
19051TIP3    H178568  -0.005   1.521   2.923  1.9066 -0.6545  0.5425
19051TIP3    H278569   0.112   1.602   2.974  1.1444  0.3179  0.7674
19052TIP3   OH278570   2.285   3.145  13.142  0.3608 -0.4575  0.3039
19052TIP3    H178571   2.203   3.100  13.165 -0.2892 -0.3597 -1.6432
19052TIP3    H278572   2.288   3.221  13.201 -0.1552 -1.2743  1.4324
19053TIP3   OH278573   4.539   2.136   6.720 -0.0482 -0.3674 -0.2835
19053TIP3    H178574   4.619   2.175   6.686  2.0549 -1.9240  2.5370
19053TIP3    H278575   4.492   2.210   6.759  0.4288  0.4089 -1.1297
19054TIP3   OH278576   3.643   1.908   3.695 -0.0172 -0.3266  0.2269
19054TIP3    H178577   3.710   1.937   3.757 -0.5505  0.4881  0.4366
19054TIP3    H278578   3.687   1.843   3.641  1.8065  2.1365 -1.4512
19055TIP3   OH278579   4.724   5.936   2.804 -0.5881  0.3124 -0.0729
19055TIP3    H178580   4.776   5.958   2.881 -0.3273 -0.0567 -0.1396
19055TIP3    H278581   4.752   5.847   2.781 -1.1603  0.1573 -0.1821
19056TIP3   OH278582   2.350   1.265  16.115 -0.0825 -0.7619  0.2383
19056TIP3    H178583   2.391   1.223  16.039 -0.4222 -0.5225 -0.0793
19056TIP3    H278584   2.262   1.289  16.085 -0.2069 -0.6337  0.6952
19057TIP3   OH278585   3.115   3.104   5.573 -0.3439  0.2701 -0.0458
19057TIP3    H178586   3.133   3.192   5.540 -0.7632 -0.1847 -1.5199
19057TIP3    H278587   3.025   3.086   5.547 -0.4899 -0.3432  0.8426
19058TIP3   OH278588   3.119   3.761  13.809 -0.1780 -0.2163 -0.5560
19058TIP3    H178589   3.180   3.687  13.808 -0.4093 -0.4070 -1.0331
19058TIP3    H278590   3.035   3.722  13.836 -0.3000 -0.1275 -0.8068
19059TIP3   OH278591   2.454   4.972   2.280  0.0789 -0.0758  0.0615
19059TIP3    H178592   2.430   4.921   2.358 -1.5067  0.6732  0.0981
19059TIP3    H278593   2.415   5.058   2.295 -0.1482  0.1165 -1.5163
19060TIP3   OH278594   6.520   1.155  11.769  0.2263  0.6145  0.4081
19060TIP3    H178595   6.452   1.152  11.702  0.5822 -2.4427  0.0568
19060TIP3    H278596   6.472   1.164  11.851 -0.6371 -1.2215  0.1484
19061TIP3   OH278597   4.240   6.254   5.007  0.7781  0.3603 -0.2721
19061TIP3    H178598   4.272   6.221   5.091  0.5531  1.0554  0.0926
19061TIP3    H278599   4.146   6.266   5.020  1.1141  3.0607  0.2972
19062TIP3   OH278600   4.800   6.288   4.135 -0.0340  0.7545 -0.1780
19062TIP3    H178601   4.876   6.251   4.091 -1.5358  0.2511 -2.4915
19062TIP3    H278602   4.773   6.361   4.079 -2.3537 -0.2725 -0.5012
19063TIP3   OH278603   0.997   5.418  12.982  0.0514 -0.3542 -0.4905
19063TIP3    H178604   0.917   5.369  12.996  0.5704 -1.2206 -0.5065
19063TIP3    H278605   1.066   5.352  12.974  0.6423  0.3346 -1.3640
19064TIP3   OH278606   1.613   1.997   0.349  0.1460 -0.0640  0.4848
19064TIP3    H178607   1.637   1.910   0.316  0.1740 -0.3911  1.3320
19064TIP3    H278608   1.631   1.992   0.443 -0.8976  0.5002  0.7252
19065TIP3   OH278609   0.055   0.096  15.880  0.0935 -0.4056 -0.1883
19065TIP3    H178610  -0.010   0.133  15.940 -0.7372  1.2758 -2.0345
19065TIP3    H278611   0.005   0.032  15.829  0.6718 -1.4090  0.4584
19066TIP3   OH278612   4.839   5.959  12.364  0.2513 -0.7652  0.3990
19066TIP3    H178613   4.842   6.024  12.435  0.2039 -1.2345  0.8313
19066TIP3    H278614   4.860   6.010  12.286  0.7919 -0.3320  0.8084
19067TIP3   OH278615   3.725   2.375   2.010 -0.3298 -0.1462  0.6488
19067TIP3    H178616   3.804   2.421   1.982 -0.9513  1.9130  2.0735
19067TIP3    H278617   3.672   2.442   2.053 -2.7272 -1.5282  0.0283
19068TIP3   OH278618   6.720   5.493  15.152 -0.6169  0.0595  0.1022
19068TIP3    H178619   6.770   5.415  15.128 -1.0386 -0.5780  1.2562
19068TIP3    H278620   6.732   5.552  15.077  0.7421 -0.6017 -0.2426
19069TIP3   OH278621   3.201   1.939  11.338  0.3340 -0.6284 -0.7931
19069TIP3    H178622   3.216   1.918  11.246  1.6018  0.1366 -0.7846
19069TIP3    H278623   3.275   1.899  11.384  0.5970  0.3883 -0.3146
19070TIP3   OH278624   6.723   2.646   5.720  0.0107  0.0516 -0.1519
19070TIP3    H178625   6.706   2.668   5.812 -2.6917 -0.5702 -0.3895
19070TIP3    H278626   6.687   2.557   5.710  2.5650 -0.9439 -1.2583
19071TIP3   OH278627   2.431   4.522  16.217 -0.1233 -0.5048 -0.6930
19071TIP3    H178628   2.488   4.572  16.158  0.2209  1.1681  0.9796
19071TIP3    H278629   2.381   4.588  16.264 -0.0642 -1.7481  1.2168
19072TIP3   OH278630   1.749   6.515  16.585  0.0977  0.1066  0.4099
19072TIP3    H178631   1.676   6.476  16.633 -0.2312  1.0458  0.6900
19072TIP3    H278632   1.809   6.442  16.569  0.2916 -0.2210  2.3603
19073TIP3   OH278633   1.051   1.510  15.770 -0.2225  0.3093 -0.0556
19073TIP3    H178634   0.963   1.487  15.740 -0.1238 -0.0798 -0.0425
19073TIP3    H278635   1.039   1.593  15.816 -0.6905 -0.0656  0.5013
19074TIP3   OH278636   5.779   0.894   5.816 -0.4401 -0.0951 -0.1878
19074TIP3    H178637   5.721   0.968   5.834 -0.3254 -0.1136  0.2794
19074TIP3    H278638   5.772   0.838   5.894  0.6859  0.2235  0.1665
19075TIP3   OH278639   5.943   4.340  14.670 -0.1430  0.1651  0.2814
19075TIP3    H178640   5.968   4.426  14.704 -1.3778  0.7551 -0.2303
19075TIP3    H278641   5.973   4.341  14.579 -0.4220  0.1709  0.1895
19076TIP3   OH278642   1.816   6.151  15.388  0.5222 -0.0126 -0.0172
19076TIP3    H178643   1.734   6.194  15.412  0.6441  0.8898 -1.1290
19076TIP3    H278644   1.866   6.218  15.341  1.0592 -1.1261 -1.1083
19077TIP3   OH278645   4.274   5.833   5.297 -0.2368  0.1956  0.4387
19077TIP3    H178646   4.228   5.917   5.294 -1.1103 -0.2795 -2.0201
19077TIP3    H278647   4.355   5.848   5.248  0.1513 -0.1196  0.9708
19078TIP3   OH278648   1.961   3.764   1.555 -0.0991 -0.5492 -0.5612
19078TIP3    H178649   2.001   3.681   1.529  0.0873 -0.8448  0.6095
19078TIP3    H278650   2.034   3.819   1.584 -0.4721 -1.1115  1.6313
19079TIP3   OH278651   1.683   4.460  16.228  0.4830 -0.6366  0.0063
19079TIP3    H178652   1.728   4.481  16.146 -1.6697 -0.5951 -1.2231
19079TIP3    H278653   1.640   4.541  16.253 -0.5033 -1.1824  0.0934
19080TIP3   OH278654   5.438   1.754   4.719 -0.5598  0.0685 -0.0466
19080TIP3    H178655   5.409   1.675   4.765 -0.1234 -0.3771 -0.5203
19080TIP3    H278656   5.414   1.826   4.777 -0.6345 -0.4407  0.5607
19081TIP3   OH278657   5.146   5.557  16.716 -0.0532  0.0254  0.0536
19081TIP3    H178658   5.194   5.500  16.656  1.2166  0.4805  0.6105
19081TIP3    H278659   5.170   5.646  16.689  1.0454  0.2389  1.5977
19082TIP3   OH278660   5.412   3.171   1.912 -0.0440  0.2951 -0.1110
19082TIP3    H178661   5.448   3.087   1.884  0.1717  0.2209  0.3695
19082TIP3    H278662   5.483   3.212   1.961  0.3930  1.4385 -1.6351
19083TIP3   OH278663   5.191   1.903  15.719  0.3125  0.3374 -0.2281
19083TIP3    H178664   5.100   1.910  15.746  0.3235 -0.1582 -0.0653
19083TIP3    H278665   5.203   1.976  15.657 -0.9963 -1.2563 -2.4972
19084TIP3   OH278666   5.870   5.445  16.029 -0.1272 -0.1034  0.1568
19084TIP3    H178667   5.835   5.372  15.978  1.1027 -1.0360  0.6041
19084TIP3    H278668   5.849   5.422  16.120  0.7878 -0.2082  0.3472
19085TIP3   OH278669   5.827   2.105  14.202  0.1353 -0.0211  0.1914
19085TIP3    H178670   5.859   2.048  14.132  2.9095  1.8666 -0.2443
19085TIP3    H278671   5.758   2.157  14.162 -0.5087 -1.1193 -0.1760
19086TIP3   OH278672   1.573   0.379  15.679  0.5582  0.1685  0.1204
19086TIP3    H178673   1.593   0.288  15.656  0.2712  0.3011 -0.6648
19086TIP3    H278674   1.560   0.377  15.774  0.6997 -0.5825  0.1295
19087TIP3   OH278675   5.664   4.007  11.635 -0.5834 -0.0268 -0.2865
19087TIP3    H178676   5.722   3.946  11.590  0.5754 -1.0230  2.3261
19087TIP3    H278677   5.714   4.089  11.640  0.7626 -0.8911  1.9887
19088TIP3   OH278678   0.515   1.701   5.445 -0.2436  0.1319 -0.2395
19088TIP3    H178679   0.578   1.756   5.398  0.7996  0.3992  1.3843
19088TIP3    H278680   0.561   1.675   5.525 -1.5985 -1.1043  0.1822
19089TIP3   OH278681   4.040   6.275   5.433 -0.0269 -0.0022 -0.0376
19089TIP3    H178682   4.098   6.351   5.435 -0.8748  0.6592  0.1672
19089TIP3    H278683   3.959   6.306   5.476  0.3580 -1.6487  2.0264
19090TIP3   OH278684   6.341   5.491  16.878 -0.2102  0.0344  0.2992
19090TIP3    H178685   6.434   5.470  16.865 -0.4918  0.4450 -3.4362
19090TIP3    H278686   6.304   5.410  16.912  1.2675 -0.6436  0.3999
19091TIP3   OH278687   1.156   4.712   3.587  0.0062  0.2913 -0.0011
19091TIP3    H178688   1.158   4.616   3.577  1.0741  0.4327 -1.3125
19091TIP3    H278689   1.240   4.733   3.626 -0.1689  0.7160  0.1442
19092TIP3   OH278690   3.777   3.615   1.821  0.2673 -0.3433  0.1351
19092TIP3    H178691   3.693   3.584   1.789 -1.3219  2.6230  1.0227
19092TIP3    H278692   3.819   3.655   1.744 -1.0905  1.8574  0.4365
19093TIP3   OH278693   1.352   4.340  14.859 -0.2879 -0.3417 -0.3732
19093TIP3    H178694   1.367   4.433  14.879  0.3428 -0.1550 -1.6007
19093TIP3    H278695   1.266   4.322  14.897 -0.3520  0.7033  0.0306
19094TIP3   OH278696   1.901   1.078  15.777  0.0892  0.2199  0.0343
19094TIP3    H178697   1.855   1.134  15.715 -0.4810 -1.1638 -0.8371
19094TIP3    H278698   1.991   1.077  15.747 -0.0018  0.2890 -0.2460
19095TIP3   OH278699   3.331   3.723   2.971  0.4903 -0.0244  0.3548
19095TIP3    H178700   3.335   3.637   3.013 -0.8142  0.2670  1.1446
19095TIP3    H278701   3.313   3.704   2.879 -0.5821 -0.5997  0.6644
19096TIP3   OH278702   1.700   1.579  16.842 -0.0964 -0.0951  0.1029
19096TIP3    H178703   1.782   1.621  16.869 -0.7372  0.9175  0.4895
19096TIP3    H278704   1.646   1.650  16.808 -0.8845 -0.7391 -0.0158
19097TIP3   OH278705   4.304   0.674   3.365 -0.4157 -0.4162 -0.0872
19097TIP3    H178706   4.226   0.619   3.380 -1.0191  0.7313  1.1639
19097TIP3    H278707   4.377   0.619   3.392 -1.0300 -0.5604  1.3641
19098TIP3   OH278708   2.183   1.235   1.692 -0.2198  0.1393 -0.1202
19098TIP3    H178709   2.162   1.239   1.599 -3.5692  1.2261  0.5592
19098TIP3    H278710   2.174   1.325   1.723  2.4833  0.1154  1.0358
19099TIP3   OH278711   6.127   6.505  15.988  0.3802  0.5996 -0.0203
19099TIP3    H178712   6.118   6.504  15.893 -0.3945  1.4872  0.0311
19099TIP3    H278713   6.145   6.414  16.012  2.2492  0.6234 -1.1553
19100TIP3   OH278714   1.153   0.244   4.808 -0.1941 -0.8149  0.0708
19100TIP3    H178715   1.150   0.181   4.735  2.1573 -2.1872  1.0422
19100TIP3    H278716   1.187   0.324   4.769  0.7098 -1.4296 -0.4397
19101TIP3   OH278717   4.763   5.170   2.526  0.0120 -0.0692 -0.4650
19101TIP3    H178718   4.791   5.231   2.593 -1.3532 -0.2432  0.2949
19101TIP3    H278719   4.829   5.178   2.457  1.9479 -0.5327  1.2367
19102TIP3   OH278720   0.056   1.167   3.657 -0.4536 -0.3115 -0.6033
19102TIP3    H178721   0.028   1.198   3.571  0.8235  0.7917 -0.6560
19102TIP3    H278722   0.050   1.244   3.714 -0.4197 -0.8011  0.0811
19103TIP3   OH278723   6.224   1.430   1.601 -0.0480 -0.4863  0.0903
19103TIP3    H178724   6.305   1.447   1.553 -0.0876  0.1179  0.2281
19103TIP3    H278725   6.202   1.515   1.641  0.1836 -1.0522  1.4743
19104TIP3   OH278726   4.589   0.917   3.394 -0.8180  0.1303  0.0018
19104TIP3    H178727   4.683   0.903   3.405 -0.5741  1.6303  0.1498
19104TIP3    H278728   4.553   0.906   3.482 -0.6560  0.2763  0.0886
19105TIP3   OH278729   3.267   5.186  16.519  0.0340  0.2612  0.5965
19105TIP3    H178730   3.231   5.197  16.607  0.8233  0.6830  0.8735
19105TIP3    H278731   3.291   5.274  16.491 -0.0350  0.1071  0.0304
19106TIP3   OH278732   3.758   0.670   2.643 -0.0779 -0.4066 -0.2499
19106TIP3    H178733   3.676   0.620   2.645 -0.5434  0.3592  1.0007
19106TIP3    H278734   3.734   0.756   2.678  1.0164  0.2233 -0.9994
19107TIP3   OH278735   2.735   3.864   6.495 -0.4418  0.0434 -0.2014
19107TIP3    H178736   2.643   3.891   6.491 -1.1265 -1.7061  1.7598
19107TIP3    H278737   2.732   3.769   6.497  1.3107 -0.0366  1.1681
19108TIP3   OH278738   2.507   0.081  12.482 -0.4384 -0.6338 -0.3928
19108TIP3    H178739   2.538   0.010  12.427 -1.2804 -1.3434  0.0134
19108TIP3    H278740   2.424   0.049  12.517 -1.6370  1.1447 -1.4243
19109TIP3   OH278741   6.687   5.707   5.000 -0.0564 -0.3759 -0.9866
19109TIP3    H178742   6.728   5.785   5.038 -0.0742 -0.4496 -0.8131
19109TIP3    H278743   6.653   5.736   4.916 -0.3704 -0.1042 -0.7707
19110TIP3   OH278744   2.093   1.814   4.864  0.1364 -0.0511  0.5209
19110TIP3    H178745   2.045   1.808   4.947 -0.0873  0.8505  0.4641
19110TIP3    H278746   2.165   1.752   4.874  0.2262  0.1876  1.4666
19111TIP3   OH278747   4.628   1.588   0.491  0.0347 -0.1296  0.3021
19111TIP3    H178748   4.612   1.676   0.456  0.5326 -0.3604 -0.5282
19111TIP3    H278749   4.656   1.537   0.415 -1.4173 -1.3216  0.5227
19112TIP3   OH278750   5.278   0.164   0.671 -0.3480 -0.2491  0.0478
19112TIP3    H178751   5.278   0.258   0.652  0.7752 -0.3017 -0.2737
19112TIP3    H278752   5.370   0.139   0.666 -0.4108 -1.0061  1.9307
19113TIP3   OH278753   3.791   1.951   4.199 -0.1848 -0.1903 -0.1187
19113TIP3    H178754   3.754   2.028   4.243 -0.5380 -0.6814  0.4581
19113TIP3    H278755   3.714   1.898   4.177  0.0396 -0.2404 -0.7766
19114TIP3   OH278756   6.137   1.387  14.199  0.1846  0.6166 -0.1927
19114TIP3    H178757   6.117   1.431  14.117 -0.1148  1.6022  0.3897
19114TIP3    H278758   6.069   1.321  14.208  0.3530  0.3510 -0.8490
19115TIP3   OH278759   0.941   2.080   6.188  0.2311  0.6996  0.0130
19115TIP3    H178760   0.941   2.079   6.284  2.4019  1.4620  0.0799
19115TIP3    H278761   0.874   2.143   6.165  1.4917  2.5624  1.1648
19116TIP3   OH278762   0.866   2.807  10.863 -0.4339  0.1595  0.4711
19116TIP3    H178763   0.932   2.862  10.906 -0.1894  1.8496 -1.8906
19116TIP3    H278764   0.809   2.869  10.818 -0.7308 -1.4717 -1.5320
19117TIP3   OH278765   0.857   5.781  15.943  0.1399 -0.4889 -0.1430
19117TIP3    H178766   0.949   5.759  15.955  0.1585  0.0029  0.7639
19117TIP3    H278767   0.858   5.865  15.896  0.1514 -0.6397 -0.4085
19118TIP3   OH278768   2.903   2.641   2.296 -0.0887 -0.2984 -0.1943
19118TIP3    H178769   2.947   2.582   2.236 -1.0911  0.6670 -1.9510
19118TIP3    H278770   2.922   2.606   2.383  1.0216 -1.9949 -1.0833
19119TIP3   OH278771   3.392   2.791   4.997  0.1122  0.0633 -0.3245
19119TIP3    H178772   3.338   2.712   5.005 -0.0221  0.2812  1.4212
19119TIP3    H278773   3.417   2.794   4.905 -0.2941 -1.7384 -0.5373
19120TIP3   OH278774   4.269   4.432  14.301 -0.0042  0.1643  0.6209
19120TIP3    H178775   4.247   4.419  14.394  1.7176 -0.0922  1.0160
19120TIP3    H278776   4.364   4.437  14.299  0.1317 -1.9816 -1.4111
19121TIP3   OH278777   6.294   2.735  11.993 -0.3706 -0.1123  0.3445
19121TIP3    H178778   6.357   2.786  12.044 -1.0246  1.6147 -0.5004
19121TIP3    H278779   6.223   2.796  11.975 -0.9217 -1.1592 -1.2121
19122TIP3   OH278780   4.234   3.530   2.697 -0.5518  0.0850  0.7082
19122TIP3    H178781   4.272   3.604   2.650 -0.0038  0.0380  1.0705
19122TIP3    H278782   4.191   3.569   2.773  0.1036  0.0016  1.1314
19123TIP3   OH278783   2.207   5.481   1.265  0.6034  0.2547  0.0107
19123TIP3    H178784   2.228   5.410   1.204 -0.4151 -0.1609  0.1253
19123TIP3    H278785   2.199   5.559   1.210 -0.2781 -0.1096 -0.3967
19124TIP3   OH278786   3.975   0.833  12.471 -0.4283 -0.7657 -0.2883
19124TIP3    H178787   4.030   0.777  12.526  0.9129  0.5431 -0.2382
19124TIP3    H278788   3.889   0.790  12.471 -0.1058 -1.5327  1.7100
19125TIP3   OH278789   0.440   6.137  14.625 -0.7254 -0.8768  0.2313
19125TIP3    H178790   0.398   6.071  14.681  1.0663 -0.8144  1.7105
19125TIP3    H278791   0.446   6.215  14.679 -1.6195  0.1473 -1.0760
19126TIP3   OH278792   4.864   6.570   1.144 -0.0686 -0.0123  0.4763
19126TIP3    H178793   4.940   6.514   1.134 -0.3957 -0.1558 -1.4864
19126TIP3    H278794   4.896   6.645   1.195  1.5570  0.2332 -0.8256
19127TIP3   OH278795   2.623   0.181   5.394  0.1601  0.1621 -0.1326
19127TIP3    H178796   2.685   0.192   5.466 -1.2334  1.1453  0.9798
19127TIP3    H278797   2.592   0.091   5.402 -1.3199  0.7663  1.6904
19128TIP3   OH278798   4.535   3.662   1.351  0.5005 -0.5274  0.1391
19128TIP3    H178799   4.462   3.604   1.329 -0.0244 -0.2184  1.0387
19128TIP3    H278800   4.599   3.605   1.394 -0.2670 -0.3514  1.5556
19129TIP3   OH278801   5.769   5.374  11.970 -0.6143  0.2678 -0.4794
19129TIP3    H178802   5.677   5.401  11.974 -0.6922 -0.1576  1.4608
19129TIP3    H278803   5.766   5.288  11.928 -1.3627 -0.6227  1.2891
19130TIP3   OH278804   1.944   0.468   1.252  0.5339  0.0956  0.3666
19130TIP3    H178805   1.904   0.514   1.178  2.4656  2.7152  0.8037
19130TIP3    H278806   1.871   0.452   1.313 -0.2051  3.5047  0.5776
19131TIP3   OH278807   4.207   4.376   2.830  0.0041  0.1084 -0.0013
19131TIP3    H178808   4.241   4.287   2.837  1.5092  0.5926 -0.5766
19131TIP3    H278809   4.219   4.398   2.737 -2.7722  0.0275 -0.4568
19132TIP3   OH278810   3.043   6.445  17.041 -0.6342 -0.0492 -0.7856
19132TIP3    H178811   3.090   6.507  16.986  0.5589 -0.8023 -0.6448
19132TIP3    H278812   3.041   6.487  17.127 -1.2351  0.4844 -1.0494
19133TIP3   OH278813   5.223   5.079   1.265  0.0031 -0.6817 -0.3563
19133TIP3    H178814   5.294   5.062   1.326 -1.1897 -0.3165  1.1955
19133TIP3    H278815   5.267   5.109   1.185  1.5530  1.5188  1.1980
19134TIP3   OH278816   4.794   6.105   0.882  0.0079 -0.2445 -0.0103
19134TIP3    H178817   4.716   6.124   0.829 -0.0705 -1.6074 -0.4110
19134TIP3    H278818   4.861   6.083   0.818  0.3697 -0.3186  0.3965
19135TIP3   OH278819   6.043   2.264   3.387  0.2907 -0.3462  0.1155
19135TIP3    H178820   5.965   2.313   3.360  0.5029  0.6106  1.1969
19135TIP3    H278821   6.020   2.172   3.371 -0.5268  0.0121 -0.8955
19136TIP3   OH278822   0.572   4.291  11.427 -0.2371 -0.5504 -0.1731
19136TIP3    H178823   0.524   4.212  11.453  0.7099 -0.9867  0.3133
19136TIP3    H278824   0.547   4.306  11.336 -1.2922 -0.7533  0.0706
19137TIP3   OH278825   0.564   0.078  17.027 -0.1392 -0.3776  0.9254
19137TIP3    H178826   0.624   0.148  17.057  0.7634 -0.5832 -0.3325
19137TIP3    H278827   0.519   0.116  16.952 -0.8593 -0.5861  1.2515
19138TIP3   OH278828   5.863   2.605  12.883  0.2362 -0.2777  0.3908
19138TIP3    H178829   5.888   2.691  12.850 -0.7481 -0.3201 -0.5035
19138TIP3    H278830   5.777   2.589  12.846 -0.6426 -0.6393  2.4846
19139TIP3   OH278831   6.428   5.743   3.682 -0.1644 -0.2714 -0.7306
19139TIP3    H178832   6.347   5.791   3.696  1.1844  1.3601  2.5278
19139TIP3    H278833   6.402   5.651   3.685 -2.0280  0.1935 -1.1559
19140TIP3   OH278834   4.318   1.952  16.030  0.2679 -0.4706 -0.2811
19140TIP3    H178835   4.359   1.872  15.997  1.7580 -0.2341  0.9228
19140TIP3    H278836   4.390   2.013  16.042 -0.7087  0.6839 -0.0959
19141TIP3   OH278837   6.108   0.164  10.401  0.0558  0.4369 -0.3792
19141TIP3    H178838   6.123   0.226  10.329 -0.4811 -1.0792 -1.8711
19141TIP3    H278839   6.196   0.143  10.433  0.2520  1.8144  0.0300
19142TIP3   OH278840   6.383   1.089   0.759 -0.2800  0.1108 -0.1598
19142TIP3    H178841   6.449   1.107   0.826  0.2695  0.3272 -0.7481
19142TIP3    H278842   6.379   1.169   0.708 -0.1880 -0.2948 -0.8098
19143TIP3   OH278843   6.532   1.171   3.758  0.0975 -0.2256  0.4558
19143TIP3    H178844   6.448   1.140   3.793 -0.9353  1.1316 -0.7383
19143TIP3    H278845   6.567   1.228   3.827  0.3391 -1.2156  1.1847
19144TIP3   OH278846   1.515   2.383   4.135  0.3256 -0.7884  0.0066
19144TIP3    H178847   1.601   2.344   4.116 -0.5199 -3.1023  0.5973
19144TIP3    H278848   1.460   2.357   4.061 -0.1499 -0.3065  0.1881
19145TIP3   OH278849   4.364   1.521  17.127  0.4643  0.8572 -0.5064
19145TIP3    H178850   4.365   1.598  17.069  0.9993  3.1051  2.2740
19145TIP3    H278851   4.273   1.515  17.156  0.5212  0.7190 -0.3613
19146TIP3   OH278852   4.224   5.557   2.241  0.0727  0.3255 -0.5686
19146TIP3    H178853   4.183   5.643   2.242 -0.0757  0.3074  1.9542
19146TIP3    H278854   4.164   5.502   2.292 -0.3431 -1.5694 -2.9597
19147TIP3   OH278855   4.727   1.171  14.476 -0.3253  0.1067  0.3098
19147TIP3    H178856   4.658   1.226  14.440 -1.1080 -0.5464  0.7766
19147TIP3    H278857   4.681   1.109  14.533  0.6838 -0.1252  0.8907
19148TIP3   OH278858   4.829   1.098  12.990  0.5862 -0.1594  0.0619
19148TIP3    H178859   4.766   1.127  13.057  0.8447  0.3721  0.0814
19148TIP3    H278860   4.857   1.011  13.019 -0.6274 -0.6897 -0.2885
19149TIP3   OH278861   5.472   3.030  12.048  0.3773  0.0814  0.2103
19149TIP3    H178862   5.399   3.076  12.090 -0.7736 -0.3785 -1.2113
19149TIP3    H278863   5.488   3.079  11.967  0.7251 -0.6159 -0.1565
19150TIP3   OH278864   5.636   4.497   2.773  0.0942 -0.0327 -0.3129
19150TIP3    H178865   5.549   4.460   2.758 -1.0860  1.7328  1.5912
19150TIP3    H278866   5.634   4.582   2.728  0.7839  0.0766 -0.1465
19151TIP3   OH278867   3.907   0.144  16.984 -0.3230 -0.1545 -0.6980
19151TIP3    H178868   3.900   0.229  16.940  0.5599  0.3212  0.0456
19151TIP3    H278869   3.979   0.155  17.046  0.2974 -1.6901 -1.1162
19152TIP3   OH278870   1.518   1.127  12.986  0.5404 -0.3232 -0.1047
19152TIP3    H178871   1.467   1.173  12.920  2.3341  0.2859 -1.1443
19152TIP3    H278872   1.465   1.133  13.066 -0.1929  1.8412 -0.6788
19153TIP3   OH278873   4.772   0.834   5.789  0.0983 -0.0600 -0.1428
19153TIP3    H178874   4.756   0.792   5.874 -0.1308 -1.8796 -1.0255
19153TIP3    H278875   4.849   0.889   5.803 -0.9826  1.0904  1.6709
19154TIP3   OH278876   0.506   4.066   3.123 -0.2421  0.3755  0.5949
19154TIP3    H178877   0.599   4.042   3.126 -0.3145  0.0044 -0.0465
19154TIP3    H278878   0.461   3.995   3.168 -0.0456  1.5820  2.8637
19155TIP3   OH278879   0.487   2.990  11.219 -0.0542  0.1621  0.1770
19155TIP3    H178880   0.455   3.058  11.159  0.5301  0.1800 -0.1235
19155TIP3    H278881   0.525   2.924  11.161  2.4668  1.1743  0.5672
19156TIP3   OH278882   5.259   1.428   1.833  0.2817  0.0328  0.0771
19156TIP3    H178883   5.348   1.462   1.832  0.2099  0.4381  2.1922
19156TIP3    H278884   5.259   1.361   1.901 -1.1978  0.6333  0.7313
19157TIP3   OH278885   5.804   6.174  15.753 -1.0174  0.2297  0.5103
19157TIP3    H178886   5.731   6.115  15.772 -0.3823 -1.4020 -1.6602
19157TIP3    H278887   5.769   6.235  15.688 -0.3720 -0.9494 -1.0154
19158TIP3   OH278888   0.075   4.612  14.425  0.5076 -0.5719 -0.5499
19158TIP3    H178889   0.112   4.537  14.472  1.3654 -0.2808 -0.7519
19158TIP3    H278890   0.150   4.666  14.403 -0.1490  0.6430  0.0866
19159TIP3   OH278891   5.004   4.805  13.966  0.6927 -0.2082  0.0150
19159TIP3    H178892   5.089   4.811  13.924  0.6907 -0.5113 -0.0329
19159TIP3    H278893   4.946   4.770  13.898  0.9473 -1.8634  0.6247
19160TIP3   OH278894   0.649   1.674   5.683 -0.4891 -0.1086  0.5021
19160TIP3    H178895   0.723   1.725   5.650 -1.1120  0.1233 -0.5867
19160TIP3    H278896   0.676   1.647   5.771  0.9766 -0.2290  0.0380
19161TIP3   OH278897   0.398   0.937  12.316 -0.0084 -0.4994 -0.7194
19161TIP3    H178898   0.408   0.963  12.225  1.9542 -0.1717 -0.4529
19161TIP3    H278899   0.473   0.880  12.333  1.5295  1.9960  1.5337
19162TIP3   OH278900   1.838   2.816   4.117  0.4589 -0.2164  0.0533
19162TIP3    H178901   1.752   2.810   4.077  1.0778  1.3399 -1.6421
19162TIP3    H278902   1.868   2.725   4.122 -0.5847 -0.6354 -0.9272
19163TIP3   OH278903   3.857   2.114   5.343  0.0824  0.0631  0.2294
19163TIP3    H178904   3.928   2.117   5.279  0.8003  0.9417  1.0412
19163TIP3    H278905   3.796   2.049   5.308  1.5254 -1.0859 -0.2359
19164TIP3   OH278906   4.482   1.760  14.090 -0.1436 -0.3447  0.2081
19164TIP3    H178907   4.551   1.810  14.046  0.7354 -0.6567  1.1977
19164TIP3    H278908   4.450   1.818  14.160  0.2412 -0.8113  0.7759
19165TIP3   OH278909   4.630   4.811   4.090 -0.0993  0.0732  0.1555
19165TIP3    H178910   4.706   4.829   4.145 -0.0976  3.0086 -0.6416
19165TIP3    H278911   4.653   4.849   4.005 -2.2062  0.5485 -0.2561
19166TIP3   OH278912   3.159   0.970   3.090  0.6283 -0.2131  0.4268
19166TIP3    H178913   3.086   0.944   3.034 -0.1935 -0.0998  1.4379
19166TIP3    H278914   3.220   1.014   3.030  0.4573 -1.3938 -0.6500
19167TIP3   OH278915   1.900   2.673  13.805  0.3471  0.1103  0.0784
19167TIP3    H178916   1.805   2.666  13.814  0.1925  0.2064 -1.1696
19167TIP3    H278917   1.933   2.586  13.828 -0.2186 -0.4525 -1.1318
19168TIP3   OH278918   0.977   5.724   2.635  0.3191  0.1579  0.2095
19168TIP3    H178919   1.010   5.777   2.708 -0.0322 -0.9151  1.1869
19168TIP3    H278920   1.023   5.757   2.558  1.4534  0.6611  1.0786
19169TIP3   OH278921   3.636   1.880   5.928 -0.3243  0.0272  0.4072
19169TIP3    H178922   3.603   1.798   5.891 -0.4901  0.2918 -0.0412
19169TIP3    H278923   3.704   1.853   5.990  0.7719 -0.3897 -0.9198
19170TIP3   OH278924   4.234   3.938  13.482 -0.3201  0.3907  1.0452
19170TIP3    H178925   4.287   3.894  13.415  0.4961  0.6449  1.5092
19170TIP3    H278926   4.157   3.970  13.434 -0.0405  0.0462  0.3501
19171TIP3   OH278927   1.895   2.103   4.237 -0.4493  0.0697 -0.3820
19171TIP3    H178928   1.889   2.045   4.313  0.0575 -0.1073 -0.4719
19171TIP3    H278929   1.805   2.116   4.209 -0.8989  2.1786  1.7803
19172TIP3   OH278930   5.981   3.157  11.735 -0.1941 -0.2001 -0.1619
19172TIP3    H178931   5.932   3.204  11.802  0.6112  0.3700  0.0319
19172TIP3    H278932   6.068   3.145  11.772  0.3889  0.4937 -1.2695
19173TIP3   OH278933   0.774   1.507  14.698 -0.2973  0.2443 -0.1887
19173TIP3    H178934   0.816   1.571  14.755 -0.6988  1.6074 -1.3581
19173TIP3    H278935   0.682   1.506  14.726 -0.4211  0.6500 -0.5763
19174TIP3   OH278936   4.009   5.209   0.946 -0.4453  0.1755  0.0184
19174TIP3    H178937   4.058   5.131   0.921 -1.9004 -0.7413 -0.0904
19174TIP3    H278938   3.926   5.176   0.979 -1.5542  1.7165 -1.0672
19175TIP3   OH278939   4.713   6.335  13.268 -0.5309  0.1877 -0.0250
19175TIP3    H178940   4.620   6.336  13.248 -0.2638 -1.2554 -1.5911
19175TIP3    H278941   4.736   6.427  13.279 -1.5556  0.8548 -2.7046
19176TIP3   OH278942   5.411   2.718   1.604  0.4470  0.8803 -0.1036
19176TIP3    H178943   5.415   2.630   1.643  0.9007  0.0777 -1.8709
19176TIP3    H278944   5.320   2.729   1.578  0.2813  1.1594  0.5672
19177TIP3   OH278945   2.446   0.043  14.340 -0.0367 -0.2723  0.2103
19177TIP3    H178946   2.400   0.017  14.421  1.6933  0.1900  1.3889
19177TIP3    H278947   2.414   0.131  14.322 -0.7078 -0.5174  0.1643
19178TIP3   OH278948   2.808   5.664  15.263  0.1854  0.1214 -0.3616
19178TIP3    H178949   2.836   5.685  15.174 -0.7903 -0.6593 -0.8746
19178TIP3    H278950   2.887   5.631  15.306  0.7355  0.7991 -0.8277
19179TIP3   OH278951   0.658   5.344  12.331  0.2471  0.1306  0.1618
19179TIP3    H178952   0.700   5.408  12.273 -0.8724  0.0508 -0.7521
19179TIP3    H278953   0.582   5.389  12.367  0.5831 -0.0255  1.1251
19180TIP3   OH278954   6.263   0.449   2.569 -0.1873 -0.5061  0.3813
19180TIP3    H178955   6.249   0.528   2.518  0.9555 -1.1226 -0.9369
19180TIP3    H278956   6.175   0.424   2.599 -0.5497  1.2688  0.8945
19181TIP3   OH278957   5.370   3.864  17.009 -0.3264  0.0782  0.0420
19181TIP3    H178958   5.305   3.798  16.987  0.3932 -0.8329  0.5651
19181TIP3    H278959   5.428   3.866  16.932 -0.7352  0.5972 -0.2558
19182TIP3   OH278960   0.392   1.845   4.443 -0.4293  0.5486 -0.1725
19182TIP3    H178961   0.301   1.875   4.448 -0.1017  1.4127  1.2818
19182TIP3    H278962   0.389   1.755   4.476 -0.9293  0.0725 -1.4382
19183TIP3   OH278963   2.052   1.146   4.690  0.6211 -0.1040 -0.1424
19183TIP3    H178964   1.967   1.172   4.727 -0.1813 -0.2038 -1.8447
19183TIP3    H278965   2.088   1.226   4.654  1.5594  0.0577  1.0819
19184TIP3   OH278966   4.212   4.536  15.009 -0.3356 -0.1243  0.1930
19184TIP3    H178967   4.218   4.441  15.020 -0.3416 -0.0248  1.1792
19184TIP3    H278968   4.280   4.571  15.066  0.1851  0.4479 -0.7618
19185TIP3   OH278969   1.196   5.265   0.078 -0.6735 -0.1158  0.3401
19185TIP3    H178970   1.238   5.193   0.030  0.3060  1.1327 -0.7740
19185TIP3    H278971   1.269   5.316   0.114 -1.3794 -0.4266  2.2993
19186TIP3   OH278972   1.992   0.190   3.817  0.0844  0.2180 -0.2590
19186TIP3    H178973   2.066   0.175   3.876  1.2222 -0.4432 -1.7752
19186TIP3    H278974   2.029   0.179   3.729 -1.3028  2.2052 -1.1646
19187TIP3   OH278975   3.900   1.182   0.260 -0.2768 -0.4013 -0.3401
19187TIP3    H178976   3.942   1.244   0.200  1.6162  0.1587  1.4547
19187TIP3    H278977   3.806   1.201   0.252  0.1548  1.8616 -0.7370
19188TIP3   OH278978   3.143   2.264  17.070  0.0041 -0.6216  0.3634
19188TIP3    H178979   3.067   2.309  17.106  0.6582 -0.5956  1.7607
19188TIP3    H278980   3.144   2.290  16.977 -1.4029 -0.2599  0.4276
19189TIP3   OH278981   2.914   1.094   3.185 -0.5380 -0.3851 -0.0616
19189TIP3    H178982   2.914   1.172   3.240  0.9840 -1.0664  0.9881
19189TIP3    H278983   3.001   1.094   3.144 -0.6494 -1.3178 -0.3251
19190TIP3   OH278984   1.848   4.762  15.134 -0.3096 -0.3363  0.2234
19190TIP3    H178985   1.817   4.694  15.193  0.6913 -0.5103  0.5829
19190TIP3    H278986   1.874   4.834  15.192  1.5164 -0.8430  0.0967
19191TIP3   OH278987   3.176   1.972   3.787  0.1454 -0.5993  0.6174
19191TIP3    H178988   3.231   1.921   3.728 -0.4487  0.1854 -0.6606
19191TIP3    H278989   3.227   2.049   3.808 -0.7031  0.5008 -1.1783
19192TIP3   OH278990   3.966   4.036   0.001 -0.1225  0.5068 -0.1447
19192TIP3    H178991   3.973   4.088   0.081 -1.8078  1.0044 -0.2892
19192TIP3    H278992   3.942   3.949   0.030  2.9018 -0.3532  0.1122
19193TIP3   OH278993   6.012   5.005   2.903  0.7198  0.6992 -0.3240
19193TIP3    H178994   5.954   4.933   2.929  0.4997  0.9616 -0.0730
19193TIP3    H278995   6.095   4.985   2.945  0.6590  0.5904 -0.2535
19194TIP3   OH278996   0.153   2.162   2.871  0.0313  0.0425 -0.0533
19194TIP3    H178997   0.081   2.098   2.869  0.7122 -0.8731  1.8064
19194TIP3    H278998   0.228   2.112   2.902  0.9713  1.4338 -0.0003
19195TIP3   OH278999   3.884   6.388   2.938 -0.1412 -0.0072 -0.0303
19195TIP3    H179000   3.941   6.448   2.986 -0.9603 -1.0178  2.3871
19195TIP3    H279001   3.817   6.445   2.899  1.0065  0.9263 -0.7176
19196TIP3   OH279002   0.420   0.704  11.549  0.1079  0.7193 -0.0387
19196TIP3    H179003   0.427   0.689  11.455 -1.6906  1.9123 -0.4151
19196TIP3    H279004   0.458   0.790  11.563 -1.6817  1.5628 -0.0892
19197TIP3   OH279005   0.306   5.207  11.955  0.5854 -0.3664  0.1567
19197TIP3    H179006   0.382   5.182  11.903 -0.9701 -0.7253 -2.0747
19197TIP3    H279007   0.327   5.296  11.986  2.8528 -1.3274  1.6337
19198TIP3   OH279008   2.316   3.756  12.815 -0.2843 -0.0919 -0.0975
19198TIP3    H179009   2.356   3.677  12.853  1.1192 -0.4948 -2.2466
19198TIP3    H279010   2.388   3.800  12.770 -1.6243  0.9423 -1.3152
19199TIP3   OH279011   0.598   3.869  13.321  0.0022 -0.4788  0.4302
19199TIP3    H179012   0.511   3.891  13.288  0.7626  2.3190 -0.0318
19199TIP3    H279013   0.604   3.915  13.405  1.0559 -0.5483  0.4153
19200TIP3   OH279014   5.802   1.489   0.167 -0.5672  0.5908  0.6693
19200TIP3    H179015   5.724   1.464   0.216 -1.0436  0.4617 -0.1236
19200TIP3    H279016   5.767   1.536   0.091 -0.0679 -1.6897 -1.0866
19201TIP3   OH279017   3.074   0.170  14.005 -0.4012  0.0930 -0.1064
19201TIP3    H179018   3.022   0.097  14.038 -1.2514  0.5340 -0.4444
19201TIP3    H279019   3.010   0.230  13.967  0.3400  0.7368 -0.3663
19202TIP3   OH279020   3.268   2.911   6.044  0.3602  0.4461  0.1353
19202TIP3    H179021   3.213   2.911   6.123 -1.5866 -1.7653 -1.1048
19202TIP3    H279022   3.224   2.972   5.985 -1.6898 -2.2263 -1.3195
19203TIP3   OH279023   2.864   6.617   5.954 -0.2297 -0.1907 -0.0624
19203TIP3    H179024   2.773   6.602   5.978 -0.3305 -3.6735 -1.9748
19203TIP3    H279025   2.911   6.544   5.995  1.5891  1.0120  0.1059
19204TIP3   OH279026   3.147   3.261   3.882  0.3072 -0.3855 -0.2450
19204TIP3    H179027   3.207   3.265   3.808 -0.3853 -2.1377 -0.9609
19204TIP3    H279028   3.076   3.322   3.859  0.7357  0.0588 -0.4016
19205TIP3   OH279029   4.364   2.493  11.412  0.0872 -0.0452 -0.0850
19205TIP3    H179030   4.409   2.457  11.488  0.6519  0.1700 -0.3151
19205TIP3    H279031   4.397   2.441  11.338  0.1764  0.3046 -0.2923
19206TIP3   OH279032   1.962   1.105   6.549  0.2552  0.4929 -0.1718
19206TIP3    H179033   1.941   1.198   6.545 -0.8425  0.2699 -0.0463
19206TIP3    H279034   2.057   1.101   6.541  0.3161  1.6220 -0.1656
19207TIP3   OH279035   1.552   6.749   5.714 -0.3963  0.7687  0.0654
19207TIP3    H179036   1.596   6.803   5.779  0.3874 -1.0419  1.0913
19207TIP3    H279037   1.616   6.682   5.690 -0.3130  1.8285 -3.2625
19208TIP3   OH279038   0.444   5.908   3.404 -0.1391 -0.4523  0.1329
19208TIP3    H179039   0.441   5.820   3.365  2.1718 -0.5150 -0.0292
19208TIP3    H279040   0.442   5.893   3.498 -0.1664 -0.6371  0.1032
19209TIP3   OH279041   2.370   0.530   1.153 -0.6045  0.3955  0.7007
19209TIP3    H179042   2.312   0.601   1.126  0.7696  1.1636 -0.3846
19209TIP3    H279043   2.439   0.528   1.086 -1.0295 -2.5443  0.1879
19210TIP3   OH279044   5.711   3.486  14.927 -0.2965  0.3234  0.0965
19210TIP3    H179045   5.624   3.525  14.916 -0.7977 -1.0211 -1.0086
19210TIP3    H279046   5.770   3.561  14.936 -1.1141  1.4341 -2.7340
19211TIP3   OH279047   5.105   2.668   1.288 -0.0441 -0.7518  0.1106
19211TIP3    H179048   5.191   2.691   1.253 -0.7003  1.0834 -0.4006
19211TIP3    H279049   5.104   2.572   1.287  1.2236 -0.8098 -1.8277
19212TIP3   OH279050   6.171   1.470  13.922  0.4167 -0.0138  0.6304
19212TIP3    H179051   6.239   1.515  13.972  0.2968 -0.6331  1.3674
19212TIP3    H279052   6.165   1.519  13.840  2.4226 -0.4959  0.1325
19213TIP3   OH279053   2.587   4.597  13.859  0.3156  0.4672  0.3417
19213TIP3    H179054   2.673   4.588  13.818  0.4611  0.8113  0.5683
19213TIP3    H279055   2.595   4.548  13.941  0.2187  0.2975  0.2509
19214TIP3   OH279056   1.353   0.601  16.786 -0.1242  0.6029  0.2882
19214TIP3    H179057   1.267   0.565  16.765  0.1308  0.3416 -0.3412
19214TIP3    H279058   1.415   0.544  16.740  0.5062 -0.2786  2.1194
19215TIP3   OH279059   0.301   3.097  16.008  0.5223 -0.2765 -0.5994
19215TIP3    H179060   0.290   3.176  15.953 -0.4459 -0.2883 -0.4484
19215TIP3    H279061   0.298   3.130  16.097 -1.6644 -0.6256 -0.4760
19216TIP3   OH279062   2.315   3.350   0.075 -0.1233  0.2855  0.5277
19216TIP3    H179063   2.392   3.311   0.117 -0.4929 -2.4393 -1.0954
19216TIP3    H279064   2.242   3.298   0.106 -0.9246  0.8841 -0.3036
19217TIP3   OH279065   4.684   6.043  10.611 -0.3565  0.2549  0.5828
19217TIP3    H179066   4.607   5.987  10.613  0.9576 -1.6654  0.6057
19217TIP3    H279067   4.728   6.027  10.695  2.2945 -2.1328 -1.0795
19218TIP3   OH279068   2.980   0.211  14.978 -0.0674 -0.1785 -0.0947
19218TIP3    H179069   2.919   0.277  15.012  1.4046  0.1531  2.1523
19218TIP3    H279070   2.978   0.141  15.043  1.2144 -0.5808 -0.4648
19219TIP3   OH279071   0.833   0.503  12.852 -0.0990 -0.0507  0.0551
19219TIP3    H179072   0.750   0.490  12.898  0.6500 -2.0379  0.9256
19219TIP3    H279073   0.817   0.468  12.764 -0.1514 -0.5692  0.2679
19220TIP3   OH279074   5.210   2.433   6.107 -0.0158  0.7912 -0.7092
19220TIP3    H179075   5.198   2.512   6.055 -0.5446  0.9127 -0.4076
19220TIP3    H279076   5.154   2.445   6.183 -2.0640 -0.9152 -1.8306
19221TIP3   OH279077   4.796   0.086   2.599  0.0262  0.2453  0.1048
19221TIP3    H179078   4.705   0.115   2.613 -1.1651 -2.9013 -0.3049
19221TIP3    H279079   4.814   0.111   2.508 -1.0819 -0.5371 -0.3592
19222TIP3   OH279080   5.663   2.404  15.259  0.4512 -0.0834  0.1092
19222TIP3    H179081   5.618   2.337  15.311 -1.0915 -0.8447 -2.0772
19222TIP3    H279082   5.752   2.371  15.251 -0.2719 -1.9761 -0.9387
19223TIP3   OH279083   1.775   6.719   1.313 -0.2430  0.2337 -0.0738
19223TIP3    H179084   1.733   6.803   1.295  1.5149  1.2791  0.4576
19223TIP3    H279085   1.742   6.693   1.398 -0.0921  0.8721  0.1853
19224TIP3   OH279086   0.095   0.357   1.730 -0.2875  0.1398 -0.0637
19224TIP3    H179087   0.117   0.445   1.761 -2.5564  1.1500 -1.1034
19224TIP3    H279088   0.025   0.327   1.789  1.3748 -1.6224  1.1537
19225TIP3   OH279089   4.050   5.318   5.011 -0.3122 -0.7655 -0.1118
19225TIP3    H179090   4.060   5.405   4.973 -3.4136 -0.4985 -0.6020
19225TIP3    H279091   4.075   5.257   4.941 -0.1803 -0.2815 -0.4878
19226TIP3   OH279092   4.733   3.586   0.032 -0.3511 -0.0835 -0.3648
19226TIP3    H179093   4.820   3.599  -0.006 -0.0193 -1.5196 -0.1637
19226TIP3    H279094   4.749   3.533   0.110 -1.4255 -0.4933 -0.4096
19227TIP3   OH279095   2.970   5.556  15.811 -0.0769 -0.5357 -0.2311
19227TIP3    H179096   2.984   5.466  15.784 -1.5277  0.0445 -3.3827
19227TIP3    H279097   3.058   5.589  15.831  0.8223 -1.9019 -1.6976
19228TIP3   OH279098   3.488   4.018   4.610  0.3225 -0.4611 -0.1222
19228TIP3    H179099   3.549   4.051   4.676  1.5324  1.0288 -1.8740
19228TIP3    H279100   3.540   3.958   4.557  0.6190  1.3888 -2.0960
19229TIP3   OH279101   5.083   4.237  14.665  0.2215  0.4120  0.7510
19229TIP3    H179102   5.174   4.240  14.636  0.3743  0.2159  1.1933
19229TIP3    H279103   5.072   4.316  14.717 -0.0914  0.8340  0.0442
19230TIP3   OH279104   3.597   1.720   4.410  0.0248 -0.1323  0.0890
19230TIP3    H179105   3.633   1.635   4.385 -2.2241 -1.3603  0.6604
19230TIP3    H279106   3.601   1.773   4.330  0.4269 -1.1833 -0.6085
19231TIP3   OH279107   0.839   5.803  12.467 -0.2161  0.1507 -0.1928
19231TIP3    H179108   0.925   5.770  12.491 -1.1077 -3.4389 -1.1977
19231TIP3    H279109   0.856   5.875  12.407  2.0313  0.2736  0.5172
19232TIP3   OH279110   2.265   5.866  16.018 -0.5735  0.1919  0.2891
19232TIP3    H179111   2.340   5.900  16.067 -1.6626  0.7459  1.6361
19232TIP3    H279112   2.299   5.850  15.930  1.2383 -0.0308  0.9812
19233TIP3   OH279113   1.437   5.348  11.799  0.3810  0.2284  0.1647
19233TIP3    H179114   1.419   5.418  11.737  0.4944 -0.1626 -0.3144
19233TIP3    H279115   1.481   5.281  11.747 -2.5880 -1.6075 -0.1831
19234TIP3   OH279116   5.637   4.611   1.881  0.5539  0.1850 -0.2976
19234TIP3    H179117   5.560   4.555   1.889  0.1422  0.7801 -0.0613
19234TIP3    H279118   5.691   4.589   1.957 -0.6936  1.7545  1.1236
19235TIP3   OH279119   0.844   3.493  14.482  0.6582 -0.4530  0.1907
19235TIP3    H179120   0.863   3.470  14.391  0.3243  0.9167 -0.2563
19235TIP3    H279121   0.915   3.553  14.506 -0.0964  0.4083  0.3066
19236TIP3   OH279122   5.706   6.160  14.217 -0.0033 -0.4182 -0.1513
19236TIP3    H179123   5.675   6.226  14.154  0.5271 -1.8851 -2.0136
19236TIP3    H279124   5.643   6.088  14.209  1.1859 -1.4473 -0.4802
19237TIP3   OH279125   1.449   6.158  12.026 -0.5977  0.1027 -0.3520
19237TIP3    H179126   1.493   6.118  12.101  1.1407  1.4923 -0.5902
19237TIP3    H279127   1.373   6.101  12.011  0.1074 -1.3498  1.1885
19238TIP3   OH279128   4.723   2.524   0.246 -0.7904  0.0746 -0.3660
19238TIP3    H179129   4.636   2.539   0.209 -0.1819  1.8986 -1.2072
19238TIP3    H279130   4.742   2.605   0.293  0.8001  0.0715 -0.9616
19239TIP3   OH279131   6.301   4.202   5.760  0.3558 -0.1291 -0.2416
19239TIP3    H179132   6.334   4.283   5.720 -0.1301  0.0152 -0.3455
19239TIP3    H279133   6.233   4.231   5.820  0.0714 -0.4809 -0.3949
19240TIP3   OH279134   4.699   2.022   2.481  0.2649 -0.0890  0.5780
19240TIP3    H179135   4.704   1.929   2.461 -0.9323  0.1977 -1.2787
19240TIP3    H279136   4.656   2.026   2.566 -1.4825 -1.2000 -0.2047
19241TIP3   OH279137   4.717   0.835  13.347  0.0410 -0.0651  0.2060
19241TIP3    H179138   4.623   0.839  13.329 -0.0675  3.8152  0.6907
19241TIP3    H279139   4.753   0.777  13.279 -2.5990 -1.2160 -0.3041
19242TIP3   OH279140   2.743   1.409   5.533  0.2921 -0.2407  0.5656
19242TIP3    H179141   2.752   1.351   5.457 -1.5843 -0.7956  0.7030
19242TIP3    H279142   2.818   1.388   5.588 -0.3792 -2.7262  0.6869
19243TIP3   OH279143   4.186   0.996  12.321 -0.0246  0.0962 -0.0115
19243TIP3    H179144   4.257   0.943  12.284  1.6838  2.0080  0.3574
19243TIP3    H279145   4.191   0.980  12.415 -1.6139 -1.4629 -0.1178
19244TIP3   OH279146   6.363   1.556   2.263  0.6847 -0.4121 -0.4934
19244TIP3    H179147   6.428   1.624   2.283 -1.6435  1.5382  0.9852
19244TIP3    H279148   6.391   1.481   2.314  1.2430  0.7121  0.9298
19245TIP3   OH279149   5.185   3.545  16.686 -0.4253 -0.0603  0.1307
19245TIP3    H179150   5.186   3.463  16.735  0.1608  0.2434  0.6392
19245TIP3    H279151   5.253   3.536  16.621 -3.0909 -1.6533 -2.7044
19246TIP3   OH279152   3.348   3.588  14.880 -1.1200  0.4103 -0.1046
19246TIP3    H179153   3.339   3.672  14.925 -0.3771 -0.0230  0.8710
19246TIP3    H279154   3.422   3.600  14.821 -0.3048  0.1095  0.8374
19247TIP3   OH279155   4.886   6.767  11.486  0.1141  0.2244  0.3717
19247TIP3    H179156   4.799   6.789  11.520 -0.6614 -1.3103 -0.5587
19247TIP3    H279157   4.926   6.852  11.467 -1.0857  0.9621  1.0131
19248TIP3   OH279158   1.099   2.408  14.482 -0.0326 -0.1316 -0.3428
19248TIP3    H179159   1.124   2.371  14.397  0.6055  1.3096 -0.8259
19248TIP3    H279160   1.010   2.440  14.469  0.4730  1.1501 -0.8823
19249TIP3   OH279161   5.952   5.382   3.464 -0.4000  0.6179 -0.1620
19249TIP3    H179162   5.952   5.323   3.389 -0.1826 -0.4479  0.6450
19249TIP3    H279163   5.877   5.440   3.450  0.7075  1.6686 -2.1083
19250TIP3   OH279164   5.514   3.919  11.849  0.0769  0.2107  0.0487
19250TIP3    H179165   5.579   3.938  11.917  0.2531  2.1958 -0.6072
19250TIP3    H279166   5.556   3.948  11.768 -0.5306 -1.1694 -0.7859
19251TIP3   OH279167   4.138   3.031   2.331  0.1983 -0.1511  0.1642
19251TIP3    H179168   4.119   3.021   2.424  2.4912  0.5521  0.7878
19251TIP3    H279169   4.070   3.091   2.299 -2.9497 -3.2952  0.3844
19252TIP3   OH279170   1.698   5.631   3.200  0.1250 -0.3326  0.0307
19252TIP3    H179171   1.676   5.701   3.139 -0.1589  0.9704  1.5340
19252TIP3    H279172   1.614   5.598   3.230  0.2190  0.3539  1.1086
19253TIP3   OH279173   0.409   6.671  16.756 -0.1814 -0.7065  0.1050
19253TIP3    H179174   0.345   6.737  16.729  0.9815  0.9602  1.2253
19253TIP3    H279175   0.421   6.617  16.678 -2.0551 -0.3512 -0.4916
19254TIP3   OH279176   3.379   2.881   4.037  0.2029  0.4510  0.3867
19254TIP3    H179177   3.290   2.916   4.035  0.9325  2.4345 -0.2171
19254TIP3    H279178   3.384   2.822   3.963 -1.0078 -0.8141  1.2699
19255TIP3   OH279179   3.233   2.522  16.023 -0.2979 -0.1797  0.1609
19255TIP3    H179180   3.209   2.614  16.013  0.5774  0.3180  2.0283
19255TIP3    H279181   3.317   2.524  16.070  0.0450 -1.9284 -0.2783
19256TIP3   OH279182   1.496   3.231   2.456  0.1955  0.2735  0.2435
19256TIP3    H179183   1.408   3.232   2.493 -0.4301 -1.2002 -1.0597
19256TIP3    H279184   1.507   3.317   2.415 -0.8720  0.2871 -0.0451
19257TIP3   OH279185   1.596   3.875   2.689 -0.2914 -0.1067  0.6307
19257TIP3    H179186   1.677   3.867   2.739  0.6072 -2.0161 -0.9560
19257TIP3    H279187   1.533   3.821   2.737  0.1402 -0.7319  0.5056
19258TIP3   OH279188   6.361   3.075  15.655 -0.1091  0.0284  0.1737
19258TIP3    H179189   6.390   3.144  15.595 -0.2329  0.3570  0.4849
19258TIP3    H279190   6.381   3.109  15.742  1.0240 -0.8774  0.2943
19259TIP3   OH279191   5.287   5.494   6.701  0.1677  0.2522 -0.6762
19259TIP3    H179192   5.253   5.430   6.638 -0.3228  0.2016 -0.3606
19259TIP3    H279193   5.380   5.471   6.709 -0.3227 -1.4925  0.6691
19260TIP3   OH279194   4.849   3.479   5.964  0.6528  0.5742 -0.3473
19260TIP3    H179195   4.806   3.540   5.904  1.7822  0.6752 -1.1042
19260TIP3    H279196   4.790   3.404   5.968 -0.7788  1.7022  0.6361
19261TIP3   OH279197   1.992   1.288   3.497 -0.0005  0.1748 -0.0314
19261TIP3    H179198   2.005   1.244   3.581 -0.0913  0.2883  0.0426
19261TIP3    H279199   2.042   1.370   3.505 -0.0945  0.2341 -0.0480
19262TIP3   OH279200   5.747   6.594  17.162  0.4100  0.5569  0.1302
19262TIP3    H179201   5.738   6.500  17.146  2.3704  0.3328  0.0939
19262TIP3    H279202   5.660   6.622  17.190 -0.2603 -1.2260 -0.0394
19263TIP3   OH279203   5.448   2.567  16.126 -0.4741 -0.3160  0.2124
19263TIP3    H179204   5.463   2.648  16.077 -0.9675 -0.8174 -0.7979
19263TIP3    H279205   5.469   2.497  16.065 -1.5252 -0.9659  0.5608
19264TIP3   OH279206   6.678   6.209  13.902  0.0618  0.2253  0.0001
19264TIP3    H179207   6.630   6.131  13.877  2.8693 -1.9639  0.8701
19264TIP3    H279208   6.659   6.220  13.995  0.6282 -0.2030  0.1721
19265TIP3   OH279209   5.784   5.044  11.376 -0.1850  0.4782 -0.2337
19265TIP3    H179210   5.811   4.956  11.401  1.5963  0.6235 -1.4195
19265TIP3    H279211   5.864   5.083  11.339 -1.2511  2.1609 -0.8548
19266TIP3   OH279212   1.233   5.526   2.807 -0.3241 -0.2698  0.7841
19266TIP3    H179213   1.252   5.605   2.756  1.7596 -0.5779  0.9975
19266TIP3    H279214   1.231   5.555   2.898  1.8155 -0.6236  0.9898
19267TIP3   OH279215   5.496   0.369  14.100 -0.1843  0.5926  0.3706
19267TIP3    H179216   5.431   0.299  14.089 -1.0905  1.6483 -1.6222
19267TIP3    H279217   5.457   0.428  14.164 -0.3426  0.2949  0.5517
19268TIP3   OH279218   2.823   6.696   0.196  0.9899  0.0756 -0.2271
19268TIP3    H179219   2.736   6.725   0.170  0.4219 -0.5645  0.8714
19268TIP3    H279220   2.821   6.696   0.292  2.2383  0.1643 -0.1812
19269TIP3   OH279221   1.254   0.715   1.903 -0.2378  0.0161 -0.3181
19269TIP3    H179222   1.341   0.734   1.939 -0.2828 -2.0020  0.9869
19269TIP3    H279223   1.270   0.700   1.810  0.7609  0.0808 -0.1697
19270TIP3   OH279224   4.050   4.538  13.258  0.0733 -0.0896 -0.6208
19270TIP3    H179225   4.088   4.541  13.170  1.9268 -1.8706  0.0338
19270TIP3    H279226   4.078   4.453  13.294 -1.0755  0.3434  1.5100
19271TIP3   OH279227   0.769   0.184   1.904  0.0109  0.1534  0.0379
19271TIP3    H179228   0.703   0.115   1.897 -1.2689  1.2017  1.1593
19271TIP3    H279229   0.759   0.235   1.823 -1.1684  0.7890  0.5553
19272TIP3   OH279230   3.196   5.648  11.045 -0.0167  0.1615  0.1562
19272TIP3    H179231   3.108   5.685  11.057  0.2810  0.0954  3.5370
19272TIP3    H279232   3.196   5.568  11.098  1.5069 -0.9489 -1.4307
19273TIP3   OH279233   1.398   4.936   5.403 -0.1192  0.2114  0.6029
19273TIP3    H179234   1.423   4.918   5.494 -1.7180  0.6660  1.1797
19273TIP3    H279235   1.410   5.031   5.393 -1.8726  0.5106  1.0270
19274TIP3   OH279236   1.214   0.006  16.346  0.1394  0.3003  0.1479
19274TIP3    H179237   1.157   0.081  16.335 -0.6517 -0.2185  0.6072
19274TIP3    H279238   1.271   0.029  16.420 -0.2360  0.3729  0.4199
19275TIP3   OH279239   3.324   4.181   0.025  0.0394 -0.1385 -0.0396
19275TIP3    H179240   3.393   4.224   0.076  0.4373  0.7630 -1.3000
19275TIP3    H279241   3.308   4.239  -0.049 -2.9082  0.2516  0.7750
19276TIP3   OH279242   3.939   1.070   1.298 -1.4926  0.2520 -0.2712
19276TIP3    H179243   3.907   1.069   1.208 -1.8915 -1.1392 -0.1386
19276TIP3    H279244   4.002   1.142   1.300  1.7865 -2.2077 -2.8349
19277TIP3   OH279245   5.399   2.615   0.097 -0.3742  1.0529  0.1854
19277TIP3    H179246   5.387   2.692   0.152  1.9782  0.2560  1.9438
19277TIP3    H279247   5.361   2.640   0.013 -2.2595  3.0581  1.5192
19278TIP3   OH279248   2.907   0.555   1.406  0.1105 -0.5383 -0.1935
19278TIP3    H179249   2.898   0.465   1.435  0.0659 -0.6225 -0.4672
19278TIP3    H279250   2.895   0.607   1.486 -0.2956 -0.7523 -0.1125
19279TIP3   OH279251   5.378   3.059   1.416  0.3203  0.1409  0.0397
19279TIP3    H179252   5.335   3.089   1.336  1.0094  1.8777  0.2738
19279TIP3    H279253   5.459   3.017   1.386 -0.1561 -0.5925 -0.2398
19280TIP3   OH279254   2.518   0.347  13.525 -0.4968  0.3637 -0.2320
19280TIP3    H179255   2.578   0.393  13.583  0.1883 -0.4136 -0.3037
19280TIP3    H279256   2.561   0.349  13.440 -0.2484 -0.7650 -0.1456
19281TIP3   OH279257   5.573   3.664  11.758  0.0463  0.2580 -0.1151
19281TIP3    H179258   5.660   3.645  11.793  0.3619 -1.2269 -1.5325
19281TIP3    H279259   5.536   3.730  11.817  1.3661 -0.4966  1.6422
19282TIP3   OH279260   2.180   1.534  11.958  0.1585 -0.4650 -0.1951
19282TIP3    H179261   2.266   1.502  11.932 -0.6696 -1.0605 -2.4855
19282TIP3    H279262   2.118   1.480  11.908 -1.5665 -0.0904  1.4046
19283TIP3   OH279263   2.934   4.155  14.520  0.1203  0.2228  0.7601
19283TIP3    H179264   2.920   4.134  14.613  2.2583 -1.3292  0.8045
19283TIP3    H279265   2.850   4.135  14.478 -0.1383 -1.5374  1.9942
19284TIP3   OH279266   5.968   4.126  14.091 -0.1960  0.5066 -0.3217
19284TIP3    H179267   6.028   4.194  14.061  1.2580 -0.6050 -0.0385
19284TIP3    H279268   5.934   4.086  14.011  0.2672  0.4414 -0.4869
19285TIP3   OH279269   2.833   0.630   4.414  0.0082  0.1193  0.2603
19285TIP3    H179270   2.745   0.638   4.450 -0.8786  1.5194 -1.9456
19285TIP3    H279271   2.841   0.537   4.392 -0.9006 -0.0442  0.5513
19286TIP3   OH279272   2.237   0.807   1.529  0.0318  0.5806 -0.0987
19286TIP3    H179273   2.190   0.842   1.453 -0.9407  0.0215  0.2245
19286TIP3    H279274   2.195   0.723   1.547 -0.4675  1.1689  1.6860
19287TIP3   OH279275   2.660   0.879  16.099  0.1595 -0.2734  0.8169
19287TIP3    H179276   2.570   0.870  16.131 -0.2310 -0.6230 -0.3300
19287TIP3    H279277   2.702   0.796  16.124 -0.6750 -1.3656 -1.1317
19288TIP3   OH279278   1.381   4.075  13.196 -0.0916 -0.6524  0.5784
19288TIP3    H179279   1.421   4.019  13.130 -1.4496  0.7451 -1.5778
19288TIP3    H279280   1.445   4.144  13.211 -0.6366  0.2334 -1.0010
19289TIP3   OH279281   0.841   6.633  13.784 -0.0117 -0.6368  0.6081
19289TIP3    H179282   0.862   6.540  13.791  2.0608 -0.1882  0.9791
19289TIP3    H279283   0.796   6.654  13.865  0.3198 -1.1340  0.9248
19290TIP3   OH279284   5.938   6.553   0.810 -0.3195  0.1811  0.5684
19290TIP3    H179285   5.863   6.533   0.866  0.3260 -0.1102  1.3420
19290TIP3    H279286   5.998   6.480   0.823 -0.2529 -0.0161 -0.6987
19291TIP3   OH279287   3.710   5.507  10.970 -0.3182 -0.1980 -0.2621
19291TIP3    H179288   3.744   5.562  10.899 -0.9140 -0.9227 -1.1385
19291TIP3    H279289   3.645   5.451  10.927  0.3513 -1.6730  0.5564
19292TIP3   OH279290   5.420   2.158   4.260 -0.8429 -0.3962 -0.4913
19292TIP3    H179291   5.431   2.233   4.318  0.1982 -0.9237  0.0151
19292TIP3    H279292   5.357   2.187   4.194 -2.4914  0.0347  1.1901
19293TIP3   OH279293   5.058   0.161   3.416 -0.3716  0.0702 -0.2405
19293TIP3    H179294   5.021   0.133   3.333  1.0204 -0.5932 -0.6736
19293TIP3    H279295   5.003   0.234   3.444  0.2323  1.5750 -2.6799
19294TIP3   OH279296   3.216   1.661  11.449 -0.0237 -0.7286 -0.5317
19294TIP3    H179297   3.154   1.596  11.417 -1.6073  1.7989 -3.0765
19294TIP3    H279298   3.162   1.731  11.485  1.4415  0.5392 -0.6646
19295TIP3   OH279299   6.309   6.195   4.216  0.4089  0.4177  0.3508
19295TIP3    H179300   6.219   6.162   4.216  0.2940  0.5117 -2.2095
19295TIP3    H279301   6.313   6.255   4.290 -2.1923  1.7536 -0.4760
19296TIP3   OH279302   5.791   0.257  11.894 -0.1597  0.2056 -0.9036
19296TIP3    H179303   5.711   0.265  11.843 -0.2070  0.8440 -0.7331
19296TIP3    H279304   5.800   0.341  11.940 -1.1853 -0.9964  1.7200
19297TIP3   OH279305   1.587   2.239   1.449  0.0784  0.1108  0.7034
19297TIP3    H179306   1.613   2.319   1.403 -0.0738  1.2424  2.5114
19297TIP3    H279307   1.652   2.174   1.423 -1.4797 -0.1748 -3.2532
19298TIP3   OH279308   2.440   5.454  15.862 -0.5829 -0.4737 -0.1840
19298TIP3    H179309   2.415   5.409  15.781  1.4800 -2.5758  0.2380
19298TIP3    H279310   2.502   5.521  15.834  1.0631 -1.9814 -0.3115
19299TIP3   OH279311   4.471   3.401  16.878 -0.1782 -0.1410 -0.1935
19299TIP3    H179312   4.496   3.420  16.787  1.4517 -0.8253  0.0675
19299TIP3    H279313   4.512   3.471  16.929 -2.1461  0.9671 -0.0609
19300TIP3   OH279314   2.939   3.441   3.815 -0.0291  0.1811  0.8856
19300TIP3    H179315   2.872   3.445   3.884 -1.3606  0.9754 -0.3879
19300TIP3    H279316   2.954   3.533   3.791  1.4225  0.0062  1.0190
19301TIP3   OH279317   6.590   4.346  11.296 -0.0002  0.2137  0.3947
19301TIP3    H179318   6.528   4.281  11.329  0.7207 -0.0588  1.2470
19301TIP3    H279319   6.607   4.319  11.205 -1.9193  0.9040 -0.2203
19302TIP3   OH279320   0.605   2.888  12.903 -0.6102  0.3467 -0.0396
19302TIP3    H179321   0.670   2.861  12.968 -3.1282 -0.8169  2.2054
19302TIP3    H279322   0.613   2.984  12.899 -0.5246  0.4856  2.2466
19303TIP3   OH279323   1.708   3.109   5.683  0.5719 -0.5823 -0.0068
19303TIP3    H179324   1.707   3.016   5.703  0.7952 -0.5557  0.1332
19303TIP3    H279325   1.702   3.152   5.769 -0.8490 -0.4656 -0.1416
19304TIP3   OH279326   1.911   1.261   3.020  0.3863  0.1214  0.3154
19304TIP3    H179327   1.912   1.354   3.040 -1.9276  0.1082  0.7069
19304TIP3    H279328   1.884   1.219   3.102  0.8728 -0.8531 -0.0065
19305TIP3   OH279329   3.614   3.949   5.495 -0.1388  0.2063 -0.1836
19305TIP3    H179330   3.565   3.981   5.571 -0.8033 -2.6695  0.7123
19305TIP3    H279331   3.676   3.886   5.531 -0.2809 -1.0327 -1.9666
19306TIP3   OH279332   3.900   4.022   6.486 -0.5450  0.0750  0.3927
19306TIP3    H179333   3.874   4.104   6.529  0.3476  0.4653  0.2045
19306TIP3    H279334   3.987   4.004   6.520 -0.3222 -0.2533 -0.3355
19307TIP3   OH279335   5.691   4.829  13.059 -0.1130 -0.2441 -0.0093
19307TIP3    H179336   5.713   4.794  12.973 -2.3854 -1.5552 -0.1204
19307TIP3    H279337   5.755   4.789  13.118  1.4249  0.6135 -1.0017
19308TIP3   OH279338   2.397   4.193   3.074 -0.5455  0.0704  0.0480
19308TIP3    H179339   2.315   4.178   3.122 -0.8487 -0.5770 -0.6438
19308TIP3    H279340   2.412   4.110   3.027  0.7888 -0.0024  0.5789
19309TIP3   OH279341   2.835   4.976   0.466 -0.4171 -0.0969  0.1256
19309TIP3    H179342   2.866   4.907   0.524 -0.9353 -0.1058  0.3980
19309TIP3    H279343   2.886   5.053   0.492  0.4973 -0.4731 -0.4953
19310TIP3   OH279344   2.505   4.841   2.030  0.4004 -0.0329  0.2594
19310TIP3    H179345   2.449   4.865   2.104  1.3313  0.1893  0.9090
19310TIP3    H279346   2.540   4.925   1.999 -0.0436 -0.1141 -0.5048
19311TIP3   OH279347   1.441   3.200  15.147  0.4201  0.0647  0.4913
19311TIP3    H179348   1.375   3.169  15.209 -2.0286  1.3461 -1.3029
19311TIP3    H279349   1.510   3.134  15.152 -1.7183 -2.3132  1.3074
19312TIP3   OH279350   0.404   6.228  12.459  0.5222 -0.2433  0.7184
19312TIP3    H179351   0.418   6.230  12.364 -0.2409  0.4916  0.6115
19312TIP3    H279352   0.463   6.159  12.490 -0.3116 -1.5469 -0.4648
19313TIP3   OH279353   0.813   0.020   4.909  0.0910  0.2751  0.3374
19313TIP3    H179354   0.816   0.111   4.880 -0.4779  0.5090  0.9656
19313TIP3    H279355   0.773  -0.028   4.836 -1.5708  0.8931  0.8080
19314TIP3   OH279356   1.279   1.906  10.653  0.0423 -0.0220 -0.0301
19314TIP3    H179357   1.243   1.934  10.569  2.9878  1.2967 -0.9917
19314TIP3    H279358   1.304   1.814  10.639 -0.9122 -0.2898 -0.0417
19315TIP3   OH279359   3.604   5.280  17.302 -0.5567  0.2574  0.0254
19315TIP3    H179360   3.660   5.288  17.379 -0.3075  4.1866 -0.3286
19315TIP3    H279361   3.653   5.325  17.233 -1.9153 -0.8270 -1.7172
19316TIP3   OH279362   1.256   2.079   6.312 -0.2462 -0.0825 -0.9744
19316TIP3    H179363   1.210   1.995   6.314 -0.1166 -0.1531  1.4496
19316TIP3    H279364   1.195   2.141   6.351  1.2588 -0.0105  1.4945
19317TIP3   OH279365   2.580   6.512   0.423  1.0542 -0.0072  0.2279
19317TIP3    H179366   2.650   6.456   0.388  2.6843  1.3041  1.2122
19317TIP3    H279367   2.557   6.472   0.507 -0.2712 -1.1153 -0.6372
19318TIP3   OH279368   2.446   0.778   2.731 -0.4651  0.2084 -0.1955
19318TIP3    H179369   2.391   0.855   2.717  0.6141  0.7062 -2.2047
19318TIP3    H279370   2.386   0.704   2.727 -1.1402  0.7884 -1.4062
19319TIP3   OH279371   0.116   3.767   2.481  0.3726 -0.4388  0.2135
19319TIP3    H179372   0.151   3.750   2.394 -0.1855 -1.6686  0.2029
19319TIP3    H279373   0.186   3.741   2.541  0.1967 -1.1045  0.1476
19320TIP3   OH279374   6.722   6.232   0.351 -0.2597  0.1318 -0.0441
19320TIP3    H179375   6.684   6.156   0.309  0.1249  0.2761 -0.6713
19320TIP3    H279376   6.752   6.201   0.437  0.4343 -0.5712 -0.5316
19321TIP3   OH279377   6.523   4.609   6.584  0.3227 -0.3331  0.4914
19321TIP3    H179378   6.568   4.674   6.639  2.7700 -0.7144 -0.9408
19321TIP3    H279379   6.465   4.661   6.528  0.4095  0.3637  1.0344
19322TIP3   OH279380   2.590   6.648   1.696  0.5340  0.4177  0.0129
19322TIP3    H179381   2.616   6.560   1.724 -0.0692  0.0149 -0.6752
19322TIP3    H279382   2.630   6.706   1.761  1.5067 -0.3144  0.0917
19323TIP3   OH279383   2.986   1.376   1.996 -0.2941 -0.2975  0.0735
19323TIP3    H179384   3.078   1.365   1.970  0.1320  1.6428  0.5618
19323TIP3    H279385   2.983   1.463   2.036 -2.3367 -0.3614  0.1626
19324TIP3   OH279386   0.100   4.750  17.289  1.1173 -0.1456 -0.0926
19324TIP3    H179387   0.026   4.810  17.281 -0.7572 -2.3350 -0.1483
19324TIP3    H279388   0.178   4.806  17.285 -0.5259  2.3523  1.0370
19325TIP3   OH279389   2.705   2.103   0.006 -0.2066  0.5525  0.3359
19325TIP3    H179390   2.643   2.031   0.018  0.0449  0.2522 -0.1471
19325TIP3    H279391   2.651   2.182   0.006 -0.5073  0.3495  0.6448
19326TIP3   OH279392   0.145   1.478   4.392  0.2347  0.2674 -0.2383
19326TIP3    H179393   0.134   1.404   4.452 -1.1418  0.6704  0.0405
19326TIP3    H279394   0.101   1.551   4.436  0.5524  0.9589 -1.0391
19327TIP3   OH279395   5.110   3.480  15.604  0.0884 -0.3961 -0.9241
19327TIP3    H179396   5.168   3.404  15.604  0.3133 -0.2289 -0.8523
19327TIP3    H279397   5.039   3.456  15.663  1.1265  0.1494  0.6243
19328TIP3   OH279398   0.484   5.749   2.915 -0.1178  0.1053 -0.0848
19328TIP3    H179399   0.531   5.806   2.976  0.4319  0.3120 -0.6906
19328TIP3    H279400   0.428   5.695   2.971  1.1303 -0.4242  0.7014
19329TIP3   OH279401   4.372   3.128   2.222  0.4219 -0.9322  0.2747
19329TIP3    H179402   4.313   3.067   2.266  1.1152 -0.1033  2.5195
19329TIP3    H279403   4.323   3.211   2.220  0.1753 -1.0830 -1.1331
19330TIP3   OH279404   6.654   4.948   5.696  0.3350  0.2504 -0.4023
19330TIP3    H179405   6.717   5.019   5.707  1.1481 -0.5083 -0.0808
19330TIP3    H279406   6.569   4.989   5.711  0.7252  1.3253 -1.0119
19331TIP3   OH279407   5.246   0.851  12.045 -0.2590 -0.3024  0.4764
19331TIP3    H179408   5.249   0.831  12.139 -0.9852  0.0684  0.5873
19331TIP3    H279409   5.240   0.947  12.041 -0.3815 -0.3247  0.0529
19332TIP3   OH279410   5.532   0.522  13.175  0.4415  0.3040 -0.3472
19332TIP3    H179411   5.527   0.585  13.102 -1.2432 -1.2536 -1.6735
19332TIP3    H279412   5.441   0.510  13.202  0.8955 -0.3894  0.9437
19333TIP3   OH279413   0.784   5.243  12.557  0.1620 -0.1841 -0.0809
19333TIP3    H179414   0.878   5.259  12.567 -0.0801  1.3089  0.0051
19333TIP3    H279415   0.757   5.305  12.489 -0.7334 -0.7018 -0.1988
19334TIP3   OH279416   5.458   1.595   4.047  0.4661  0.4099  0.0046
19334TIP3    H179417   5.513   1.519   4.026 -0.5948 -0.9320  1.8780
19334TIP3    H279418   5.390   1.561   4.105 -0.1318  2.7730  0.8020
19335TIP3   OH279419   4.508   4.438   0.853  0.1035 -0.2916 -0.4070
19335TIP3    H179420   4.449   4.379   0.900 -0.6375  0.4535 -0.4026
19335TIP3    H279421   4.488   4.525   0.887 -1.0258  0.3992 -2.6614
19336TIP3   OH279422   3.334   1.775  15.401  0.6193  0.3314 -0.5207
19336TIP3    H179423   3.247   1.769  15.360 -0.4561  1.6678  1.4177
19336TIP3    H279424   3.362   1.865  15.384  1.0305  0.2989 -0.0371
19337TIP3   OH279425   0.051   0.274  16.162 -0.3616  0.0441  0.5902
19337TIP3    H179426   0.129   0.291  16.109 -0.1124 -0.4288  0.8031
19337TIP3    H279427   0.076   0.202  16.220 -1.0014 -0.2003  0.5686
19338TIP3   OH279428   3.362   5.430  15.953 -0.6949  0.2547  0.3856
19338TIP3    H179429   3.352   5.448  16.047 -1.6690 -0.0857  0.3648
19338TIP3    H279430   3.273   5.408  15.924  0.2021 -3.7678  0.2173
19339TIP3   OH279431   5.025   5.511   5.956 -0.5044  0.1744 -0.2304
19339TIP3    H179432   5.102   5.551   5.914 -1.8717 -0.1699 -3.4014
19339TIP3    H279433   5.007   5.433   5.904 -1.5962 -1.1228  1.9531
19340TIP3   OH279434   5.005   2.336   2.802  0.1208  0.0006 -0.1036
19340TIP3    H179435   4.949   2.377   2.736 -1.5387 -1.3710  0.3850
19340TIP3    H279436   5.010   2.400   2.873  1.0053  1.0252 -1.0583
19341TIP3   OH279437   5.259   0.234   4.279 -0.4378 -0.1868 -0.4588
19341TIP3    H179438   5.184   0.293   4.290 -0.4394 -0.2711  0.0253
19341TIP3    H279439   5.228   0.168   4.217 -0.3326  0.4846 -1.2411
19342TIP3   OH279440   3.334   0.854   5.405  0.0222 -0.5450 -0.1417
19342TIP3    H179441   3.335   0.872   5.499 -0.7258  0.6279 -0.3338
19342TIP3    H279442   3.351   0.760   5.398  2.6408 -0.2467  1.0358
19343TIP3   OH279443   5.207   4.224   3.041 -0.4943 -0.2083  0.5876
19343TIP3    H179444   5.227   4.273   3.121 -0.2160 -0.7544  0.8509
19343TIP3    H279445   5.153   4.151   3.071  0.3827 -0.9460  0.4097
19344TIP3   OH279446   3.579   2.558  14.868  0.3859  0.4764  0.4387
19344TIP3    H179447   3.641   2.556  14.795  0.9449 -0.7897  0.9217
19344TIP3    H279448   3.527   2.477  14.858  0.0622  0.5960  1.0946
19345TIP3   OH279449   4.821   6.758   5.201 -0.2640 -0.0139 -0.3028
19345TIP3    H179450   4.873   6.774   5.122  1.2255 -0.8643  0.4582
19345TIP3    H279451   4.740   6.718   5.169 -0.8445  2.0372 -1.5917
19346TIP3   OH279452   1.642   0.481   2.910  0.0163 -0.2938  0.0863
19346TIP3    H179453   1.654   0.514   2.821 -1.1036 -0.5443 -0.1770
19346TIP3    H279454   1.729   0.487   2.950 -0.0601  2.7775  0.0190
19347TIP3   OH279455   2.793   1.134  16.812 -0.1099 -0.1894 -0.0692
19347TIP3    H179456   2.742   1.196  16.760  0.4225  0.2211 -0.1015
19347TIP3    H279457   2.749   1.132  16.897 -2.3504 -2.5305 -1.1481
19348TIP3   OH279458   4.057   4.054   3.133 -0.1010  0.3393  0.3466
19348TIP3    H179459   4.022   4.089   3.051  0.1638  0.7496  0.4038
19348TIP3    H279460   3.980   4.022   3.180 -0.1879 -0.4359 -0.3113
19349TIP3   OH279461   1.889   3.104   3.119 -0.1534  0.5902 -0.0410
19349TIP3    H179462   1.890   3.011   3.143 -1.3638  0.6468  0.3041
19349TIP3    H279463   1.808   3.137   3.157  0.2189  1.7754 -0.2459
19350TIP3   OH279464   2.654   4.684   5.839 -0.1477  0.3278  0.2425
19350TIP3    H179465   2.676   4.759   5.895  0.5396  0.2042  0.1491
19350TIP3    H279466   2.615   4.723   5.761  0.9454  0.6591 -0.1575
19351TIP3   OH279467   6.398   2.045  12.732 -0.1966 -0.2752  0.1430
19351TIP3    H179468   6.355   1.969  12.770  1.0261 -0.9407  0.2414
19351TIP3    H279469   6.489   2.039  12.761 -0.1985  1.5957  0.7127
19352TIP3   OH279470   6.653   0.763   3.394  0.2727 -0.3046  0.3575
19352TIP3    H179471   6.733   0.770   3.446  0.5888 -1.8961  0.1312
19352TIP3    H279472   6.643   0.849   3.354  1.4343  0.1575  1.0045
19353TIP3   OH279473   2.192   5.606   0.959  0.1154  0.0052 -0.0989
19353TIP3    H179474   2.265   5.553   0.928 -0.2707 -0.0605 -0.9003
19353TIP3    H279475   2.141   5.627   0.881 -0.8207 -0.0835  0.4664
19354TIP3   OH279476   1.692   3.197   2.833  0.3762 -0.3260  0.1693
19354TIP3    H179477   1.635   3.135   2.788  1.3477  1.3259 -3.7267
19354TIP3    H279478   1.641   3.278   2.839  0.0115 -0.6510  2.9664
19355TIP3   OH279479   0.859   3.506   4.766 -0.5573  0.4273 -0.8314
19355TIP3    H179480   0.953   3.491   4.757 -0.4607 -0.2256  0.8662
19355TIP3    H279481   0.837   3.469   4.851 -2.3156  0.8105 -1.0791
19356TIP3   OH279482   4.393   1.839  15.699 -0.1131 -0.2232  0.2870
19356TIP3    H179483   4.447   1.861  15.623  1.4813 -1.1850  1.0853
19356TIP3    H279484   4.425   1.753  15.726 -1.4534 -0.4064  1.3569
19357TIP3   OH279485   4.877   1.104  16.798 -0.0791  0.0885 -0.2258
19357TIP3    H179486   4.944   1.118  16.865  1.2911 -1.2136 -1.2556
19357TIP3    H279487   4.854   1.192  16.768  0.3514  0.6086  0.9007
19358TIP3   OH279488   5.251   4.602   4.022 -0.1045  0.7701 -0.3320
19358TIP3    H179489   5.294   4.653   3.954  2.6826 -2.1647 -1.0259
19358TIP3    H279490   5.270   4.649   4.103  2.6931  0.8038 -0.8880
19359TIP3   OH279491   1.554   2.152  10.913 -0.5426 -0.0932  0.6911
19359TIP3    H179492   1.564   2.217  10.982  1.8454 -0.4569  0.7671
19359TIP3    H279493   1.532   2.202  10.834  0.6360  0.7560  0.8879
19360TIP3   OH279494   2.288   4.070  11.330 -0.0584 -0.0749 -0.0067
19360TIP3    H179495   2.309   3.988  11.286  0.6603 -0.2178  0.5847
19360TIP3    H279496   2.268   4.131  11.259 -0.9696 -0.8515 -0.4328
19361TIP3   OH279497   1.750   5.888   0.226 -0.3123 -0.1576 -0.3580
19361TIP3    H179498   1.713   5.964   0.181 -0.6671  0.2977  0.6756
19361TIP3    H279499   1.774   5.828   0.155 -0.9467  0.4899 -1.1456
19362TIP3   OH279500   5.496   2.289   0.086 -0.3100 -0.5845 -0.2605
19362TIP3    H179501   5.418   2.328   0.046 -0.9889 -1.6553 -0.0042
19362TIP3    H279502   5.552   2.267   0.011 -0.5437 -0.4251 -0.4858
19363TIP3   OH279503   4.130   3.918   5.470 -0.5049 -0.6745 -0.0571
19363TIP3    H179504   4.099   3.931   5.559 -2.7229 -1.4071 -0.6479
19363TIP3    H279505   4.203   3.857   5.478  0.2269  0.3380  1.3407
19364TIP3   OH279506   1.463   0.036  15.685  0.3518 -0.0292 -0.1661
19364TIP3    H179507   1.472   0.042  15.590 -1.2704 -2.7371 -0.5978
19364TIP3    H279508   1.407   0.111  15.709 -1.9559 -1.0963 -1.8736
19365TIP3   OH279509   5.250   6.688   6.332 -0.1001  1.1634 -0.1900
19365TIP3    H179510   5.201   6.610   6.306 -0.3551  1.4570 -0.6085
19365TIP3    H279511   5.296   6.662   6.412 -1.7994  1.2122  0.8469
19366TIP3   OH279512   6.297   5.908  14.545  0.3152  0.1671 -0.3511
19366TIP3    H179513   6.208   5.940  14.559  0.6918  1.1129 -0.0289
19366TIP3    H279514   6.353   5.983  14.565  1.1818 -0.3688 -0.6986
19367TIP3   OH279515   3.230   1.220   3.520  0.1424  0.7528  0.1004
19367TIP3    H179516   3.263   1.234   3.609  0.6377  0.1032  0.0300
19367TIP3    H279517   3.251   1.128   3.501 -3.3399 -0.3673  0.7700
19368TIP3   OH279518   5.237   4.938   0.965 -0.3356 -0.0780 -0.4322
19368TIP3    H179519   5.308   4.970   1.019 -1.1443 -1.5217  1.5955
19368TIP3    H279520   5.209   5.015   0.914 -0.0046  1.5545  1.7199
19369TIP3   OH279521   2.259   4.082   1.952  1.1541 -0.0641 -0.2868
19369TIP3    H179522   2.186   4.040   1.998  0.9327  0.2034 -0.3914
19369TIP3    H279523   2.231   4.084   1.861  1.2723  0.0770 -0.3205
19370TIP3   OH279524   1.853   6.508   0.083 -0.3985  0.3421 -0.4325
19370TIP3    H179525   1.795   6.438   0.112  0.7155  0.3009  1.9237
19370TIP3    H279526   1.802   6.588   0.093 -0.3992  0.2128  0.6798
19371TIP3   OH279527   0.924   0.815   2.782 -0.0777 -0.0566  0.2328
19371TIP3    H179528   0.984   0.887   2.802 -0.3341  0.3536 -0.4368
19371TIP3    H279529   0.977   0.752   2.734 -0.3864  0.7499 -1.2330
19372TIP3   OH279530   2.605   2.592   4.108  0.9365  0.6635 -0.1916
19372TIP3    H179531   2.592   2.625   4.019  1.1036  0.9183 -0.1233
19372TIP3    H279532   2.537   2.635   4.160  0.2616 -0.1842 -0.3623
19373TIP3   OH279533   0.727   1.646   2.655 -0.7290 -0.7380  0.1846
19373TIP3    H179534   0.698   1.698   2.730  1.6940  1.8588 -0.5318
19373TIP3    H279535   0.793   1.586   2.692  0.6337  0.6980  0.1748
19374TIP3   OH279536   1.696   4.850   5.070  0.0987  0.3842  0.3102
19374TIP3    H179537   1.606   4.868   5.041  0.2678  1.7810  0.6286
19374TIP3    H279538   1.743   4.828   4.989  0.1459  2.5300 -0.2924
19375TIP3   OH279539   1.841   4.140  13.958 -0.0950  1.0265  0.1296
19375TIP3    H179540   1.935   4.161  13.956  0.0541  0.5683  1.6846
19375TIP3    H279541   1.811   4.159  13.868  1.3815  1.5911 -0.2774
19376TIP3   OH279542   0.181   6.729  14.832  0.1375 -0.3483  0.2237
19376TIP3    H179543   0.189   6.684  14.916 -0.6662 -0.3250  0.3167
19376TIP3    H279544   0.183   6.658  14.767 -1.0912 -0.5317  0.3696
19377TIP3   OH279545   0.075   2.171  13.123 -0.0257  0.1910 -0.2619
19377TIP3    H179546   0.076   2.267  13.124 -1.5312  0.2218 -0.2717
19377TIP3    H279547   0.136   2.146  13.192 -0.0429  1.1605  0.1250
19378TIP3   OH279548   0.535   5.383  14.144 -0.5591 -0.0286  0.4207
19378TIP3    H179549   0.525   5.295  14.182  0.3998 -0.0088  0.7430
19378TIP3    H279550   0.485   5.379  14.063  1.1287 -1.5692 -0.6297
19379TIP3   OH279551   2.105   4.374   0.828  0.1423  0.0200  0.3075
19379TIP3    H179552   2.174   4.423   0.783 -0.2639 -1.3766 -2.0383
19379TIP3    H279553   2.146   4.290   0.851 -0.2787 -0.1380  0.4944
19380TIP3   OH279554   0.285   6.078   0.885 -0.5321  0.1962  0.1722
19380TIP3    H179555   0.251   6.015   0.822  0.0327 -0.0914  0.1493
19380TIP3    H279556   0.291   6.028   0.967 -0.0583  0.2118  0.1476
19381TIP3   OH279557   1.874   0.294  16.083 -0.1124  0.0636  0.1582
19381TIP3    H179558   1.822   0.341  16.018 -1.1204  0.3658  1.1487
19381TIP3    H279559   1.962   0.332  16.076 -0.2527  0.2145 -0.8902
19382TIP3   OH279560   1.244   3.599  13.270 -0.4448 -0.0296 -0.9045
19382TIP3    H179561   1.322   3.654  13.267 -0.4452  0.0195 -0.0504
19382TIP3    H279562   1.278   3.509  13.265 -0.3461 -0.0038 -0.6901
19383TIP3   OH279563   0.981   6.249  13.496 -0.0432 -0.2292 -0.4613
19383TIP3    H179564   1.067   6.227  13.532  0.1011 -0.4548 -0.9376
19383TIP3    H279565   0.980   6.208  13.409  0.1008  1.3572 -1.2474
19384TIP3   OH279566   6.690   4.093   0.014  0.2647 -0.1630 -0.0683
19384TIP3    H179567   6.750   4.058  -0.051 -0.0499 -3.0821  1.0623
19384TIP3    H279568   6.610   4.113  -0.036  0.7318 -0.2864 -0.8855
19385TIP3   OH279569   0.492   4.551   0.606  0.3969  0.2247  0.1944
19385TIP3    H179570   0.533   4.634   0.629  1.0684  0.0395 -0.2741
19385TIP3    H279571   0.524   4.533   0.517  1.5704 -1.3218  0.8887
19386TIP3   OH279572   6.231   1.902   0.655  0.2076 -0.0793 -0.3518
19386TIP3    H179573   6.317   1.902   0.698 -0.4707  1.8614  1.1340
19386TIP3    H279574   6.213   1.994   0.638 -2.3711 -0.2316  1.0785
19387TIP3   OH279575   4.193   3.403   0.909  0.1290 -0.1901  0.5039
19387TIP3    H179576   4.172   3.376   0.998  0.6340  0.8424  0.9502
19387TIP3    H279577   4.110   3.395   0.861 -0.1139 -0.8703  1.0216
19388TIP3   OH279578   2.557   6.782   2.204  0.5520  0.0622  0.0245
19388TIP3    H179579   2.525   6.710   2.259  2.5232 -1.0312 -0.1938
19388TIP3    H279580   2.651   6.782   2.217  0.5648  3.1019  0.5562
19389TIP3   OH279581   5.954   1.125  11.915  0.4746 -0.1635  0.0642
19389TIP3    H179582   5.954   1.212  11.955  0.9570  0.1809 -0.6657
19389TIP3    H279583   5.909   1.137  11.831 -0.0046 -0.7499  0.2325
19390TIP3   OH279584   3.932   6.653   2.480  0.1086 -0.1142  0.3802
19390TIP3    H179585   4.020   6.639   2.445  0.5388  1.3846  0.8223
19390TIP3    H279586   3.892   6.715   2.421  0.6756  2.0810  2.1542
19391TIP3   OH279587   6.339   6.286  13.068 -0.1530 -0.5201 -0.6184
19391TIP3    H179588   6.382   6.207  13.102 -1.8114 -1.6640 -1.0628
19391TIP3    H279589   6.292   6.322  13.144 -0.9872 -1.0842 -0.8565
19392TIP3   OH279590   2.318   1.917  15.471  0.5002  0.2851 -0.3204
19392TIP3    H179591   2.263   1.919  15.549 -0.0889 -1.1143 -0.6660
19392TIP3    H279592   2.301   2.001  15.427 -0.9608  0.1129 -0.1357
19393TIP3   OH279593   4.176   1.066   6.403 -0.5678  0.1502 -0.2377
19393TIP3    H179594   4.162   1.158   6.424  1.0996  0.8329 -1.7740
19393TIP3    H279595   4.089   1.026   6.406 -2.0420  2.6631 -3.3551
19394TIP3   OH279596   5.793   1.310   5.004  0.2060  0.3160  0.1793
19394TIP3    H179597   5.744   1.347   5.078  0.7334  0.7592  0.3106
19394TIP3    H279598   5.728   1.258   4.956  0.2517 -1.5575  2.0097
19395TIP3   OH279599   2.915   1.877   2.172  0.4210  0.3418 -0.3881
19395TIP3    H179600   2.965   1.905   2.249  0.1802  0.7457 -0.3763
19395TIP3    H279601   2.908   1.955   2.118 -0.7052  0.4552 -0.1111
19396TIP3   OH279602   3.867   0.973   1.040 -0.6449  0.4963  0.1336
19396TIP3    H179603   3.925   0.932   0.977 -2.5094 -0.7397 -0.8700
19396TIP3    H279604   3.797   0.909   1.054 -2.2479  2.2486  0.5929
19397TIP3   OH279605   1.755   3.450   6.539  0.3677 -0.1080 -0.0755
19397TIP3    H179606   1.821   3.484   6.600 -0.9885 -0.6456  1.7844
19397TIP3    H279607   1.784   3.362   6.519  0.2405 -0.3457  0.7436
19398TIP3   OH279608   1.077   0.392   0.408  0.3280  0.3216  0.1446
19398TIP3    H179609   1.009   0.427   0.350  0.3360 -0.1612 -0.1607
19398TIP3    H279610   1.136   0.345   0.350  0.9243  0.7247  0.4102
19399TIP3   OH279611   4.420   2.762  14.959 -0.3705  0.1857  0.1149
19399TIP3    H179612   4.452   2.841  15.003 -0.5844 -0.3397  1.2463
19399TIP3    H279613   4.418   2.695  15.028  1.5429 -1.3153 -1.1846
19400TIP3   OH279614   6.036   6.434  15.698 -0.0644  0.1248 -0.2347
19400TIP3    H179615   5.953   6.423  15.652  0.0874  0.7901 -0.6843
19400TIP3    H279616   6.085   6.497  15.644  1.3651 -1.4343 -0.8411
19401TIP3   OH279617   2.002   6.111   0.930 -0.2322 -0.3784  0.4948
19401TIP3    H179618   2.006   6.175   0.858  0.3733  0.9297  1.6531
19401TIP3    H279619   1.959   6.035   0.891  0.7418 -0.0058 -1.4742
19402TIP3   OH279620   5.825   4.797  16.535  0.0201  0.3361 -0.7693
19402TIP3    H179621   5.793   4.781  16.624 -1.4844  1.7730 -1.0220
19402TIP3    H279622   5.821   4.892  16.524  0.7937  0.2369 -2.1718
19403TIP3   OH279623   6.645   1.669  11.645  0.6698  0.7442  0.3092
19403TIP3    H179624   6.647   1.577  11.619 -1.0589 -0.0508  2.6432
19403TIP3    H279625   6.726   1.682  11.695  0.1024 -0.0054  1.4348
19404TIP3   OH279626   1.574   3.499  11.838  0.5459 -0.0833  0.3624
19404TIP3    H179627   1.479   3.494  11.836  0.5554 -0.2325 -0.7251
19404TIP3    H279628   1.598   3.474  11.927 -0.4001 -0.5911  0.4864
19405TIP3   OH279629   1.502   2.868  13.533  0.0722  0.2461 -0.1626
19405TIP3    H179630   1.407   2.876  13.537  0.1661  1.9459 -0.7078
19405TIP3    H279631   1.518   2.811  13.457 -0.4986  0.4363 -0.4280
19406TIP3   OH279632   4.921   0.732   2.614  0.2910 -0.0015  0.4872
19406TIP3    H179633   4.935   0.738   2.709 -1.0597 -0.1737  0.7223
19406TIP3    H279634   4.916   0.638   2.597 -0.1817  0.0447  0.3650
19407TIP3   OH279635   5.311   0.048  11.935  0.3748 -0.2439 -0.3471
19407TIP3    H179636   5.273   0.084  11.855  0.8432  0.8744 -0.0856
19407TIP3    H279637   5.399   0.022  11.910  2.0918  3.8189  0.5905
19408TIP3   OH279638   2.699   4.588  13.502 -0.0590  0.1565 -0.1932
19408TIP3    H179639   2.701   4.525  13.430  0.5593  0.4746 -0.4611
19408TIP3    H279640   2.709   4.534  13.581 -0.8752 -0.2029 -0.3242
19409TIP3   OH279641   4.297   5.781   4.186  0.3062 -0.3564  0.1814
19409TIP3    H179642   4.350   5.734   4.122  0.2863 -2.4616  1.6169
19409TIP3    H279643   4.352   5.855   4.212  1.0473 -0.4851 -0.9269
19410TIP3   OH279644   5.999   2.567  14.927  0.7422  0.6932 -0.4951
19410TIP3    H179645   5.970   2.534  15.012  1.9462 -1.0462 -0.6937
19410TIP3    H279646   6.090   2.593  14.941  0.8281  0.7669 -1.1612
19411TIP3   OH279647   2.726   2.612   0.322  0.6074 -1.0393 -0.5198
19411TIP3    H179648   2.754   2.520   0.325 -0.6930 -1.4367  0.7789
19411TIP3    H279649   2.808   2.662   0.329  1.1701 -2.1428  3.4879
19412TIP3   OH279650   4.458   0.694  14.823 -0.5411  0.4860  0.0108
19412TIP3    H179651   4.457   0.606  14.785  1.6595  0.5287 -0.3300
19412TIP3    H279652   4.394   0.743  14.772  0.8440  0.0016 -2.3510
19413TIP3   OH279653   3.901   1.084  11.966  0.8126  0.4886  0.1057
19413TIP3    H179654   3.915   1.146  12.038  1.5704 -1.1542  1.4254
19413TIP3    H279655   3.958   1.010  11.985  3.3925  1.1621 -3.7562
19414TIP3   OH279656   4.792   6.773   4.789 -0.2610 -0.1930 -0.2737
19414TIP3    H179657   4.743   6.816   4.719  0.1450  1.0295  0.1601
19414TIP3    H279658   4.834   6.845   4.837 -0.7864 -0.9660  1.4327
19415TIP3   OH279659   2.603   1.515   4.485  0.0749  0.3182  0.3374
19415TIP3    H179660   2.672   1.457   4.518  1.9076  1.4898 -1.2665
19415TIP3    H279661   2.595   1.492   4.392 -0.9325  0.9619  0.2537
19416TIP3   OH279662   1.296   4.958  16.506 -0.2681  0.3655  0.3325
19416TIP3    H179663   1.341   4.918  16.581  0.5211  1.7692  0.6446
19416TIP3    H279664   1.212   4.986  16.541 -1.4076 -2.1138 -0.2098
19417TIP3   OH279665   5.419   6.446   5.357 -0.1748  0.2499  0.0957
19417TIP3    H179666   5.398   6.494   5.438 -1.4713 -0.7205  0.3717
19417TIP3    H279667   5.419   6.354   5.384  2.0502  0.0302 -0.4714
19418TIP3   OH279668   4.704   6.104  14.402  0.9105  1.0699 -0.2301
19418TIP3    H179669   4.792   6.115  14.367  0.7724  1.1444 -0.5500
19418TIP3    H279670   4.675   6.019  14.369  1.9364 -0.3267  2.1510
19419TIP3   OH279671   6.622   2.993  14.385  0.6884  0.2382  0.3808
19419TIP3    H179672   6.575   2.924  14.338 -2.0952  0.0854  3.0645
19419TIP3    H279673   6.633   3.063  14.321  1.0441 -1.5286 -1.6263
19420TIP3   OH279674   4.186   0.162   1.051  0.0592 -0.1066  0.3608
19420TIP3    H179675   4.192   0.083   0.997 -0.3117 -0.1043  0.3156
19420TIP3    H279676   4.247   0.224   1.010  0.7844 -0.5572  0.7264
19421TIP3   OH279677   4.673   0.581   2.444 -0.5426 -0.2717 -0.0844
19421TIP3    H179678   4.668   0.509   2.382 -0.1428 -0.0511 -0.3773
19421TIP3    H279679   4.761   0.575   2.482 -0.1992  0.5502 -0.7171
19422TIP3   OH279680   6.146   5.316  16.088 -0.0180 -0.0484 -0.4225
19422TIP3    H179681   6.147   5.380  16.159 -1.2537 -1.5836  1.0764
19422TIP3    H279682   6.228   5.330  16.041  0.9178  0.9351  1.3943
19423TIP3   OH279683   2.892   4.538  15.098 -0.3305 -0.3637 -0.2787
19423TIP3    H179684   2.917   4.507  15.185  4.9337 -2.4435 -2.1665
19423TIP3    H279685   2.917   4.631  15.098 -0.3656 -0.3483  0.3987
19424TIP3   OH279686   1.779   6.008  12.183  0.1385  0.0502 -0.1828
19424TIP3    H179687   1.698   5.956  12.181 -0.9263  1.5977  0.1398
19424TIP3    H279688   1.776   6.052  12.268  2.6661 -1.7999  0.9660
19425TIP3   OH279689   6.554   0.257  10.446 -0.3899  0.1757 -0.0286
19425TIP3    H179690   6.503   0.177  10.446  1.2446 -1.0280 -2.7212
19425TIP3    H279691   6.644   0.228  10.460  0.2351  1.4961 -1.0413
19426TIP3   OH279692   0.003   0.431   4.031 -0.2439  0.3983  0.0806
19426TIP3    H179693   0.048   0.498   4.083 -0.8336 -0.0276  1.1567
19426TIP3    H279694  -0.090   0.454   4.037 -0.4293 -0.3693  0.2461
19427TIP3   OH279695   4.127   5.415  12.673 -0.2573 -0.1898  0.6561
19427TIP3    H179696   4.145   5.425  12.766 -1.9000 -1.6493  1.1626
19427TIP3    H279697   4.211   5.435  12.631  0.8228 -0.6085  2.4924
19428TIP3   OH279698   1.332   3.113   6.130  0.4679  0.0861 -0.3312
19428TIP3    H179699   1.356   3.160   6.210 -0.9148  1.0612 -0.4561
19428TIP3    H279700   1.391   3.038   6.128  4.4778  2.9124 -1.3186
19429TIP3   OH279701   4.630   3.098  14.384 -0.1194 -0.2000  0.1274
19429TIP3    H179702   4.689   3.173  14.395 -0.9145  0.2760  1.3850
19429TIP3    H279703   4.660   3.033  14.447 -1.4151  0.3897  1.4225
19430TIP3   OH279704   3.712   0.832  15.678 -0.1615 -0.5156 -0.0500
19430TIP3    H179705   3.668   0.877  15.605 -0.0667  0.1235  0.2835
19430TIP3    H279706   3.703   0.739  15.657  1.2423 -0.3187 -1.6894
19431TIP3   OH279707   5.751   6.249  16.424 -0.3724 -0.3102 -0.4273
19431TIP3    H179708   5.745   6.337  16.387  2.6266  0.2454  0.1574
19431TIP3    H279709   5.685   6.198  16.376 -1.3636  1.9444 -1.6089
19432TIP3   OH279710   1.596   2.552   1.509 -0.1691  0.1489  0.9843
19432TIP3    H179711   1.528   2.544   1.442  2.0986  1.6263 -1.6816
19432TIP3    H279712   1.549   2.539   1.592 -3.9074  2.2709 -0.5580
19433TIP3   OH279713   4.596   3.133   0.956 -0.5198 -0.5454  0.1454
19433TIP3    H179714   4.501   3.143   0.952 -0.4983 -0.0976  0.6417
19433TIP3    H279715   4.614   3.111   1.047 -0.0566  0.4055  0.2939
19434TIP3   OH279716   1.647   6.270  12.927 -0.0008 -0.3018 -0.1421
19434TIP3    H179717   1.669   6.308  12.842  0.5715 -0.4664 -0.0688
19434TIP3    H279718   1.691   6.327  12.991 -0.8252  0.1106  0.0754
19435TIP3   OH279719   4.755   4.035   0.773  0.5503  0.2671 -0.4246
19435TIP3    H179720   4.808   3.962   0.742 -0.6573 -0.0194 -1.9096
19435TIP3    H279721   4.816   4.108   0.779  1.5299 -0.5514 -0.0480
19436TIP3   OH279722   5.464   5.748   3.928  0.2268 -0.0267  0.2408
19436TIP3    H179723   5.523   5.673   3.925 -0.3871 -0.4831 -1.2590
19436TIP3    H279724   5.381   5.711   3.958 -0.2607 -0.1194 -1.1349
19437TIP3   OH279725   4.975   5.329  11.890 -0.2099 -0.0689 -0.2397
19437TIP3    H179726   4.933   5.332  11.804  0.1356  2.2203 -0.3705
19437TIP3    H279727   5.069   5.328  11.871 -0.0814 -2.5703  0.1171
19438TIP3   OH279728   0.256   1.587  11.072 -0.2043  0.0978 -0.2988
19438TIP3    H179729   0.349   1.604  11.088 -0.2758 -1.0471  1.8159
19438TIP3    H279730   0.252   1.493  11.053 -0.9410  0.0411  0.0939
19439TIP3   OH279731   2.873   2.354  17.102 -0.4377  0.2982  0.5933
19439TIP3    H179732   2.823   2.294  17.046 -0.0117 -0.9577  1.5050
19439TIP3    H279733   2.855   2.441  17.066 -0.0207 -0.4662 -1.6117
19440TIP3   OH279734   2.111   0.082  16.216  0.7589  0.6580 -0.5199
19440TIP3    H179735   2.053   0.111  16.146  2.1663  0.4609 -1.8139
19440TIP3    H279736   2.054   0.072  16.292 -0.8240  0.8164 -1.6435
19441TIP3   OH279737   5.897   3.952  13.292 -0.2941  0.3324 -0.6112
19441TIP3    H179738   5.919   3.867  13.330  0.4421  0.6875 -0.2295
19441TIP3    H279739   5.922   3.944  13.200 -0.0957  0.1839 -0.5442
19442TIP3   OH279740   3.378   0.454  17.214 -0.5916  0.0928 -0.2334
19442TIP3    H179741   3.424   0.370  17.222 -0.6877 -0.1565 -1.8568
19442TIP3    H279742   3.383   0.474  17.120 -2.4289  0.8401 -0.2049
19443TIP3   OH279743   1.801   2.918  13.735  0.0777 -0.1695 -0.3907
19443TIP3    H179744   1.847   2.835  13.729  1.4897  0.6299 -1.1438
19443TIP3    H279745   1.772   2.936  13.646  0.3208  0.4470 -0.3469
19444TIP3   OH279746   0.757   0.629   5.528  0.1476  0.3242  0.5676
19444TIP3    H179747   0.781   0.542   5.495  0.3124  0.4360  0.3921
19444TIP3    H279748   0.709   0.670   5.455 -1.2917 -0.1951  1.1887
19445TIP3   OH279749   5.284   6.590   5.167  0.5432 -0.2579  0.3534
19445TIP3    H179750   5.356   6.583   5.105 -0.4153 -1.0917 -0.7112
19445TIP3    H279751   5.311   6.536   5.241  0.9739 -0.6317 -0.0699
19446TIP3   OH279752   3.632   5.736  14.750 -0.2832 -0.2906  0.4094
19446TIP3    H179753   3.652   5.644  14.734 -1.8227 -1.0445  2.4384
19446TIP3    H279754   3.716   5.777  14.770  1.1215 -0.2301 -4.2830
19447TIP3   OH279755   4.709   6.378  12.951  0.1993  0.7589 -0.2505
19447TIP3    H179756   4.743   6.413  12.868  1.3796  1.4249  0.4860
19447TIP3    H279757   4.777   6.317  12.980 -0.2906  0.3957  0.1445
19448TIP3   OH279758   4.697   4.066   2.695 -0.1881 -0.1205  0.1097
19448TIP3    H179759   4.641   4.028   2.628  0.0823  0.8303 -0.6721
19448TIP3    H279760   4.673   4.158   2.698 -0.1042 -0.1207  1.2373
19449TIP3   OH279761   0.749   0.495   6.465  0.1280  0.5479 -0.4851
19449TIP3    H179762   0.738   0.400   6.465 -1.2352  0.6365  1.9422
19449TIP3    H279763   0.842   0.508   6.483 -0.1771 -0.4065  2.2022
19450TIP3   OH279764   4.999   3.194  15.486 -0.2146  0.0171  0.6716
19450TIP3    H179765   5.081   3.231  15.518  0.4383 -1.1185  0.3874
19450TIP3    H279766   5.021   3.103  15.465 -0.6122  0.5748 -2.7523
19451TIP3   OH279767   5.648   2.271  16.196  0.4056 -0.4225 -0.3367
19451TIP3    H179768   5.618   2.181  16.211  0.6999 -0.3395  0.7625
19451TIP3    H279769   5.742   2.263  16.181  0.2084 -0.4464 -1.7419
19452TIP3   OH279770   5.872   0.078   3.591  0.5831 -0.4659 -0.3636
19452TIP3    H179771   5.898   0.169   3.606  2.0660 -0.9720  0.3833
19452TIP3    H279772   5.885   0.065   3.497  0.5347  0.0388 -0.4454
19453TIP3   OH279773   2.194   5.720   5.718  0.1343 -0.1078  0.2399
19453TIP3    H179774   2.272   5.744   5.768 -0.1160  1.4598 -0.0818
19453TIP3    H279775   2.137   5.677   5.782  0.3135  0.7973  1.0238
19454TIP3   OH279776   1.928   4.459  12.513  0.1067  0.1138 -0.3833
19454TIP3    H179777   1.942   4.552  12.497  2.2454 -0.1497 -0.2747
19454TIP3    H279778   1.967   4.443  12.599 -0.2730 -0.8889 -0.3776
19455TIP3   OH279779   2.342   4.320  14.931  0.0834  0.1279  0.4454
19455TIP3    H179780   2.307   4.388  14.988 -1.9745 -0.0547 -0.5022
19455TIP3    H279781   2.290   4.242  14.951  0.4885 -0.3973 -0.4646
19456TIP3   OH279782   5.410   6.210   5.082  0.1999  0.2065  0.3868
19456TIP3    H179783   5.378   6.219   5.171 -0.5672  1.4843  0.0138
19456TIP3    H279784   5.505   6.214   5.090  0.1539 -0.2139  1.1853
19457TIP3   OH279785   2.852   3.382  17.283 -0.2416  0.3683  0.5113
19457TIP3    H179786   2.797   3.363  17.359  0.3817 -1.4100  0.5676
19457TIP3    H279787   2.836   3.309  17.223  3.1557 -1.1241  1.1825
19458TIP3   OH279788   5.583   1.936   5.428 -0.6373 -0.0416 -0.3998
19458TIP3    H179789   5.504   1.893   5.395 -0.8288 -0.3882  0.4784
19458TIP3    H279790   5.551   2.002   5.489 -0.2028 -1.5431  1.5221
19459TIP3   OH279791   4.509   3.368   2.333 -0.4646 -0.0967  0.2653
19459TIP3    H179792   4.505   3.298   2.399 -0.2684  0.1679  0.5588
19459TIP3    H279793   4.428   3.359   2.283  0.5559 -2.0177 -1.2137
19460TIP3   OH279794   4.887   5.697   2.862 -0.8076  0.0111  0.0265
19460TIP3    H179795   4.901   5.756   2.935 -4.6403 -0.7818  1.6556
19460TIP3    H279796   4.962   5.638   2.864  0.2198  1.2802  1.9802
19461TIP3   OH279797   1.461   2.960  17.144  0.4638  0.3537  1.3252
19461TIP3    H179798   1.529   2.958  17.212 -0.4431 -0.0991  2.2544
19461TIP3    H279799   1.496   3.017  17.076  1.4593  0.7134  2.1157
19462TIP3   OH279800   6.594   3.438   4.561 -0.4877 -0.4918  0.5143
19462TIP3    H179801   6.670   3.421   4.617 -1.1529 -0.0560  1.5790
19462TIP3    H279802   6.529   3.476   4.620 -1.6093 -1.0395 -0.3381
19463TIP3   OH279803   1.479   0.971   5.218 -0.0875  0.0969  0.0248
19463TIP3    H179804   1.388   1.000   5.211 -0.4736 -1.2456 -0.8715
19463TIP3    H279805   1.479   0.884   5.179  1.4485 -0.2235  0.6909
19464TIP3   OH279806   3.016   3.167  15.292  0.0163  0.1076 -0.4276
19464TIP3    H179807   2.923   3.183  15.310 -0.2577  0.4362 -2.0050
19464TIP3    H279808   3.025   3.071  15.296 -0.2514  0.1039  0.2894
19465TIP3   OH279809   2.931   6.046  13.399  0.4635  0.2507  0.3215
19465TIP3    H179810   2.905   5.971  13.345  2.7203  1.3336 -2.5806
19465TIP3    H279811   2.852   6.070  13.447 -0.3157 -3.9868  1.5410
19466TIP3   OH279812   2.308   4.871  10.663 -0.4019  0.7006  0.4410
19466TIP3    H179813   2.286   4.957  10.629 -0.9103  1.3679  2.3272
19466TIP3    H279814   2.312   4.815  10.586 -2.9879  1.7761 -0.6013
19467TIP3   OH279815   0.896   1.938   2.934 -0.2081 -0.6624 -0.4848
19467TIP3    H179816   0.876   1.849   2.963  2.4942 -1.8365 -1.8923
19467TIP3    H279817   0.879   1.937   2.840  0.3990  0.1323 -0.6152
19468TIP3   OH279818   3.917   3.690  11.010  0.0492  0.3451 -0.2151
19468TIP3    H179819   3.950   3.602  11.029  1.5629  0.9331  0.0356
19468TIP3    H279820   3.945   3.707  10.920  0.4935  0.8912  0.0262
19469TIP3   OH279821   3.001   4.031  15.096  0.7046 -0.8194 -0.0063
19469TIP3    H179822   3.057   4.109  15.091  1.4343 -0.9907  3.2829
19469TIP3    H279823   3.061   3.958  15.080  0.5552 -0.8559 -0.4321
19470TIP3   OH279824   4.556   1.320  16.355 -0.4431 -0.5457  0.0475
19470TIP3    H179825   4.637   1.280  16.385 -0.3738 -1.3539 -1.1550
19470TIP3    H279826   4.522   1.260  16.288 -1.1364  0.6276 -0.6979
19471TIP3   OH279827   4.263   3.542  12.225  0.8344  0.3007 -0.2452
19471TIP3    H179828   4.201   3.576  12.290  0.8387 -0.6118  0.2519
19471TIP3    H279829   4.340   3.598  12.234  0.8679  0.1378  0.6075
19472TIP3   OH279830   1.760   2.316  16.097  0.1555 -0.1028 -0.0006
19472TIP3    H179831   1.711   2.262  16.160 -1.0259  0.7022 -0.2145
19472TIP3    H279832   1.849   2.318  16.133 -0.8603  1.8884  2.7281
19473TIP3   OH279833   3.524   5.547   5.157  0.1484 -0.2699  0.0158
19473TIP3    H179834   3.462   5.531   5.228 -1.2032 -1.5117 -1.3682
19473TIP3    H279835   3.572   5.464   5.148  0.9417  0.1708  0.0262
19474TIP3   OH279836   4.367   3.953  11.467 -0.0848 -0.6340 -0.7469
19474TIP3    H179837   4.441   3.970  11.409  2.5903  0.8899  2.7485
19474TIP3    H279838   4.367   4.026  11.529 -3.4779 -1.4873  0.4866
19475TIP3   OH279839   1.019   0.892  11.970 -0.3079 -0.0637  0.3464
19475TIP3    H179840   0.999   0.929  12.056  1.9556  0.0016  0.8937
19475TIP3    H279841   1.093   0.944  11.938 -0.3315 -0.8789 -1.1216
19476TIP3   OH279842   3.506   3.592  13.393  0.3493  0.2990 -0.5486
19476TIP3    H179843   3.469   3.595  13.481  1.2530  1.3432 -0.1625
19476TIP3    H279844   3.473   3.511  13.354  0.0755 -0.2651  0.8152
19477TIP3   OH279845   1.698   4.978   5.843  0.3417  0.1824 -0.2598
19477TIP3    H179846   1.653   5.000   5.762  0.0332 -1.1546 -0.4785
19477TIP3    H279847   1.782   5.023   5.837  0.2781  0.1800 -1.2842
19478TIP3   OH279848   1.476   0.273   5.072 -0.2894 -0.0277 -0.1514
19478TIP3    H179849   1.509   0.294   5.160 -1.4855 -0.8196  0.5123
19478TIP3    H279850   1.457   0.359   5.033  1.2062  0.3752 -0.0447
19479TIP3   OH279851   4.239   0.061  16.850  0.3708  0.0564 -0.1591
19479TIP3    H179852   4.264   0.028  16.936 -3.6353 -2.4764  0.2716
19479TIP3    H279853   4.244  -0.015  16.792 -2.1871  0.3137 -0.8362
19480TIP3   OH279854   4.950   4.110   1.418  0.2726  0.7467  0.0412
19480TIP3    H179855   4.950   4.167   1.340 -0.5319  2.5544  1.2883
19480TIP3    H279856   5.015   4.149   1.476  1.0581 -0.7410  0.1856
19481TIP3   OH279857   1.418   1.990   4.681 -0.3451 -0.2252  0.1162
19481TIP3    H179858   1.333   2.031   4.662 -0.6480 -1.7312 -2.1848
19481TIP3    H279859   1.419   1.981   4.777 -3.0633 -0.7125  0.1773
19482TIP3   OH279860   3.627   1.472  14.777  0.3739 -0.1929 -0.1236
19482TIP3    H179861   3.707   1.497  14.823  0.3046 -3.1645  1.9058
19482TIP3    H279862   3.633   1.377  14.768 -3.2596 -0.6974  0.9606
19483TIP3   OH279863   2.756   5.503  11.492 -0.5127  0.0860 -0.1538
19483TIP3    H179864   2.743   5.440  11.422  2.5801 -0.2162 -0.5640
19483TIP3    H279865   2.819   5.566  11.458 -0.6063  1.2186  1.5906
19484TIP3   OH279866   2.425   6.572  14.210 -0.2586  0.6606  0.0499
19484TIP3    H179867   2.483   6.643  14.240  1.1649 -0.6542  0.5633
19484TIP3    H279868   2.424   6.582  14.115  2.4336 -0.3761 -0.1808
19485TIP3   OH279869   0.942   5.363   4.236  0.1699  0.2468 -0.1012
19485TIP3    H179870   1.035   5.340   4.241 -0.1667 -0.8694  2.1829
19485TIP3    H279871   0.931   5.431   4.302 -0.5663  0.6774 -0.6615
19486TIP3   OH279872   6.709   0.476  14.205  0.2504 -0.6928 -0.2229
19486TIP3    H179873   6.649   0.435  14.267 -1.8111  2.5601  0.1804
19486TIP3    H279874   6.714   0.414  14.132 -1.3831 -2.3174  0.9530
19487TIP3   OH279875   3.887   2.439   2.822 -0.4315  0.3323  0.4853
19487TIP3    H179876   3.884   2.352   2.781 -0.3703  0.4991  0.1302
19487TIP3    H279877   3.826   2.432   2.896 -2.0529  0.6265 -0.7611
19488TIP3   OH279878   5.635   2.067  15.663 -0.3749  0.6400 -0.0719
19488TIP3    H179879   5.679   2.133  15.717 -0.6393 -0.1311  1.1119
19488TIP3    H279880   5.572   2.026  15.722 -1.3872  0.4524 -1.2393
19489TIP3   OH279881   3.563   6.021  13.243  0.2005 -0.3678 -0.2514
19489TIP3    H179882   3.541   6.043  13.153  0.1392 -0.3608 -0.2346
19489TIP3    H279883   3.651   6.056  13.255  0.1576 -0.2544 -0.2675
19490TIP3   OH279884   1.482   0.517  11.358  0.5857  0.5019  0.0848
19490TIP3    H179885   1.460   0.472  11.276  1.8833 -0.2142  0.1190
19490TIP3    H279886   1.404   0.571  11.376 -0.6786 -1.0784 -0.3773
19491TIP3   OH279887   1.470   2.004   4.262  0.0271  0.2044  0.2089
19491TIP3    H179888   1.383   2.030   4.230 -1.1021 -0.7665  2.3085
19491TIP3    H279889   1.486   1.919   4.222 -0.3642  0.0153  0.4517
19492TIP3   OH279890   4.503   1.316   2.993 -0.0111  0.3293 -0.0228
19492TIP3    H179891   4.461   1.231   2.984  0.7523  0.0287 -0.8127
19492TIP3    H279892   4.502   1.334   3.088  0.5282 -0.9192  0.2358
19493TIP3   OH279893   0.717   0.074  16.649 -0.5399  0.0293  0.6249
19493TIP3    H179894   0.653   0.143  16.630 -0.2906  0.2777  0.6868
19493TIP3    H279895   0.664   0.001  16.683 -0.8524  0.0180  0.1164
19494TIP3   OH279896   2.764   6.068  11.962  0.2056  0.3825 -0.4283
19494TIP3    H179897   2.686   6.118  11.935  0.1361  1.5052  1.5971
19494TIP3    H279898   2.838   6.120  11.929  0.1080  1.2935  0.6904
19495TIP3   OH279899   0.800   1.547  14.422 -0.1520 -0.2955 -0.1829
19495TIP3    H179900   0.797   1.618  14.486  0.7573  1.1673 -1.6641
19495TIP3    H279901   0.754   1.474  14.464  2.0382 -0.0890  2.8891
19496TIP3   OH279902   2.438   2.890  13.661 -0.5329 -0.3014  0.3340
19496TIP3    H179903   2.524   2.919  13.690 -0.2015 -1.2197  0.2795
19496TIP3    H279904   2.377   2.946  13.710  0.0898  1.6754 -1.0302
19497TIP3   OH279905   0.317   5.820  14.326  0.4497  0.1421  0.5806
19497TIP3    H179906   0.329   5.825  14.420 -0.4371  0.8991  0.6669
19497TIP3    H279907   0.403   5.796  14.292  0.9879  0.7010  1.5110
19498TIP3   OH279908   1.238   0.604   0.485  0.0462 -0.3079 -0.5961
19498TIP3    H179909   1.210   0.625   0.574  1.3580  1.4471 -0.5411
19498TIP3    H279910   1.172   0.542   0.453  0.0858 -1.7508  1.9045
19499TIP3   OH279911   1.892   3.266  17.153  0.1729  0.3353  0.2084
19499TIP3    H179912   1.920   3.211  17.080 -0.1879  0.7350 -0.2329
19499TIP3    H279913   1.939   3.348  17.142 -1.0785  0.9863 -0.4948
19500TIP3   OH279914   4.409   2.114   1.088  0.2350  0.6141 -0.0467
19500TIP3    H179915   4.486   2.138   1.036  1.2545  0.3632  1.2603
19500TIP3    H279916   4.338   2.106   1.025  0.5243  3.8746 -0.9603
19501TIP3   OH279917   3.254   5.130  13.953 -0.3131 -0.5827 -0.0506
19501TIP3    H179918   3.274   5.199  13.890 -0.2976 -1.7980 -1.4454
19501TIP3    H279919   3.162   5.145  13.976  0.1060  0.7693  0.8442
19502TIP3   OH279920   1.878   4.908  11.207 -0.0893  0.1181  0.4004
19502TIP3    H179921   1.888   4.997  11.242  1.0446  0.1651 -0.0062
19502TIP3    H279922   1.842   4.921  11.119  2.3198  0.3590 -0.6156
19503TIP3   OH279923   5.665   1.368   6.200  0.2832 -0.0454 -0.0641
19503TIP3    H179924   5.638   1.277   6.209 -1.2463  0.2061 -1.4989
19503TIP3    H279925   5.756   1.363   6.170  0.6161 -1.0541  1.0542
19504TIP3   OH279926   5.809   4.507   2.063  0.2883 -0.1529  0.5818
19504TIP3    H179927   5.887   4.519   2.009  0.8314  1.2901  1.6163
19504TIP3    H279928   5.836   4.445   2.130  0.6058  0.4411  1.0128
19505TIP3   OH279929   6.213   5.369   4.744 -0.3079 -0.0453  0.0509
19505TIP3    H179930   6.278   5.327   4.688  0.6745  1.6924 -0.1888
19505TIP3    H279931   6.130   5.326   4.721  0.1062  0.4077 -2.5646
19506TIP3   OH279932   4.734   2.677   6.867  0.1890  0.4105 -1.0245
19506TIP3    H179933   4.671   2.609   6.845  0.3153  0.0652 -0.3153
19506TIP3    H279934   4.699   2.718   6.946  1.3230 -0.4193 -0.0560
19507TIP3   OH279935   4.534   6.482  13.572  0.1524  0.1089 -0.5099
19507TIP3    H179936   4.462   6.496  13.510  0.3388 -0.8958 -0.9806
19507TIP3    H279937   4.527   6.389  13.596  0.1167  0.4699  0.9534
19508TIP3   OH279938   2.199   5.248  15.794  0.3220 -0.0136  0.6310
19508TIP3    H179939   2.188   5.199  15.713 -0.4371  0.8834  0.1776
19508TIP3    H279940   2.161   5.334  15.776  0.9955  0.5162  1.6296
19509TIP3   OH279941   4.995   5.516   4.881  0.3991  0.4714 -0.4108
19509TIP3    H179942   4.973   5.525   4.974 -1.6774  1.4472 -0.9333
19509TIP3    H279943   5.048   5.594   4.862  0.3156  0.5889 -0.1743
19510TIP3   OH279944   6.255   1.227   2.714  0.1698 -0.7180 -0.0516
19510TIP3    H179945   6.194   1.153   2.714  0.1684 -0.7209 -0.3396
19510TIP3    H279946   6.211   1.295   2.765  0.1229 -0.8781  0.1229
19511TIP3   OH279947   5.150   2.733   2.435  0.5698 -0.2202 -0.1195
19511TIP3    H179948   5.093   2.730   2.358  1.1611  1.5972 -0.6698
19511TIP3    H279949   5.208   2.807   2.419  1.3602 -0.4168  1.6374
19512TIP3   OH279950   2.160   3.365  12.727  0.0797 -0.3887  0.3324
19512TIP3    H179951   2.070   3.391  12.706  0.5891 -0.2610 -1.9482
19512TIP3    H279952   2.165   3.273  12.703  0.6755 -0.2714 -0.0158
19513TIP3   OH279953   2.806   3.903  14.014  0.1152 -0.4935  0.0831
19513TIP3    H179954   2.829   3.949  13.933  0.1950 -1.5566 -0.5297
19513TIP3    H279955   2.731   3.951  14.049  0.4435  0.3259 -0.3130
19514TIP3   OH279956   2.330   4.434   5.918  0.4579  0.1104  0.1057
19514TIP3    H179957   2.393   4.437   5.989  0.0451 -1.6624  0.6122
19514TIP3    H279958   2.249   4.470   5.955  0.3622 -0.4147  0.4231
19515TIP3   OH279959   3.969   6.000  13.510  0.0298 -0.2036 -0.6471
19515TIP3    H179960   4.038   5.943  13.477 -0.8910 -1.7755 -0.0110
19515TIP3    H279961   3.905   5.940  13.548 -0.9922  1.2771  0.0886
19516TIP3   OH279962   1.290   0.188   3.582  0.0567  0.3870 -0.0580
19516TIP3    H179963   1.349   0.263   3.587 -0.7936  1.0199  0.6773
19516TIP3    H279964   1.333   0.120   3.635 -0.2399  1.1024  1.1279
19517TIP3   OH279965   2.690   4.606  14.285 -0.0796  0.5493 -0.0219
19517TIP3    H179966   2.633   4.681  14.301 -0.4623  0.3635 -0.4982
19517TIP3    H279967   2.769   4.625  14.336 -0.3257  1.0927  0.1663
19518TIP3   OH279968   0.571   0.315   6.603  0.2611 -0.3902  0.7211
19518TIP3    H179969   0.641   0.355   6.655 -0.3582 -2.0579  3.0077
19518TIP3    H279970   0.492   0.362   6.630  0.1488 -0.1648  0.0127
19519TIP3   OH279971   1.703   2.992   5.128  0.0725  0.8649  0.3072
19519TIP3    H179972   1.753   3.024   5.052 -1.3634  0.0586 -1.0362
19519TIP3    H279973   1.764   3.000   5.201  0.5012  4.7582 -0.2225
19520TIP3   OH279974   4.507   4.698  12.921 -0.5961  0.6963 -0.0483
19520TIP3    H179975   4.421   4.674  12.887 -0.5592 -0.2722  0.5070
19520TIP3    H279976   4.491   4.721  13.013 -0.1209 -0.6025  0.3890
19521TIP3   OH279977   2.345   2.658  12.728 -0.5954 -0.2468  0.1670
19521TIP3    H179978   2.296   2.604  12.790 -1.2296  0.2969  0.1510
19521TIP3    H279979   2.342   2.746  12.766  0.0211 -0.1277 -0.0451
19522TIP3   OH279980   6.248   6.050  15.153 -0.2691  0.1845  0.2233
19522TIP3    H179981   6.202   6.122  15.197 -1.6482 -1.4685  1.6126
19522TIP3    H279982   6.321   6.093  15.107 -1.9500  2.6651 -0.3518
19523TIP3   OH279983   0.531   6.164   3.412 -0.4275 -0.7274 -0.1636
19523TIP3    H179984   0.557   6.174   3.503  0.1215 -0.7453 -0.3151
19523TIP3    H279985   0.517   6.070   3.401 -0.3213 -0.7467 -0.1400
19524TIP3   OH279986   1.694   5.809   5.048 -0.4540  0.6506  0.2473
19524TIP3    H179987   1.732   5.724   5.024 -0.8439  0.1379  1.3712
19524TIP3    H279988   1.769   5.867   5.059 -0.1295  0.2295  0.2861
19525TIP3   OH279989   2.779   3.854  12.505  0.1203  0.2818  0.4806
19525TIP3    H179990   2.708   3.896  12.457 -0.7935  0.7076  2.1173
19525TIP3    H279991   2.766   3.760  12.491 -0.7892  0.3565  0.7968
19526TIP3   OH279992   6.675   2.745   1.409  0.2344  0.3037 -0.0320
19526TIP3    H179993   6.631   2.662   1.429  0.8175  0.0550  0.2409
19526TIP3    H279994   6.603   2.806   1.391 -0.2218 -0.1002  0.3689
19527TIP3   OH279995   1.638   2.298   2.273  0.2950  0.9112 -0.5468
19527TIP3    H179996   1.553   2.327   2.306  0.7780  0.6551  0.9763
19527TIP3    H279997   1.690   2.379   2.268 -0.7660  1.5453 -4.0414
19528TIP3   OH279998   4.797   3.906   5.784  0.5189  0.2977 -0.0625
19528TIP3    H179999   4.781   3.812   5.785 -0.4381  0.4474 -0.3574
19528TIP3    H280000   4.767   3.937   5.869 -0.3975  0.5144 -0.4500
19529TIP3   OH280001   5.596   3.030  13.558  0.3136  0.7143  0.2907
19529TIP3    H180002   5.552   3.113  13.576  1.8035  2.1198 -1.9846
19529TIP3    H280003   5.533   2.982  13.503 -1.2207 -0.4955  2.8858
19530TIP3   OH280004   3.258   1.737  14.963  0.1149 -0.4908 -0.4320
19530TIP3    H180005   3.220   1.744  15.051  0.5605  0.9390 -0.3276
19530TIP3    H280006   3.199   1.787  14.907  0.7218  0.0220 -0.6276
19531TIP3   OH280007   3.693   4.476  13.606 -0.2759 -0.1818 -0.6046
19531TIP3    H180008   3.626   4.538  13.638 -0.1372  0.1185 -0.8864
19531TIP3    H280009   3.652   4.435  13.530 -1.7325 -2.9462  1.4702
19532TIP3   OH280010   3.326   1.350   6.520 -0.1474 -0.0672 -0.5799
19532TIP3    H180011   3.401   1.297   6.494 -0.2283  0.3304 -1.6743
19532TIP3    H280012   3.363   1.423   6.569  0.7012  2.2628 -4.2917
19533TIP3   OH280013   4.930   2.682  12.114 -0.0644  0.0187 -0.2932
19533TIP3    H180014   4.928   2.777  12.105  0.4849  0.0914  0.2728
19533TIP3    H280015   4.876   2.650  12.042 -0.4690  0.7684 -0.3332
19534TIP3   OH280016   6.771   3.514  14.763 -0.0365  0.6394  0.3993
19534TIP3    H180017   6.797   3.486  14.851  0.9469  0.3620  0.0339
19534TIP3    H280018   6.727   3.438  14.726  0.5799  0.3495  0.2439
19535TIP3   OH280019   5.598   4.099  16.682  0.0051  0.0523  0.2980
19535TIP3    H180020   5.668   4.077  16.621  0.5998 -1.0278  1.3383
19535TIP3    H280021   5.517   4.077  16.635  0.4255 -0.2176 -0.3076
19536TIP3   OH280022   2.821   1.251  14.574 -0.8516  0.1780 -0.0064
19536TIP3    H180023   2.854   1.323  14.628 -1.3551  0.5344 -0.1712
19536TIP3    H280024   2.768   1.198  14.634 -1.1734  0.4131 -0.0820
19537TIP3   OH280025   6.753   0.693  16.125  0.6869 -0.4844 -0.9315
19537TIP3    H180026   6.726   0.785  16.121 -1.4810 -0.9749  0.8192
19537TIP3    H280027   6.800   0.679  16.043 -2.8306  0.9882 -3.4556
19538TIP3   OH280028   1.711   4.629  15.984  0.5650 -0.4844 -0.4026
19538TIP3    H180029   1.795   4.638  15.939  0.6408  0.5239 -0.0861
19538TIP3    H280030   1.697   4.714  16.027 -0.4666 -0.7393 -0.1939
19539TIP3   OH280031   5.169   5.972  14.514  0.0313 -0.1260  0.4646
19539TIP3    H180032   5.130   6.010  14.593  2.1691  1.4507  0.8467
19539TIP3    H280033   5.102   5.984  14.447  0.1529  3.6807  0.7735
19540TIP3   OH280034   0.065   1.142   0.092 -0.0681  0.4212  0.3038
19540TIP3    H180035   0.118   1.067   0.062  0.3647  0.6071  0.5912
19540TIP3    H280036   0.050   1.125   0.185 -1.0013  0.0880  0.1050
19541TIP3   OH280037   1.601   0.032   5.091 -0.5117  0.1239 -0.6522
19541TIP3    H180038   1.591   0.127   5.104 -0.3022  0.3627 -2.0778
19541TIP3    H280039   1.566   0.016   5.004 -0.8558 -1.1859 -0.2880
19542TIP3   OH280040   5.067   2.059   2.709 -0.3902  0.1808 -0.4005
19542TIP3    H180041   5.046   2.082   2.618  0.6591  2.7015 -0.0661
19542TIP3    H280042   5.020   2.122   2.762  1.8646  1.1192  0.6219
19543TIP3   OH280043   1.624   6.767   3.021 -0.0256 -0.1854 -0.2841
19543TIP3    H180044   1.652   6.788   3.111  0.6715  0.3964 -0.6305
19543TIP3    H280045   1.699   6.723   2.983  0.3300  1.0962 -1.1224
19544TIP3   OH280046   3.292   5.584   1.957 -0.4289 -0.3120  0.3847
19544TIP3    H180047   3.336   5.656   1.911  1.5179 -2.3599 -1.1977
19544TIP3    H280048   3.363   5.537   2.000 -1.8146 -0.6136  2.4678
19545TIP3   OH280049   4.606   2.141  12.065  0.2939 -0.6111  0.2786
19545TIP3    H180050   4.546   2.187  12.124 -0.5696 -0.6008 -0.5981
19545TIP3    H280051   4.663   2.210  12.031  0.3421 -0.5098  0.5627
19546TIP3   OH280052   5.741   6.593   5.552 -0.1170  0.1419 -0.3492
19546TIP3    H180053   5.732   6.628   5.463  0.6334 -1.7986 -1.2504
19546TIP3    H280054   5.835   6.576   5.561 -0.4381 -1.7136 -0.0458
19547TIP3   OH280055   3.192   5.193   5.616 -0.3715  0.1949  0.2392
19547TIP3    H180056   3.215   5.120   5.673  0.7117  1.5331  1.5827
19547TIP3    H280057   3.116   5.234   5.658  0.6938  1.4436  0.9858
19548TIP3   OH280058   1.975   2.618  12.909  0.0503  0.5723 -0.0943
19548TIP3    H180059   2.018   2.560  12.971 -2.0416 -0.3740  0.5626
19548TIP3    H280060   2.001   2.585  12.823  2.8191  1.7801  0.1669
19549TIP3   OH280061   4.152   3.342   6.423 -0.1254 -0.1878 -0.2663
19549TIP3    H180062   4.219   3.310   6.482 -0.5105 -2.7246 -1.0950
19549TIP3    H280063   4.070   3.326   6.469 -0.3177 -0.1881 -0.6036
19550TIP3   OH280064   1.060   1.066  11.705 -0.2351  0.0889  0.2014
19550TIP3    H180065   1.033   1.158  11.713  1.5401  0.8374 -1.5479
19550TIP3    H280066   1.148   1.064  11.741  0.5589 -0.4315 -1.6593
19551TIP3   OH280067   2.074   4.238   2.229 -0.0196 -0.1679  0.2199
19551TIP3    H180068   2.007   4.230   2.161  0.2149 -0.3839  0.0071
19551TIP3    H280069   2.105   4.328   2.221 -1.2515  0.3767  1.2584
19552TIP3   OH280070   6.358   4.048  17.111 -0.0304 -0.1071  0.1181
19552TIP3    H180071   6.321   4.020  17.027 -1.3122  2.2461 -0.2041
19552TIP3    H280072   6.382   3.967  17.155 -0.6717 -1.4841 -1.9215
19553TIP3   OH280073   5.113   1.539  12.256  0.0162  0.6563 -0.4678
19553TIP3    H180074   5.075   1.535  12.343  0.1856 -0.9488 -0.4422
19553TIP3    H280075   5.201   1.574  12.270  0.0876  0.2897  0.0308
19554TIP3   OH280076   1.472   3.461   5.218 -0.5623  0.1421 -0.1719
19554TIP3    H180077   1.518   3.416   5.288 -0.8899 -1.6552 -1.0558
19554TIP3    H280078   1.522   3.541   5.204  1.9749 -1.4183 -0.6759
19555TIP3   OH280079   3.331   5.320  13.719 -0.0638  0.1750 -0.1388
19555TIP3    H180080   3.313   5.236  13.677 -1.1229 -0.1868  0.9739
19555TIP3    H280081   3.249   5.368  13.714 -0.1932  0.1728  1.3299
19556TIP3   OH280082   3.070   3.572  11.963 -0.3190  0.2355  0.0781
19556TIP3    H180083   3.019   3.509  11.912 -0.1907 -0.6612  1.0395
19556TIP3    H280084   3.019   3.653  11.959 -0.6739 -0.0187 -0.8596
19557TIP3   OH280085   2.960   4.326  12.914 -0.4567  0.0869 -0.1812
19557TIP3    H180086   2.979   4.259  12.848  0.8808 -0.0422  0.3189
19557TIP3    H280087   3.045   4.349  12.951 -1.2373 -0.4952  2.1460
19558TIP3   OH280088   1.583   3.005  12.191  0.1578 -0.3210  0.2314
19558TIP3    H180089   1.505   3.060  12.193  0.3237 -0.0915  0.5202
19558TIP3    H280090   1.627   3.028  12.110  0.9530  1.0028  0.9965
19559TIP3   OH280091   2.444   4.806  15.376  0.0850 -0.6259  0.4398
19559TIP3    H180092   2.497   4.881  15.403  0.4589 -1.0293  0.8324
19559TIP3    H280093   2.476   4.785  15.288  2.2842 -2.3557  1.5490
19560TIP3   OH280094   0.953   4.906   4.677 -0.5765 -0.1871  0.3347
19560TIP3    H180095   0.940   4.812   4.685 -2.0394 -0.1244 -1.0496
19560TIP3    H280096   1.049   4.916   4.672 -0.4473 -1.7457 -1.1140
19561TIP3   OH280097   2.909   0.417   5.126 -0.0689 -0.5114  0.1041
19561TIP3    H180098   2.898   0.503   5.085 -0.9205 -1.0724 -0.8818
19561TIP3    H280099   2.973   0.372   5.071  0.2972 -0.5539  0.5585
19562TIP3   OH280100   3.953   1.180  12.721  0.1202  0.1877  0.0356
19562TIP3    H180101   4.037   1.168  12.678  0.2766  0.0528  0.3720
19562TIP3    H280102   3.972   1.231  12.800  0.0845 -0.8275  0.7313
19563TIP3   OH280103   2.663   4.126  15.872 -0.3826  0.2105  0.5937
19563TIP3    H180104   2.637   4.169  15.954  0.5024  0.0058  0.9944
19563TIP3    H280105   2.713   4.049  15.900  2.0712  1.4628 -0.1290
19564TIP3   OH280106   4.354   0.973   1.765 -0.6034  0.1160  0.5516
19564TIP3    H180107   4.382   0.979   1.856 -0.5437  0.2419  0.5248
19564TIP3    H280108   4.285   0.906   1.765  0.2279 -0.7679  0.4917
19565TIP3   OH280109   5.344   0.720  16.397  0.4798 -0.3195 -0.2122
19565TIP3    H180110   5.262   0.683  16.427 -0.1128 -0.8108 -2.2616
19565TIP3    H280111   5.320   0.776  16.323  1.9824 -0.6180 -0.9737
19566TIP3   OH280112   5.460   2.602  14.588 -0.0384  0.3859  0.2364
19566TIP3    H180113   5.538   2.550  14.608 -0.9746 -1.2361 -0.1541
19566TIP3    H280114   5.396   2.576  14.655 -0.9071  0.1405 -0.6714
19567TIP3   OH280115   6.185   5.750  15.566 -0.0194  0.5996  0.2382
19567TIP3    H180116   6.111   5.808  15.585 -0.3950  0.2897 -0.2616
19567TIP3    H280117   6.223   5.786  15.485  0.2368  0.6217  0.3672
19568TIP3   OH280118   5.517   1.460  13.775  0.4099 -0.2594  1.2500
19568TIP3    H180119   5.500   1.365  13.780 -2.2903 -0.0633 -1.5027
19568TIP3    H280120   5.452   1.499  13.833 -0.4705 -0.0155  0.1321
19569TIP3   OH280121   2.298   1.442  12.901 -0.3900  0.4697 -0.3606
19569TIP3    H180122   2.347   1.368  12.866 -0.0154  0.9089 -0.7878
19569TIP3    H280123   2.250   1.407  12.976 -2.3198 -0.8499 -2.0878
19570TIP3   OH280124   6.641   2.611  14.723  0.1664 -0.2566 -0.1638
19570TIP3    H180125   6.588   2.644  14.650 -0.7456 -0.0734  0.5512
19570TIP3    H280126   6.720   2.576  14.682 -0.5117 -0.5456 -1.2770
19571TIP3   OH280127   6.421   5.077   1.203  0.2982  0.2325  0.3750
19571TIP3    H180128   6.374   5.067   1.287 -0.8286  0.9461 -0.1390
19571TIP3    H280129   6.459   5.165   1.207  0.7092  0.0574  0.3539
19572TIP3   OH280130   1.525   6.591   0.754 -0.0552 -0.1232 -0.0393
19572TIP3    H180131   1.607   6.630   0.724 -0.4303 -0.1922 -1.2041
19572TIP3    H280132   1.459   6.658   0.736 -0.6514 -1.0909 -1.7079
19573TIP3   OH280133   5.277   0.471   5.359  0.1108  0.5771 -0.0185
19573TIP3    H180134   5.305   0.407   5.424  0.6781 -0.5100 -1.2974
19573TIP3    H280135   5.284   0.555   5.405 -1.0525 -0.2655  1.8221
19574TIP3   OH280136   5.918   0.958   1.708 -0.1991  0.3876  0.2553
19574TIP3    H180137   5.843   0.994   1.756  0.3142 -0.1867  1.5274
19574TIP3    H280138   5.987   1.022   1.720 -0.0672  0.2434  0.2642
19575TIP3   OH280139   2.648   4.737   3.808 -0.6609 -0.4885  0.3483
19575TIP3    H180140   2.678   4.658   3.764  1.1366 -0.3255  1.1744
19575TIP3    H280141   2.676   4.809   3.751 -0.8496 -0.3965  0.3731
19576TIP3   OH280142   4.111   0.547   5.954 -0.2478 -0.1173  0.4825
19576TIP3    H180143   4.080   0.515   6.039  1.7301 -0.6936  1.0299
19576TIP3    H280144   4.064   0.494   5.890  1.4276 -2.8206  1.3371
19577TIP3   OH280145   4.083   6.419   0.904  0.3187  0.3141  0.3895
19577TIP3    H180146   4.033   6.472   0.842  3.1727  2.3615 -0.3421
19577TIP3    H280147   4.053   6.448   0.990 -2.3433 -1.2383  0.1105
19578TIP3   OH280148   1.324   4.723   1.858 -0.8785 -0.1071  0.5737
19578TIP3    H180149   1.315   4.740   1.764  1.2701 -0.7309  0.2194
19578TIP3    H280150   1.272   4.793   1.899  0.0531  1.6258 -1.0345
19579TIP3   OH280151   4.891   4.413   6.297  0.1966  0.7023  0.0370
19579TIP3    H180152   4.864   4.464   6.373 -2.2729 -1.6144  0.8856
19579TIP3    H280153   4.963   4.358   6.330 -2.5783 -2.2349  1.6981
19580TIP3   OH280154   3.206   0.729   1.000  0.2974 -0.1902  0.3775
19580TIP3    H180155   3.124   0.746   0.953  0.8257  0.4398 -0.3351
19580TIP3    H280156   3.235   0.644   0.966  0.8704  0.4344 -0.7419
19581TIP3   OH280157   3.784   3.981  14.011  0.1050  0.5059 -0.4447
19581TIP3    H180158   3.850   3.925  13.970 -1.7648  0.1679 -3.2698
19581TIP3    H280159   3.831   4.061  14.033  1.8324 -0.4097 -0.6499
19582TIP3   OH280160   0.810   5.827   0.551 -0.2209  0.8989  0.3161
19582TIP3    H180161   0.870   5.792   0.485 -0.3789  1.2958 -0.0446
19582TIP3    H280162   0.793   5.753   0.610 -0.4648  0.4005 -0.3700
19583TIP3   OH280163   3.805   6.751   4.197  0.4445  0.1813  0.0896
19583TIP3    H180164   3.821   6.845   4.212 -0.8267  0.2976  0.8452
19583TIP3    H280165   3.793   6.744   4.102 -0.2652  0.9230  0.1133
19584TIP3   OH280166   6.026   4.984  14.366 -0.2052  0.5325 -0.0465
19584TIP3    H180167   6.069   5.060  14.326  0.1222  0.6437  0.5120
19584TIP3    H280168   6.068   4.975  14.451 -0.5643 -0.0001  0.0753
19585TIP3   OH280169   4.081   2.241   2.722 -0.9974  0.2062  0.0700
19585TIP3    H180170   4.047   2.287   2.645  0.8038  0.3754 -0.6618
19585TIP3    H280171   4.092   2.150   2.692  0.0628  0.3528 -0.0053
19586TIP3   OH280172   4.817   5.824   4.131  0.1855  0.3997 -0.0121
19586TIP3    H180173   4.839   5.757   4.066 -1.1477  0.5739 -0.6750
19586TIP3    H280174   4.730   5.800   4.161 -1.7106  3.3800 -2.4478
19587TIP3   OH280175   4.057   1.429   0.089 -0.1903  0.3008  0.4314
19587TIP3    H180176   4.052   1.463   0.178 -1.5567  0.3701  0.3417
19587TIP3    H280177   4.016   1.496   0.035 -0.3229 -0.2075 -0.1107
19588TIP3   OH280178   2.792   3.223  14.350  0.0955  0.1696 -0.0111
19588TIP3    H180179   2.772   3.281  14.277  1.0165 -1.2452 -1.4512
19588TIP3    H280180   2.879   3.251  14.381  0.0311  0.2932  0.0584
19589TIP3   OH280181   4.262   2.988  12.150  0.3685  0.3731 -0.0076
19589TIP3    H180182   4.269   2.986  12.055 -3.5527 -1.0778 -0.4589
19589TIP3    H280183   4.319   2.917  12.180 -1.2991 -1.8161 -1.6995
19590TIP3   OH280184   2.938   0.564  11.363 -0.4448  0.0882  0.1187
19590TIP3    H180185   2.992   0.640  11.386 -0.1902 -0.5903  1.8905
19590TIP3    H280186   2.989   0.489  11.392  0.3164 -1.0183 -3.5045
19591TIP3   OH280187   0.227   0.542   5.896  0.2707 -0.1947  0.1128
19591TIP3    H180188   0.196   0.632   5.888  1.6847  0.2839 -0.3076
19591TIP3    H280189   0.196   0.514   5.982  0.8097  1.1147  0.7669
19592TIP3   OH280190   2.500   1.987   3.791 -0.4551 -0.4588  0.4918
19592TIP3    H180191   2.591   1.982   3.822 -0.4329 -1.3238  0.3038
19592TIP3    H280192   2.449   2.009   3.868 -0.3194 -1.9406  1.0294
19593TIP3   OH280193   4.435   5.015  11.074 -0.3673  0.1405 -0.1245
19593TIP3    H180194   4.445   4.921  11.089  2.2954  0.4116  0.2989
19593TIP3    H280195   4.352   5.038  11.116 -0.9694 -1.9647 -0.0749
19594TIP3   OH280196   0.980   3.280  15.374  0.3409  0.1079  0.5445
19594TIP3    H180197   0.897   3.263  15.329  1.4066  0.2565 -1.5881
19594TIP3    H280198   0.963   3.256  15.465 -1.6862 -0.9703 -0.0614
19595TIP3   OH280199   4.513   0.832   2.253  0.4762  0.1563  0.0296
19595TIP3    H180200   4.445   0.766   2.242  0.7948 -0.1850  0.0723
19595TIP3    H280201   4.592   0.782   2.275  1.1607  0.3894 -1.7164
19596TIP3   OH280202   1.529   3.440  15.203 -0.1390  0.0852  0.0012
19596TIP3    H180203   1.499   3.358  15.165  0.5675  0.0604 -0.5174
19596TIP3    H280204   1.451   3.476  15.247 -0.3628 -1.0325  0.5663
19597TIP3   OH280205   1.587   0.932  14.798  0.2840 -0.3834 -0.0127
19597TIP3    H180206   1.682   0.934  14.796  0.2749  0.4919 -0.3813
19597TIP3    H280207   1.563   0.851  14.754  0.8565 -0.8583  0.5229
19598TIP3   OH280208   1.671   3.680   6.426  0.8224 -0.2105  0.0470
19598TIP3    H180209   1.676   3.597   6.472 -0.1780  0.1465  0.8293
19598TIP3    H280210   1.588   3.719   6.454  1.4546  1.2368  0.0176
19599TIP3   OH280211   6.521   0.619   6.179 -0.3117 -0.4368 -0.3274
19599TIP3    H180212   6.493   0.626   6.270  0.3006  2.0747 -0.2576
19599TIP3    H280213   6.566   0.702   6.161  0.8271 -1.4274 -2.5081
19600TIP3   OH280214   0.505   0.518  10.963  0.2681  0.1319 -0.0192
19600TIP3    H180215   0.544   0.533  11.049  2.1991 -0.4861 -0.7097
19600TIP3    H280216   0.577   0.483  10.911 -0.6038  1.2961 -2.1387
19601TIP3   OH280217   6.615   6.548  14.742 -0.5194 -0.2113 -0.2230
19601TIP3    H180218   6.670   6.512  14.812  0.4517  2.0912  0.2944
19601TIP3    H280219   6.545   6.595  14.789 -0.6229  0.2372 -0.8161
19602TIP3   OH280220   4.900   2.952   0.560  0.3848 -1.0199 -0.2189
19602TIP3    H180221   4.882   2.914   0.474  1.5104 -1.6718 -0.1820
19602TIP3    H280222   4.958   3.026   0.541 -0.8707  0.0168 -0.1767
19603TIP3   OH280223   4.817   5.063   1.743 -0.0359  0.2653  0.0320
19603TIP3    H180224   4.828   5.020   1.659  0.2337  0.0999  0.1510
19603TIP3    H280225   4.842   5.154   1.727 -1.0584  0.5005 -0.3356
19604TIP3   OH280226   5.034   2.921  15.528  0.0257 -0.3218  0.0739
19604TIP3    H180227   5.014   2.830  15.551  0.5757 -0.3346  0.5237
19604TIP3    H280228   5.128   2.928  15.539  0.2770 -0.2083 -1.7938
19605TIP3   OH280229   3.552   3.480   1.682 -0.0553 -0.4297 -0.2291
19605TIP3    H180230   3.465   3.475   1.722  0.1770 -1.5291  0.1736
19605TIP3    H280231   3.538   3.450   1.592 -0.3515  0.8615 -0.6396
19606TIP3   OH280232   2.458   0.128  13.071  0.0332  0.2392 -0.5022
19606TIP3    H180233   2.363   0.115  13.073 -0.0517  0.5213 -1.8588
19606TIP3    H280234   2.492   0.047  13.034  0.3633 -0.0160  0.3490
19607TIP3   OH280235   0.703   5.447   3.290 -0.4797 -0.3621  0.0284
19607TIP3    H180236   0.678   5.359   3.263  3.1639 -1.9887  1.2982
19607TIP3    H280237   0.754   5.481   3.216  0.0559 -0.2383  0.4534
19608TIP3   OH280238   1.147   2.399  13.949 -0.2231 -0.4822  0.4638
19608TIP3    H180239   1.138   2.493  13.960  0.5119 -0.3634  0.0841
19608TIP3    H280240   1.058   2.368  13.933 -0.1700  0.5164 -2.1667
19609TIP3   OH280241   4.499   2.786   6.643  0.4517  0.6993 -0.6983
19609TIP3    H180242   4.405   2.775   6.633  0.4757 -1.6322  1.0445
19609TIP3    H280243   4.509   2.849   6.714  0.0648 -1.7710  1.7116
19610TIP3   OH280244   2.872   2.293  12.627 -0.0228 -0.1754  0.2811
19610TIP3    H180245   2.849   2.367  12.683 -3.6156 -0.9211  0.0612
19610TIP3    H280246   2.904   2.226  12.688  0.5091  0.5690  0.8343
19611TIP3   OH280247   5.025   3.602  11.186 -0.0704  0.3553 -0.3960
19611TIP3    H180248   5.059   3.550  11.114 -2.0487 -1.0909 -0.3679
19611TIP3    H280249   5.100   3.615  11.244  0.5118 -2.5842 -0.3609
19612TIP3   OH280250   1.815   1.530   6.297  0.1481  0.2148  0.1482
19612TIP3    H180251   1.746   1.465   6.306 -0.1021  0.3106 -0.9179
19612TIP3    H280252   1.769   1.614   6.291  0.3200  0.2526 -0.8377
19613TIP3   OH280253   1.766   6.059  10.155  0.1648 -0.1847  0.2735
19613TIP3    H180254   1.704   6.125  10.124 -0.2094  0.6086  2.5546
19613TIP3    H280255   1.830   6.108  10.206  0.3603 -1.4794  1.3187
19614TIP3   OH280256   0.006   5.009  12.861  0.1978  0.7290  0.2254
19614TIP3    H180257   0.070   4.965  12.805 -0.8844  0.9735 -1.2476
19614TIP3    H280258  -0.041   5.068  12.802 -1.1166  0.8552  1.3516
19615TIP3   OH280259   6.082   1.082   0.403 -0.1006 -0.4815 -0.1576
19615TIP3    H180260   6.048   1.164   0.438  1.1446 -0.9765  2.4533
19615TIP3    H280261   6.035   1.069   0.321 -2.9341  1.0272  1.1102
19616TIP3   OH280262   4.272   5.312  15.686 -0.0192  0.1344  0.2071
19616TIP3    H180263   4.242   5.324  15.596 -1.3448 -1.3889  0.4045
19616TIP3    H280264   4.208   5.253  15.725  2.0067 -1.4409  1.3534
19617TIP3   OH280265   1.873   2.863  14.606 -0.1918 -0.0905  0.0228
19617TIP3    H180266   1.902   2.783  14.650  0.2231  0.7684  1.3573
19617TIP3    H280267   1.783   2.875  14.636  0.1796  0.6410  0.8691
19618TIP3   OH280268   6.559   4.369   5.782  0.2742  0.1678  0.4264
19618TIP3    H180269   6.642   4.393   5.739  0.5667  1.0974  1.4547
19618TIP3    H280270   6.494   4.427   5.742  0.3966  0.4711  0.6647
19619TIP3   OH280271   4.641   0.825   2.680 -0.2125  0.2799 -0.5863
19619TIP3    H180272   4.671   0.847   2.768  0.6853 -0.2670 -0.7330
19619TIP3    H280273   4.719   0.787   2.638 -0.8899 -0.3679 -1.2859
19620TIP3   OH280274   0.781   2.687   3.529 -0.6278  0.2975  0.4890
19620TIP3    H180275   0.794   2.781   3.546  2.0195  0.5784 -2.2618
19620TIP3    H280276   0.795   2.645   3.614 -1.4996  2.3278  1.7087
19621TIP3   OH280277   4.103   5.550   1.818  0.0490  0.3763  0.6965
19621TIP3    H180278   4.044   5.578   1.888  1.5927 -0.2267  2.3035
19621TIP3    H280279   4.167   5.620   1.810  0.3913  0.0458  0.5066
19622TIP3   OH280280   4.966   3.915  17.041 -0.1534 -0.2523 -0.1439
19622TIP3    H180281   4.911   3.869  17.104 -1.8273  0.5035 -0.9814
19622TIP3    H280282   5.051   3.921  17.083 -1.0455 -0.3346  1.7727
19623TIP3   OH280283   2.918   2.315   2.685  0.1207 -0.3065  0.3339
19623TIP3    H180284   2.842   2.298   2.740  0.4979  1.4294  1.4910
19623TIP3    H280285   2.993   2.288   2.738  0.4400  0.4659  0.2919
19624TIP3   OH280286   5.440   1.604   1.742  0.4217 -0.3262  0.1196
19624TIP3    H180287   5.421   1.608   1.649 -0.8833  0.4204  0.3875
19624TIP3    H280288   5.420   1.692   1.775  3.8211  0.3831  0.6330
19625TIP3   OH280289   5.289   0.237  15.925  0.1974  0.0144  0.4763
19625TIP3    H180290   5.310   0.264  15.836 -4.5308 -0.5786 -1.1013
19625TIP3    H280291   5.297   0.142  15.925 -2.0315 -0.2288 -0.1723
19626TIP3   OH280292   0.088   2.472   2.636  0.0703 -0.1839 -0.1439
19626TIP3    H180293   0.173   2.428   2.647 -0.3679 -1.0903 -0.3302
19626TIP3    H280294   0.083   2.531   2.712  0.5227 -0.7008  0.3025
19627TIP3   OH280295   4.485   5.232  13.581  0.3097  0.2105 -0.2120
19627TIP3    H180296   4.482   5.243  13.486 -0.7061  0.1450 -0.1903
19627TIP3    H280297   4.436   5.151  13.597  0.0609  0.4875  0.4170
19628TIP3   OH280298   5.010   0.232  12.323 -0.2474 -0.0562 -0.5311
19628TIP3    H180299   4.973   0.160  12.273 -1.1938 -2.8466  3.6251
19628TIP3    H280300   5.091   0.197  12.360 -0.8198  0.8465  1.7591
19629TIP3   OH280301   4.056   2.891   4.680  0.3650 -0.1701 -0.5634
19629TIP3    H180302   4.037   2.949   4.606  0.2665 -2.1926 -2.1917
19629TIP3    H280303   4.148   2.868   4.670 -0.0941 -1.8832 -1.1638
19630TIP3   OH280304   6.598   5.875  15.187  0.0194  0.1787 -0.2999
19630TIP3    H180305   6.526   5.833  15.142  1.2394 -1.8531 -0.4894
19630TIP3    H280306   6.677   5.841  15.144  1.1500  3.6619 -1.3038
19631TIP3   OH280307   0.964   3.238   4.040 -0.0121 -0.5040 -0.5191
19631TIP3    H180308   0.948   3.274   4.127  1.1994 -0.2500 -0.3793
19631TIP3    H280309   0.972   3.315   3.983  0.8286 -0.5934 -0.5400
19632TIP3   OH280310   2.905   4.958   1.833  0.5526 -0.0922 -0.3265
19632TIP3    H180311   2.921   4.899   1.907  0.1925 -1.6267 -1.4100
19632TIP3    H280312   2.992   4.972   1.795  0.5790 -0.3832 -0.3806
19633TIP3   OH280313   4.016   4.801   4.889 -0.1544 -0.1040  0.0155
19633TIP3    H180314   3.929   4.828   4.918 -0.0162 -0.7598  1.0918
19633TIP3    H280315   4.031   4.717   4.933  0.1528 -1.0867 -1.8438
19634TIP3   OH280316   5.069   5.292  14.178  0.6198  0.2935 -0.1572
19634TIP3    H180317   5.064   5.282  14.273 -2.6742 -0.4397 -0.2815
19634TIP3    H280318   4.998   5.353  14.157  0.6891 -0.2791 -2.2362
19635TIP3   OH280319   3.778   6.393  14.189  0.2323  0.5089  0.0227
19635TIP3    H180320   3.741   6.480  14.201  1.9665  1.4256 -0.9967
19635TIP3    H280321   3.788   6.359  14.278  0.2645  1.6455  0.4705
19636TIP3   OH280322   6.597   1.725   5.142  0.0263 -0.0425  0.4462
19636TIP3    H180323   6.532   1.676   5.194  0.4100 -0.4374  0.5593
19636TIP3    H280324   6.660   1.757   5.207  0.0806  0.1309  0.3073
19637TIP3   OH280325   0.471   4.447  12.758 -0.1718 -0.2701  0.4102
19637TIP3    H180326   0.534   4.410  12.696  0.0907 -0.0145  0.5216
19637TIP3    H280327   0.525   4.481  12.829 -0.1747  2.5463 -0.8031
19638TIP3   OH280328   1.430   4.205   4.823 -0.2713 -0.3240  0.1610
19638TIP3    H180329   1.392   4.202   4.735  1.0574 -0.0294 -0.4390
19638TIP3    H280330   1.501   4.140   4.820  1.0724  1.0827  0.3697
19639TIP3   OH280331   0.438   1.143  16.955 -0.1616 -0.2559 -0.1718
19639TIP3    H180332   0.379   1.078  16.992 -0.1613  0.8774  1.9786
19639TIP3    H280333   0.380   1.209  16.917 -0.2597  0.0935  0.5694
19640TIP3   OH280334   2.926   2.274  13.495 -0.4157  0.1692  0.0966
19640TIP3    H180335   2.978   2.329  13.555 -0.4629  0.6579 -0.3038
19640TIP3    H280336   2.965   2.187  13.503  1.2573  0.7661 -1.0702
19641TIP3   OH280337   6.047   6.569  12.182 -0.3216  0.5500  0.1926
19641TIP3    H180338   6.105   6.495  12.163 -2.7608 -1.2040 -1.0123
19641TIP3    H280339   6.100   6.646  12.165  2.4014 -0.8446  1.6854
19642TIP3   OH280340   2.492   2.266  16.556  0.5766 -0.0307  0.4281
19642TIP3    H180341   2.433   2.340  16.569  1.4809  0.5706  1.2674
19642TIP3    H280342   2.482   2.213  16.634 -0.5776 -1.1920 -0.4761
19643TIP3   OH280343   4.896   3.599   4.817 -0.0506  0.1867 -0.0110
19643TIP3    H180344   4.892   3.619   4.724  0.4533 -0.4702 -0.1787
19643TIP3    H280345   4.935   3.677   4.857 -0.0535  0.3757 -0.3758
19644TIP3   OH280346   0.328   1.378  16.837  0.3713  0.0974 -0.3747
19644TIP3    H180347   0.233   1.376  16.825  0.4701 -1.7178 -1.3164
19644TIP3    H280348   0.342   1.438  16.910 -1.5484 -0.0041  0.1367
19645TIP3   OH280349   1.720   4.389   1.547 -0.2928  0.2297 -0.0440
19645TIP3    H180350   1.674   4.333   1.485  1.2311  0.2403 -1.2348
19645TIP3    H280351   1.811   4.391   1.516  0.6502 -0.1224  2.4207
19646TIP3   OH280352   6.707   4.882   3.065 -0.0112  0.1609  0.0401
19646TIP3    H180353   6.798   4.881   3.034  0.0551 -1.1443  0.2193
19646TIP3    H280354   6.688   4.975   3.080  0.3108  0.7682 -2.8166
19647TIP3   OH280355   4.869   3.632   5.241 -0.1317 -0.5060 -0.5472
19647TIP3    H180356   4.948   3.654   5.191 -0.3935  0.9038 -0.3719
19647TIP3    H280357   4.801   3.688   5.204 -0.5516 -0.1334  0.7377
19648TIP3   OH280358   4.360   1.680   5.051  0.5285  0.1018 -0.6902
19648TIP3    H180359   4.288   1.669   5.113  1.6195  0.5653  0.7099
19648TIP3    H280360   4.318   1.714   4.972 -0.8612 -0.1890 -0.1094
19649TIP3   OH280361   5.493   4.597   3.197  0.2621 -0.4572 -0.3599
19649TIP3    H180362   5.407   4.570   3.167  0.5711 -0.5059 -1.2374
19649TIP3    H280363   5.554   4.558   3.134  0.9396 -0.6286  0.3823
19650TIP3   OH280364   3.163   2.914  12.036  0.1560  0.0428 -0.3500
19650TIP3    H180365   3.162   2.890  11.943  0.6752  2.0963 -0.9284
19650TIP3    H280366   3.250   2.888  12.066 -0.2027 -1.1365 -0.2460
19651TIP3   OH280367   4.168   4.427   0.864  0.2964 -0.2631 -0.1054
19651TIP3    H180368   4.148   4.334   0.852 -0.2857 -0.1835  0.2200
19651TIP3    H280369   4.209   4.432   0.950  0.6039 -0.2504 -0.2473
19652TIP3   OH280370   5.434   0.553   4.903 -0.3578 -0.0663  0.1364
19652TIP3    H180371   5.347   0.556   4.943 -0.3118  0.5279  0.2024
19652TIP3    H280372   5.428   0.612   4.828  0.4781  1.3663  1.1605
19653TIP3   OH280373   2.992   3.634  16.320  0.3484  0.0089  0.9224
19653TIP3    H180374   3.061   3.576  16.287 -0.1396  0.2974 -0.6992
19653TIP3    H280375   2.928   3.638  16.249  0.0049  1.9656  1.2970
19654TIP3   OH280376   1.351   3.158  14.198  0.0478 -0.7738  0.0626
19654TIP3    H180377   1.395   3.073  14.201 -0.1066 -0.8668 -0.3548
19654TIP3    H280378   1.411   3.214  14.149  0.0114 -0.7185  0.0819
19655TIP3   OH280379   0.659   6.023   2.583 -0.0179 -0.0972 -0.1284
19655TIP3    H180380   0.584   6.061   2.539 -0.0628 -0.3631 -0.2845
19655TIP3    H280381   0.645   5.928   2.577 -0.4149 -0.1414  1.1200
19656TIP3   OH280382   5.173   3.604   0.063 -0.1132 -0.4212  0.2435
19656TIP3    H180383   5.252   3.600   0.008 -0.8813  3.1014 -1.3638
19656TIP3    H280384   5.102   3.578   0.005 -0.7472  1.9213 -0.1444
19657TIP3   OH280385   2.904   4.520  12.730 -0.4498  0.3988 -0.0886
19657TIP3    H180386   2.922   4.444  12.786  1.8895  0.6955 -0.3468
19657TIP3    H280387   2.951   4.501  12.649 -0.7384  1.6572 -0.5683
19658TIP3   OH280388   0.063   2.265  14.706  0.0171  0.0429  0.9415
19658TIP3    H180389   0.049   2.328  14.635 -0.3496 -0.0771  0.9089
19658TIP3    H280390   0.138   2.212  14.676 -1.6492 -1.6352 -0.5086
19659TIP3   OH280391   6.199   5.552   5.452  0.4977 -0.2149  0.4415
19659TIP3    H180392   6.224   5.630   5.403  1.9132 -0.8484  0.0941
19659TIP3    H280393   6.106   5.541   5.435  0.1575  1.6683  0.9059
19660TIP3   OH280394   6.486   3.153   1.192 -0.0704  0.3965  0.3007
19660TIP3    H180395   6.441   3.097   1.255  1.0664 -0.5791  0.2767
19660TIP3    H280396   6.441   3.237   1.198 -1.9230 -0.5330  0.2374
19661TIP3   OH280397   1.482   2.660   1.759  0.3630  0.0311 -0.1736
19661TIP3    H180398   1.429   2.736   1.785 -0.4606 -0.1862 -1.1628
19661TIP3    H280399   1.572   2.693   1.760  0.0536  0.9101 -0.1745
19662TIP3   OH280400   6.563   4.839  15.047 -0.2852  0.1032  0.1551
19662TIP3    H180401   6.480   4.885  15.033 -0.3990  1.1134  3.3323
19662TIP3    H280402   6.544   4.775  15.116  1.2761 -0.5740 -0.0007
19663TIP3   OH280403   6.476   3.019  16.592 -0.2294 -0.2451 -0.6068
19663TIP3    H180404   6.476   3.115  16.590 -2.0137 -0.1714  0.5848
19663TIP3    H280405   6.407   2.996  16.654 -0.5443 -2.3334 -1.6339
19664TIP3   OH280406   1.417   3.784   1.236 -0.2802  0.2763 -0.2736
19664TIP3    H180407   1.450   3.852   1.178 -2.5164  0.8365 -0.9902
19664TIP3    H280408   1.430   3.703   1.187  2.1105  0.1238  0.4595
19665TIP3   OH280409   2.067   6.499  12.755 -0.6034  0.5810 -0.6145
19665TIP3    H180410   2.061   6.594  12.751 -1.1780  0.4873 -2.3348
19665TIP3    H280411   2.158   6.482  12.783 -0.8981  1.6171  1.1139
19666TIP3   OH280412   1.139   0.033   0.729  0.0799 -0.0446 -0.5106
19666TIP3    H180413   1.109   0.056   0.817  0.9611 -1.0303  0.0698
19666TIP3    H280414   1.059   0.011   0.681 -0.4104  0.5138  0.0371
19667TIP3   OH280415   5.778   0.965  12.926  0.1576 -0.3254 -0.2189
19667TIP3    H180416   5.857   1.004  12.890  0.6291 -0.5095  0.5811
19667TIP3    H280417   5.710   0.983  12.862  1.2832 -2.0731 -2.0279
19668TIP3   OH280418   4.942   2.849  16.461  0.2543 -0.1133  0.2659
19668TIP3    H180419   5.017   2.828  16.517  0.8515  1.8633  0.3137
19668TIP3    H280420   4.979   2.907  16.394 -1.7817  4.8720  2.8795
19669TIP3   OH280421   1.276   0.373   2.763  0.4023 -0.1690 -0.1557
19669TIP3    H180422   1.218   0.444   2.788  0.7031 -0.4100  1.2990
19669TIP3    H280423   1.356   0.416   2.731  0.2929  0.1447 -0.0066
19670TIP3   OH280424   1.597   3.105   3.499  0.2514  0.4602 -0.4828
19670TIP3    H180425   1.556   3.179   3.544  0.4398  1.1168 -1.3591
19670TIP3    H280426   1.687   3.135   3.482  0.1118  0.3314 -1.5115
19671TIP3   OH280427   5.375   4.321   5.076  0.5633 -0.0636  0.5074
19671TIP3    H180428   5.320   4.244   5.096  0.6962 -0.2620  0.1111
19671TIP3    H280429   5.443   4.287   5.019 -0.4203  0.7008 -1.1880
19672TIP3   OH280430   2.318   2.471  16.255  0.3037 -0.6925 -0.0508
19672TIP3    H180431   2.398   2.506  16.295 -0.7814  0.2775  1.3613
19672TIP3    H280432   2.254   2.469  16.326 -1.2754 -0.3691 -1.4035
19673TIP3   OH280433   5.405   5.381   2.845  0.1211  0.0679 -0.1656
19673TIP3    H180434   5.377   5.466   2.810  3.8110  0.9861 -1.3064
19673TIP3    H280435   5.466   5.348   2.780  2.8596 -0.9135  2.6837
19674TIP3   OH280436   1.010   3.358  16.942 -0.2228  0.2628 -0.8376
19674TIP3    H180437   1.081   3.323  16.888  0.0731  0.4189 -0.5525
19674TIP3    H280438   1.041   3.348  17.032 -0.1656  1.1837 -0.7511
19675TIP3   OH280439   5.508   0.245  11.749 -0.1675 -0.0551  0.0081
19675TIP3    H180440   5.488   0.302  11.823 -1.2096  2.4218 -2.0362
19675TIP3    H280441   5.434   0.184  11.745 -0.7128  0.5714  0.2993
19676TIP3   OH280442   0.166   2.807   2.607  0.0648  0.0855  0.4461
19676TIP3    H180443   0.107   2.772   2.540 -1.3257  2.7979  0.0970
19676TIP3    H280444   0.123   2.786   2.689  0.9801 -1.8858  0.4645
19677TIP3   OH280445   0.488   5.277   0.856 -0.1155  0.4023 -0.6428
19677TIP3    H180446   0.576   5.251   0.884  0.0990  1.1816 -0.5627
19677TIP3    H280447   0.495   5.371   0.838 -1.1072  0.6428  0.0938
19678TIP3   OH280448   2.026   4.870  13.793  0.5801  0.3408  0.0022
19678TIP3    H180449   2.034   4.859  13.698 -1.0178 -0.0380 -0.1120
19678TIP3    H280450   2.021   4.780  13.827 -0.4411  0.4906  0.2742
19679TIP3   OH280451   5.563   6.349   5.993 -0.7360 -0.5536 -0.4680
19679TIP3    H180452   5.567   6.397   5.910 -1.0088  0.1427 -0.0829
19679TIP3    H280453   5.601   6.263   5.972 -3.9966 -1.7467 -2.2172
19680TIP3   OH280454   2.765   5.696   5.628  0.2633  0.3031 -1.1909
19680TIP3    H180455   2.845   5.665   5.584  0.1116 -0.9047 -0.6633
19680TIP3    H280456   2.722   5.616   5.657 -0.0491  1.0294  0.4642
19681TIP3   OH280457   1.584   4.959  12.593  0.6703  0.7488 -0.0699
19681TIP3    H180458   1.666   4.942  12.641  0.5495 -3.1156 -0.9593
19681TIP3    H280459   1.603   4.932  12.503 -1.8629 -1.5519 -0.0273
19682TIP3   OH280460   6.340   4.697   0.005 -0.4679 -0.3929 -1.2676
19682TIP3    H180461   6.409   4.763   0.011  1.6002 -2.4365 -0.9576
19682TIP3    H280462   6.261   4.741   0.037  0.5327  2.2086 -2.1226
19683TIP3   OH280463   5.974   3.733  14.875 -0.1631 -0.3009 -0.8672
19683TIP3    H180464   6.042   3.671  14.847  1.3062  0.5428  0.6431
19683TIP3    H280465   5.949   3.702  14.962 -0.2530  0.5362 -0.5906
19684TIP3   OH280466   5.689   6.041  16.833  0.2723  0.2071 -0.0154
19684TIP3    H180467   5.626   6.104  16.869 -1.0534 -1.1314  0.1307
19684TIP3    H280468   5.634   5.977  16.787  1.2865 -2.2730  2.0372
19685TIP3   OH280469   4.594   1.694   4.885  0.4638  0.2214  0.0141
19685TIP3    H180470   4.606   1.770   4.942  2.4901 -0.1165  0.1140
19685TIP3    H280471   4.507   1.661   4.906 -0.3965  2.3565  0.1325
19686TIP3   OH280472   1.483   4.526  12.271  0.0562 -0.1976  0.4429
19686TIP3    H180473   1.468   4.613  12.306  3.0120 -0.0945  1.7618
19686TIP3    H280474   1.430   4.468  12.326  0.1959  0.5308  1.3631
19687TIP3   OH280475   1.305   5.031  17.299  0.5355  0.3660 -0.0922
19687TIP3    H180476   1.283   4.951  17.250 -0.4904  0.3535  0.3602
19687TIP3    H280477   1.303   5.004  17.391 -0.8419  1.1299  0.1241
19688TIP3   OH280478   0.213   4.562   3.002  0.3005  1.2541 -0.3581
19688TIP3    H180479   0.281   4.594   3.062  0.4539  0.8649 -0.3196
19688TIP3    H280480   0.210   4.627   2.933  1.2855  0.8718 -0.7820
19689TIP3   OH280481   3.689   1.996   0.858  0.6523  0.1900 -0.1024
19689TIP3    H180482   3.777   2.034   0.865  0.6774 -0.1811  2.4078
19689TIP3    H280483   3.665   2.010   0.766  3.4863 -0.0577 -1.0095
19690TIP3   OH280484   4.867   4.948  13.091  0.0266  0.1568 -0.6298
19690TIP3    H180485   4.843   4.874  13.147  1.8074 -0.0437 -0.0648
19690TIP3    H280486   4.963   4.945  13.087  0.2427  2.9654  0.1443
19691TIP3   OH280487   5.920   4.398  15.603  0.5290 -0.3048 -0.2781
19691TIP3    H180488   5.850   4.420  15.541  0.7108  0.1118 -0.3377
19691TIP3    H280489   5.874   4.356  15.676  0.3744 -1.3078 -0.9313
19692TIP3   OH280490   6.713   5.708  14.742  0.2788 -0.0704 -0.6704
19692TIP3    H180491   6.742   5.737  14.829  3.4975 -1.2662 -1.2231
19692TIP3    H280492   6.694   5.789  14.696  0.4869  0.6924  0.5217
19693TIP3   OH280493   1.125   3.829   3.412  0.6040 -0.5877 -0.0783
19693TIP3    H180494   1.078   3.760   3.458  1.7012 -0.4776  1.2458
19693TIP3    H280495   1.065   3.904   3.414 -0.3008 -1.2627 -0.9127
19694TIP3   OH280496   1.469   6.081   6.026 -0.0518 -0.4228 -0.6389
19694TIP3    H180497   1.479   6.019   6.098 -1.5491  0.5492  0.4516
19694TIP3    H280498   1.528   6.153   6.047  0.1273 -0.5095 -0.8320
19695TIP3   OH280499   5.235   1.175  16.164 -0.5007 -0.0316  0.1935
19695TIP3    H180500   5.308   1.160  16.225 -1.1865  1.8838  1.6183
19695TIP3    H280501   5.230   1.271  16.157 -1.5811 -0.1728 -1.5221
19696TIP3   OH280502   3.593   3.198  14.917  0.3355  0.3221  0.0254
19696TIP3    H180503   3.614   3.275  14.864 -2.5709 -0.0818 -1.9754
19696TIP3    H280504   3.551   3.138  14.856 -1.2354 -1.1239  2.3626
19697TIP3   OH280505   0.610   5.283  15.366 -0.4526 -0.5610  0.3706
19697TIP3    H180506   0.639   5.351  15.427  0.5251  0.6841 -1.3725
19697TIP3    H280507   0.671   5.210  15.380  0.4177  0.1142  0.1795
19698TIP3   OH280508   6.127   2.220  13.186 -0.1508  0.0073 -0.5046
19698TIP3    H180509   6.114   2.226  13.281  0.6859  1.4966 -0.4625
19698TIP3    H280510   6.056   2.273  13.149 -0.7099 -0.8895 -0.7484
19699TIP3   OH280511   5.672   0.122  13.014 -0.2447  0.6452  0.0690
19699TIP3    H180512   5.577   0.125  13.011 -0.2178  1.5523 -0.0690
19699TIP3    H280513   5.695   0.042  12.966 -0.9352  0.3281  0.2583
19700TIP3   OH280514   4.540   4.652   2.370 -0.2849  0.1338  0.7477
19700TIP3    H180515   4.575   4.602   2.444 -0.5480  1.0435  1.5002
19700TIP3    H280516   4.582   4.738   2.377  0.9056 -0.2460 -1.0978
19701TIP3   OH280517   0.983   6.362   3.511 -0.4216  0.4212 -0.0597
19701TIP3    H180518   0.933   6.280   3.515  0.2126  0.0411  0.3316
19701TIP3    H280519   0.916   6.431   3.509 -0.9681 -0.1176 -0.8995
19702TIP3   OH280520   3.419   4.175  12.060  0.2604 -0.5084 -0.1325
19702TIP3    H180521   3.458   4.147  12.142  0.6281  0.7679  0.1512
19702TIP3    H280522   3.464   4.123  11.993  1.5193 -0.0182  0.3070
19703TIP3   OH280523   4.241   5.175  14.749  0.3590  0.2698 -0.2877
19703TIP3    H180524   4.287   5.094  14.771 -0.0905 -0.1453 -0.8613
19703TIP3    H280525   4.177   5.150  14.683  2.5670  1.7373 -3.1920
19704TIP3   OH280526   2.243   4.431  10.568 -0.0786  0.3348  0.4191
19704TIP3    H180527   2.288   4.429  10.652 -0.0196 -0.2425  0.3755
19704TIP3    H280528   2.228   4.525  10.551 -0.8551  0.4238  1.4705
19705TIP3   OH280529   3.060   2.072  16.591 -0.1276 -0.0988  0.6510
19705TIP3    H180530   2.972   2.066  16.627 -0.9662 -1.4896 -1.4800
19705TIP3    H280531   3.117   2.045  16.663 -1.6562 -1.9833  1.2359
19706TIP3   OH280532   0.843   0.137  11.868 -0.4991 -0.1424  0.1684
19706TIP3    H180533   0.799   0.163  11.788 -1.1012 -0.3180  0.4392
19706TIP3    H280534   0.789   0.067  11.905  0.3553 -0.8336  0.1612
19707TIP3   OH280535   5.254   5.823   4.301  0.5462  0.1804 -0.2089
19707TIP3    H180536   5.220   5.765   4.233 -0.4012 -0.3981  0.7241
19707TIP3    H280537   5.262   5.908   4.258 -2.1775  0.3763 -0.5021
19708TIP3   OH280538   6.441   6.306   2.770 -0.5597 -0.5242 -0.6091
19708TIP3    H180539   6.373   6.262   2.720  0.5036 -1.4351 -1.2921
19708TIP3    H280540   6.516   6.310   2.711  0.4529 -0.8572  0.5999
19709TIP3   OH280541   0.827   1.950   0.273 -0.0612  0.1989  0.2688
19709TIP3    H180542   0.755   2.011   0.260  0.4109  0.5575 -0.7914
19709TIP3    H280543   0.889   1.997   0.328  0.3669  0.7633 -0.6611
19710TIP3   OH280544   0.269   0.348  15.999 -0.1968  0.2592 -0.3509
19710TIP3    H180545   0.312   0.392  15.926  0.4274  0.4097  0.0988
19710TIP3    H280546   0.338   0.339  16.065 -0.6556 -0.2219  0.0652
19711TIP3   OH280547   2.803   3.281   5.064 -0.0888 -0.1531 -0.2460
19711TIP3    H180548   2.717   3.244   5.086 -0.4781  0.5327 -0.5788
19711TIP3    H280549   2.823   3.340   5.136 -0.5133  0.6863 -0.7985
19712TIP3   OH280550   0.211   0.577   6.551  0.9446  0.0357  0.2303
19712TIP3    H180551   0.287   0.627   6.520  1.5067 -1.5126 -1.0425
19712TIP3    H280552   0.136   0.616   6.505  1.0313  1.1055  0.9493
19713TIP3   OH280553   1.913   0.014   6.009  0.1530 -0.0844  0.3215
19713TIP3    H180554   1.989   0.029   5.951 -0.1856 -0.3061 -0.1875
19713TIP3    H280555   1.944  -0.052   6.071  1.6968  2.6358  2.6493
19714TIP3   OH280556   3.856   4.127   0.696  0.5364 -0.2863  0.2017
19714TIP3    H180557   3.880   4.039   0.667 -1.0051 -0.2488 -1.3654
19714TIP3    H280558   3.762   4.121   0.715  0.7987  0.5630  2.0148
19715TIP3   OH280559   2.159   3.861  13.678 -0.0030  0.3237  0.0251
19715TIP3    H180560   2.133   3.906  13.758  1.0079  4.3039 -1.6859
19715TIP3    H280561   2.249   3.834  13.694 -0.3114 -0.3714  0.7155
19716TIP3   OH280562   4.482   5.210  10.439 -0.2570  0.5017 -0.3199
19716TIP3    H180563   4.398   5.181  10.474 -0.5705  0.2820 -1.2212
19716TIP3    H280564   4.545   5.145  10.472 -0.7737 -0.5620 -1.3415
19717TIP3   OH280565   5.229   6.228  13.266 -0.4139  0.2852 -0.3581
19717TIP3    H180566   5.174   6.287  13.317 -0.6126  0.0007 -0.2376
19717TIP3    H280567   5.310   6.277  13.251  0.1347 -0.0468  1.2439
19718TIP3   OH280568   3.638   0.801  12.748  0.0901 -0.3086 -0.0761
19718TIP3    H180569   3.650   0.758  12.832 -1.1533  1.2360  0.9346
19718TIP3    H280570   3.678   0.888  12.759  1.9274 -0.8454 -1.8376
19719TIP3   OH280571   0.239   1.852  12.409  0.9611 -0.1576  0.4194
19719TIP3    H180572   0.272   1.827  12.323  0.9312 -0.4948  0.5034
19719TIP3    H280573   0.195   1.773  12.442 -1.0607  0.6528 -0.2187
19720TIP3   OH280574   2.841   1.474   0.410 -0.1287  0.0074  0.1148
19720TIP3    H180575   2.919   1.521   0.440  0.3983 -0.7562 -0.0072
19720TIP3    H280576   2.776   1.488   0.479 -0.8396  2.9172 -1.0290
19721TIP3   OH280577   0.668   1.714   1.091 -0.5412  0.3075  0.6363
19721TIP3    H180578   0.616   1.758   1.158 -0.5747  0.9678  0.1957
19721TIP3    H280579   0.623   1.631   1.076 -0.0435 -0.2492  2.0436
19722TIP3   OH280580   0.502   5.929  16.257  0.4431 -0.4929  0.1858
19722TIP3    H180581   0.435   5.893  16.198 -1.0083  0.7802  0.9763
19722TIP3    H280582   0.578   5.872  16.245 -0.4770 -1.4585 -1.4161
19723TIP3   OH280583   5.087   6.098   5.950 -0.0727  0.6835 -0.3435
19723TIP3    H180584   5.059   6.150   5.875 -1.4413  0.4050 -0.0516
19723TIP3    H280585   5.025   6.120   6.020 -0.3915 -0.9355 -0.0671
19724TIP3   OH280586   2.352   3.797   0.149  0.3107 -0.3489 -0.1856
19724TIP3    H180587   2.435   3.756   0.173  1.8654  2.1179 -0.9506
19724TIP3    H280588   2.351   3.796   0.053 -0.1361  0.3714 -0.2027
19725TIP3   OH280589   3.456   6.055   4.192  0.2243 -0.3826 -0.4118
19725TIP3    H180590   3.490   6.085   4.108  0.8441  0.7433  0.2195
19725TIP3    H280591   3.389   6.120   4.215 -0.8589 -1.3836 -0.6106
19726TIP3   OH280592   4.447   4.636   3.763  0.2070 -0.1342  0.2156
19726TIP3    H180593   4.441   4.554   3.713  1.9163 -0.2844  0.1825
19726TIP3    H280594   4.363   4.643   3.807 -0.5019 -1.1900 -0.8764
19727TIP3   OH280595   1.988   6.570   3.015 -0.1065 -0.3727 -0.0371
19727TIP3    H180596   1.963   6.555   3.106  0.8229 -0.0926  0.2758
19727TIP3    H280597   2.081   6.546   3.012 -0.0559 -0.0829 -0.8395
19728TIP3   OH280598   4.514   6.722   2.605 -0.0762  0.2978  0.0691
19728TIP3    H180599   4.507   6.758   2.516 -1.3204 -0.9254 -0.3522
19728TIP3    H280600   4.437   6.756   2.650 -0.8614 -1.1751 -0.1118
19729TIP3   OH280601   1.476   0.079  11.753 -0.0377 -0.1748  0.1213
19729TIP3    H180602   1.413   0.117  11.691 -0.1248 -0.6626 -0.0940
19729TIP3    H280603   1.429   0.005  11.792  0.2788 -0.3230  0.2220
19730TIP3   OH280604   2.770   0.552  14.165  0.1445 -0.3318  0.3008
19730TIP3    H180605   2.851   0.510  14.193 -0.9542 -1.6663  1.6326
19730TIP3    H280606   2.707   0.531  14.234 -0.9364  2.0557  0.1451
19731TIP3   OH280607   5.125   2.160   5.563  0.4863 -0.1849  0.9350
19731TIP3    H180608   5.198   2.221   5.556  1.7318 -1.7845 -1.7299
19731TIP3    H280609   5.129   2.128   5.654  1.5353  1.5414  1.5434
19732TIP3   OH280610   3.535   2.371   3.445 -0.7124  0.5495 -0.3919
19732TIP3    H180611   3.526   2.302   3.511 -2.3721  1.3982  0.3054
19732TIP3    H280612   3.499   2.449   3.486 -0.3720  1.4671 -1.7661
19733TIP3   OH280613   5.507   5.368  11.925  0.3078 -0.2976  0.6605
19733TIP3    H180614   5.455   5.337  11.999 -0.7335  0.7360  0.4069
19733TIP3    H280615   5.502   5.464  11.931  1.9932 -0.1711  0.4666
19734TIP3   OH280616   1.865   0.194   0.616 -0.5603  0.3392 -0.2896
19734TIP3    H180617   1.854   0.269   0.558 -0.5819  0.5785  0.0253
19734TIP3    H280618   1.894   0.231   0.699 -0.7937  0.0196 -0.0637
19735TIP3   OH280619   0.248   0.954  16.230  0.6813  0.4287  0.0911
19735TIP3    H180620   0.202   1.031  16.195  3.6501  1.8708 -0.9370
19735TIP3    H280621   0.298   0.988  16.304 -1.6306 -1.6188  2.8573
19736TIP3   OH280622   2.411   1.829  11.992 -0.0043 -0.2121  0.1019
19736TIP3    H180623   2.414   1.921  12.014 -0.3787 -0.6411  2.1063
19736TIP3    H280624   2.319   1.812  11.969 -0.4594 -0.5483  2.0503
19737TIP3   OH280625   4.668   2.822  13.683 -0.4264 -1.0387 -0.0658
19737TIP3    H180626   4.665   2.871  13.766 -0.6945 -1.9007  0.4425
19737TIP3    H280627   4.692   2.888  13.618  0.4213 -0.4654  0.7868
19738TIP3   OH280628   6.447   1.442   3.050 -0.2156 -0.1171 -0.0472
19738TIP3    H180629   6.427   1.523   3.004 -0.7127  1.3315  2.5203
19738TIP3    H280630   6.382   1.438   3.120  0.2825 -2.3526  0.3593
19739TIP3   OH280631   3.972   1.815   4.390  0.4891 -0.9549 -0.5848
19739TIP3    H180632   3.886   1.855   4.400  0.4377 -1.1091 -0.4018
19739TIP3    H280633   3.963   1.728   4.429  1.0058 -0.5877  0.4169
19740TIP3   OH280634   4.665   5.744   4.455  0.6013 -0.2276  0.5494
19740TIP3    H180635   4.747   5.788   4.477 -0.3229  2.2341 -0.5483
19740TIP3    H280636   4.692   5.659   4.420  2.4477 -0.9120  3.3514
19741TIP3   OH280637   5.621   1.707  12.875 -0.0391  0.3928  0.3769
19741TIP3    H180638   5.547   1.735  12.822 -0.4116  0.8494  1.1188
19741TIP3    H280639   5.626   1.772  12.946  1.9386  1.1968 -0.4231
19742TIP3   OH280640   4.163   1.750   3.602  0.5863  0.2740  0.4102
19742TIP3    H180641   4.094   1.812   3.626  0.8810  0.4701  0.7544
19742TIP3    H280642   4.126   1.700   3.529  0.9314  1.9147 -0.9339
19743TIP3   OH280643   5.781   5.238   4.243  0.5132 -0.7015  0.3846
19743TIP3    H180644   5.866   5.244   4.200  0.2281 -1.7600 -0.3631
19743TIP3    H280645   5.798   5.262   4.334  1.3340  0.4870 -0.0570
19744TIP3   OH280646   2.365   3.069  12.339 -0.4377  0.2692 -0.1349
19744TIP3    H180647   2.404   3.118  12.267  1.6486  0.8050  1.2628
19744TIP3    H280648   2.408   2.984  12.337  0.7633  0.7931  1.3094
19745TIP3   OH280649   3.551   6.530   5.588 -0.3271  0.0234 -0.0264
19745TIP3    H180650   3.590   6.446   5.613  0.4211  0.0264 -1.1017
19745TIP3    H280651   3.613   6.595   5.620  0.5616  0.0332 -1.6235
19746TIP3   OH280652   3.485   6.385  13.384  0.2784  0.4557  0.0915
19746TIP3    H180653   3.420   6.316  13.372 -0.6262  1.0075  1.5729
19746TIP3    H280654   3.530   6.391  13.300 -0.6144 -0.9303 -0.5089
19747TIP3   OH280655   0.243   3.519   3.483 -0.1282 -0.2531  0.3367
19747TIP3    H180656   0.170   3.581   3.486 -0.5903 -0.7692 -0.0279
19747TIP3    H280657   0.272   3.512   3.574  0.6215  1.2866  0.2403
19748TIP3   OH280658   6.731   6.594   5.117  0.0020 -0.6937  0.2324
19748TIP3    H180659   6.717   6.642   5.199 -2.3108 -1.0472  0.1267
19748TIP3    H280660   6.717   6.660   5.049 -1.0834 -1.0160  0.1194
19749TIP3   OH280661   4.316   0.107  11.833  0.3464  0.4855  0.0122
19749TIP3    H180662   4.337   0.191  11.791 -0.9916  0.7053 -0.2707
19749TIP3    H280663   4.342   0.119  11.925 -1.3449  1.8523  0.3716
19750TIP3   OH280664   0.807   2.757  15.908 -0.4146 -0.6202 -0.2899
19750TIP3    H180665   0.739   2.692  15.890 -0.8181 -0.1099 -0.6498
19750TIP3    H280666   0.781   2.834  15.857 -0.0790 -0.0930  0.3120
19751TIP3   OH280667   4.157   3.705   3.325  0.4385  0.3264  0.2814
19751TIP3    H180668   4.227   3.696   3.390  1.6727  0.2738 -1.0140
19751TIP3    H280669   4.202   3.726   3.244 -1.0564  0.1633 -0.6279
19752TIP3   OH280670   3.897   3.913  10.600 -0.2013 -0.1075 -0.3010
19752TIP3    H180671   3.883   3.860  10.521  0.9779 -0.0199 -0.5835
19752TIP3    H280672   3.942   3.854  10.661 -1.3125 -0.2486  0.4101
19753TIP3   OH280673   3.229   6.377   1.178 -0.2291  0.1957  0.3052
19753TIP3    H180674   3.183   6.461   1.174 -0.2165  0.2066  0.3959
19753TIP3    H280675   3.291   6.381   1.105 -1.3951 -0.4237 -0.7472
19754TIP3   OH280676   3.132   0.830   0.671  0.2597 -0.3984 -0.5514
19754TIP3    H180677   3.189   0.779   0.614  0.0979 -1.5272  0.2472
19754TIP3    H280678   3.094   0.765   0.731  1.2610  0.8386  1.5549
19755TIP3   OH280679   5.598   0.989   2.967 -0.0246 -0.2639  0.2933
19755TIP3    H180680   5.521   1.044   2.949  0.6942  1.0937  1.2398
19755TIP3    H280681   5.610   0.995   3.061  0.5164 -1.4811  0.3111
19756TIP3   OH280682   6.728   1.904   5.841  0.4291 -0.1022  0.0088
19756TIP3    H180683   6.709   1.901   5.935  1.5540  0.4960  0.2790
19756TIP3    H280684   6.783   1.827   5.826 -1.4184 -1.3770 -0.6039
19757TIP3   OH280685   1.466   0.937   0.214  0.8459 -0.3281  0.1513
19757TIP3    H180686   1.425   0.910   0.132  0.1948 -0.1539  0.4097
19757TIP3    H280687   1.464   0.859   0.269  0.6754 -0.2682  0.2324
19758TIP3   OH280688   2.517   6.192   2.089 -0.0893 -0.4657 -0.8477
19758TIP3    H180689   2.446   6.129   2.093 -0.9327  0.4203 -1.4790
19758TIP3    H280690   2.596   6.139   2.077 -0.7746 -1.3930 -1.3210
19759TIP3   OH280691   3.043   6.556  13.848  0.1722  0.1720 -0.1191
19759TIP3    H180692   3.008   6.524  13.931 -0.7086  0.7749 -0.2431
19759TIP3    H280693   3.087   6.481  13.810  0.5914 -0.1114  0.8992
19760TIP3   OH280694   5.153   1.748   0.152  0.3387  0.0405 -0.2198
19760TIP3    H180695   5.244   1.775   0.160  1.2457 -2.2137 -1.7047
19760TIP3    H280696   5.110   1.821   0.107  0.8349  2.0363  2.3136
19761TIP3   OH280697   0.689   2.711   2.580  0.7021  0.3373  0.6508
19761TIP3    H180698   0.597   2.716   2.555  0.9391  2.1399 -0.0090
19761TIP3    H280699   0.704   2.789   2.633  1.2010 -1.3610  3.1554
19762TIP3   OH280700   5.280   4.725   6.069  0.0406  0.0613 -0.4248
19762TIP3    H180701   5.285   4.666   5.995 -0.1894  0.6510 -0.9194
19762TIP3    H280702   5.360   4.708   6.119  0.7984  0.4967 -1.4505
19763TIP3   OH280703   6.315   5.903   5.769 -0.0676  0.9460  0.2354
19763TIP3    H180704   6.365   5.948   5.837  1.0746 -0.5884  0.4632
19763TIP3    H280705   6.360   5.925   5.687  1.3373 -0.7957  0.4863
19764TIP3   OH280706   6.721   5.805   2.473 -0.1624  0.4634 -0.0965
19764TIP3    H180707   6.813   5.813   2.445 -0.0528 -0.5868 -0.0819
19764TIP3    H280708   6.700   5.891   2.510  0.4293  1.1231 -1.2086
19765TIP3   OH280709   0.089   2.374   4.797  0.2152 -0.4783 -0.3968
19765TIP3    H180710   0.081   2.278   4.789 -0.4017 -0.4930  0.2422
19765TIP3    H280711   0.131   2.387   4.882 -1.9738 -0.1473  0.7096
19766TIP3   OH280712   5.166   2.457   3.719 -0.1108  0.4021  0.3854
19766TIP3    H180713   5.260   2.461   3.700 -0.1894  0.5626  0.0255
19766TIP3    H280714   5.158   2.496   3.807  0.1338  0.5846  0.3279
19767TIP3   OH280715   2.420   2.015  11.698 -0.5968 -0.1137 -0.5991
19767TIP3    H180716   2.438   2.035  11.790 -1.2714 -4.2006  0.6518
19767TIP3    H280717   2.325   2.025  11.689 -0.5491  0.1513 -0.8287
19768TIP3   OH280718   1.212   4.902   0.565  0.1898  0.3610  0.1218
19768TIP3    H180719   1.198   4.837   0.635  0.1434  0.4332  0.1788
19768TIP3    H280720   1.296   4.876   0.526 -0.3682 -0.4031 -0.5951
19769TIP3   OH280721   2.675   0.285   1.455  0.1709  0.0337 -0.2022
19769TIP3    H180722   2.633   0.369   1.438 -0.4077  0.2447  1.9500
19769TIP3    H280723   2.611   0.220   1.427  0.2610  0.2942 -1.0540
19770TIP3   OH280724   4.788   3.666  12.860 -0.2109  0.0890 -0.2768
19770TIP3    H180725   4.764   3.730  12.792 -2.7203 -0.2551  0.2022
19770TIP3    H280726   4.841   3.716  12.922  0.3282  0.9364 -1.3743
19771TIP3   OH280727   0.197   5.699  14.113 -0.1613 -0.1767 -0.6063
19771TIP3    H180728   0.142   5.645  14.170 -0.6166 -0.8779 -1.6808
19771TIP3    H280729   0.262   5.738  14.173 -0.7357 -0.7312  0.4119
19772TIP3   OH280730   1.005   5.910   4.901  0.3141  0.5355 -0.7651
19772TIP3    H180731   0.992   5.977   4.969 -0.5524  0.7237 -1.1069
19772TIP3    H280732   0.931   5.851   4.911  0.4207  0.3137 -1.2641
19773TIP3   OH280733   1.588   2.426   3.453  0.2461 -1.2147 -0.0597
19773TIP3    H180734   1.647   2.501   3.462 -0.8584 -0.3333  0.0551
19773TIP3    H280735   1.558   2.409   3.542 -0.7263 -0.7657 -0.2913
19774TIP3   OH280736   3.897   2.192  15.823  0.0558 -0.4388 -0.0592
19774TIP3    H180737   3.989   2.210  15.839  0.3068 -0.4788 -1.3173
19774TIP3    H280738   3.892   2.172  15.729 -1.1572 -0.9053  0.0764
19775TIP3   OH280739   0.685   3.754   2.666  0.3394 -0.2416 -0.3150
19775TIP3    H180740   0.677   3.674   2.718  2.2931 -0.8064 -0.7896
19775TIP3    H280741   0.729   3.816   2.724 -0.6106  0.3151 -0.1622
19776TIP3   OH280742   2.738   3.639  14.048 -0.3440 -0.2132  0.1345
19776TIP3    H180743   2.756   3.606  13.960 -2.6418  0.5672 -0.7097
19776TIP3    H280744   2.784   3.723  14.052  1.6086 -1.2356  0.5645
19777TIP3   OH280745   5.467   0.181   2.609  0.0590 -0.6579  0.3182
19777TIP3    H180746   5.529   0.186   2.681  1.4087 -1.6299 -0.7315
19777TIP3    H280747   5.491   0.254   2.551 -0.0070 -0.8171  0.0886
19778TIP3   OH280748   2.646   6.642   0.705  0.2203  0.0923  0.0998
19778TIP3    H180749   2.629   6.549   0.716  0.9640  0.0890  1.4836
19778TIP3    H280750   2.566   6.678   0.668 -0.5622 -0.8788  0.8151
19779TIP3   OH280751   0.448   0.533   3.400  0.5425  0.4938  0.8081
19779TIP3    H180752   0.503   0.493   3.467  2.5970  1.0409 -0.4670
19779TIP3    H280753   0.507   0.590   3.351 -0.1676 -1.7101 -3.0421
19780TIP3   OH280754   2.815   0.890  17.230 -0.6337 -0.3498  0.7772
19780TIP3    H180755   2.738   0.902  17.285 -0.7917 -0.9282  0.6860
19780TIP3    H280756   2.869   0.828  17.278 -1.8284 -2.6989 -0.7520
19781TIP3   OH280757   3.574   4.004   5.194  0.1485 -0.0966 -0.4020
19781TIP3    H180758   3.621   3.921   5.197  2.8246  1.3328  1.2877
19781TIP3    H280759   3.612   4.050   5.119 -0.6770 -0.0093 -0.7809
19782TIP3   OH280760   1.943   1.628  16.200  0.0354 -0.0593 -0.8817
19782TIP3    H180761   2.031   1.598  16.222  0.3294  0.9612 -0.6064
19782TIP3    H280762   1.925   1.590  16.114  1.0787  0.3964 -1.3161
19783TIP3   OH280763   6.681   1.917   0.808 -0.1929 -0.3057  0.1056
19783TIP3    H180764   6.644   2.005   0.813 -0.9756 -0.6822  2.6865
19783TIP3    H280765   6.604   1.860   0.806  0.2900 -0.9706  0.3035
19784TIP3   OH280766   3.343   5.218   3.879 -0.3294  0.2701 -0.0226
19784TIP3    H180767   3.426   5.259   3.856 -0.8475  0.0458 -2.7103
19784TIP3    H280768   3.359   5.124   3.866 -0.0638 -0.1901  2.9493
19785TIP3   OH280769   3.168   3.142   2.093  0.6571 -0.4449 -0.1668
19785TIP3    H180770   3.100   3.188   2.043  1.1687 -1.5087 -1.9630
19785TIP3    H280771   3.186   3.064   2.041  2.2653 -0.8902  0.9963
19786TIP3   OH280772   0.509   1.006  12.062  0.3172 -0.4539 -0.1258
19786TIP3    H180773   0.428   1.004  12.010 -0.8773  0.8352  1.5886
19786TIP3    H280774   0.535   0.914  12.069 -0.8583 -0.8698 -0.9351
19787TIP3   OH280775   2.745   0.897  11.750  0.4435 -0.1232  0.6935
19787TIP3    H180776   2.715   0.809  11.727 -0.7672  0.3189  0.4984
19787TIP3    H280777   2.807   0.884  11.822  0.9498 -1.1943  0.0715
19788TIP3   OH280778   0.127   2.438  13.208  0.9266 -0.1806  0.6089
19788TIP3    H180779   0.202   2.478  13.164  1.3840  0.1728  1.6775
19788TIP3    H280780   0.103   2.501  13.276 -2.0521  1.0395 -1.3366
19789TIP3   OH280781   0.426   4.436   4.442  0.3132 -0.1867 -0.0900
19789TIP3    H180782   0.344   4.486   4.449  0.0843 -0.2170 -2.0392
19789TIP3    H280783   0.402   4.347   4.468  0.6343  0.5143  3.0292
19790TIP3   OH280784   3.775   5.506  11.580 -0.0628  0.4917  0.6405
19790TIP3    H180785   3.785   5.463  11.665  0.7736 -0.1390  0.2307
19790TIP3    H280786   3.863   5.533  11.556 -0.5242  2.2228  0.7562
19791TIP3   OH280787   6.052   2.508   5.236  0.1486  0.0788 -0.4580
19791TIP3    H180788   6.107   2.445   5.283  0.5032  0.8446  0.1643
19791TIP3    H280789   6.039   2.467   5.150  0.9211 -0.5475 -0.2988
19792TIP3   OH280790   4.555   4.134  10.841 -0.0767  0.9706 -0.3943
19792TIP3    H180791   4.517   4.203  10.895 -0.8815 -0.0920  0.4468
19792TIP3    H280792   4.643   4.165  10.820 -0.2702  2.0536  0.3237
19793TIP3   OH280793   1.361   5.508   2.350 -0.6637  0.5163 -0.0701
19793TIP3    H180794   1.426   5.534   2.415  0.7490 -0.0137 -1.2208
19793TIP3    H280795   1.306   5.586   2.339 -0.3634  0.9131  1.0653
19794TIP3   OH280796   6.342   1.470  13.439 -0.0244 -0.1413 -0.6504
19794TIP3    H180797   6.402   1.542  13.459 -0.8719  0.5975 -0.7196
19794TIP3    H280798   6.307   1.492  13.353  1.9190 -2.1507 -2.0895
19795TIP3   OH280799   1.147   1.903   3.978  0.3525  0.1641 -0.6284
19795TIP3    H180800   1.147   1.911   3.883  0.4804  1.7138 -0.5224
19795TIP3    H280801   1.133   1.810   3.994 -2.9434  0.2938 -2.1064
19796TIP3   OH280802   6.539   1.459   3.897 -0.2395 -0.1576  0.4353
19796TIP3    H180803   6.614   1.402   3.914 -0.5255 -0.0953  2.0017
19796TIP3    H280804   6.546   1.528   3.963 -1.7822 -0.2624  0.7325
19797TIP3   OH280805   1.559   1.020  10.959 -0.0035 -0.2242  0.3432
19797TIP3    H180806   1.559   1.107  10.921  1.0039 -0.1529  0.4749
19797TIP3    H280807   1.523   0.963  10.890  0.7889  0.0629 -0.3195
19798TIP3   OH280808   5.837   0.110  14.734 -0.4913  0.7518  0.5503
19798TIP3    H180809   5.871   0.063  14.659  0.6768  1.1530  0.8038
19798TIP3    H280810   5.743   0.116  14.718 -0.2645  0.8613 -0.8924
19799TIP3   OH280811   2.018   1.643  12.217  0.1083 -0.4063  0.1050
19799TIP3    H180812   2.105   1.663  12.250 -0.1413  1.6520 -0.3207
19799TIP3    H280813   1.962   1.711  12.254 -0.9181 -0.4426 -1.2756
19800TIP3   OH280814   0.582   4.915  13.481  0.3624 -0.9378  0.1907
19800TIP3    H180815   0.511   4.877  13.429  0.8932 -1.0343 -0.4922
19800TIP3    H280816   0.544   4.992  13.521  0.7735  1.2105 -3.1396
19801TIP3   OH280817   3.302   2.055   3.453 -0.1343 -0.1453 -0.5110
19801TIP3    H180818   3.282   1.973   3.499  0.3348 -0.1048 -0.2342
19801TIP3    H280819   3.382   2.087   3.494  0.4711 -0.2635 -1.5645
19802TIP3   OH280820   6.466   3.484  13.861 -0.3358 -0.0581  0.3748
19802TIP3    H180821   6.399   3.419  13.841  1.8721 -2.2581 -0.4000
19802TIP3    H280822   6.469   3.539  13.783  0.7550 -1.8453 -0.9277
19803TIP3   OH280823   5.311   6.441   0.498  0.3840  0.0138  0.9408
19803TIP3    H180824   5.228   6.394   0.489  1.5368 -1.7693 -1.7396
19803TIP3    H280825   5.364   6.386   0.555  1.1222 -1.1436 -0.7817
19804TIP3   OH280826   6.110   2.687   4.667 -0.3956 -0.1935 -0.3109
19804TIP3    H180827   6.091   2.735   4.586 -0.9743 -0.0202 -0.0750
19804TIP3    H280828   6.133   2.599   4.637  1.5499  0.4290 -0.8090
19805TIP3   OH280829   2.219   1.880  14.373  0.0771 -0.2047  0.3976
19805TIP3    H180830   2.205   1.970  14.403 -3.1686 -0.1689 -0.8424
19805TIP3    H280831   2.307   1.880  14.336  1.6679  1.4020  3.7610
19806TIP3   OH280832   5.617   3.383  16.514 -0.3520  0.4472  0.2257
19806TIP3    H180833   5.657   3.333  16.443  3.3093 -0.6218  2.7681
19806TIP3    H280834   5.588   3.464  16.473  0.4796 -0.6117 -2.6631
19807TIP3   OH280835   2.646   4.721  12.406 -1.1495 -0.1657  0.2779
19807TIP3    H180836   2.680   4.786  12.344 -1.7055  0.5705  0.7231
19807TIP3    H280837   2.704   4.727  12.481 -1.4142  0.0920  0.4676
19808TIP3   OH280838   3.115   2.195  11.871 -0.9933  0.0530 -0.5350
19808TIP3    H180839   3.150   2.161  11.953 -2.8932 -1.0446 -0.1090
19808TIP3    H280840   3.174   2.267  11.847 -0.6015  0.6593  1.9784
19809TIP3   OH280841   6.370   3.617  16.485 -0.1156  0.1747 -0.6260
19809TIP3    H180842   6.332   3.542  16.530 -0.9427  0.2992 -1.0804
19809TIP3    H280843   6.391   3.585  16.397  0.0066  0.3368 -0.6569
19810TIP3   OH280844   0.490   6.555  12.874 -0.4820  0.5162 -0.1570
19810TIP3    H180845   0.542   6.502  12.934  1.5329  1.7718 -0.6631
19810TIP3    H280846   0.468   6.495  12.802  3.3473  0.5826 -1.6599
19811TIP3   OH280847   2.149   2.328   5.421 -0.1859 -0.1547 -0.1490
19811TIP3    H180848   2.240   2.336   5.448 -0.5345  0.1632  1.0048
19811TIP3    H280849   2.115   2.257   5.475 -0.4841 -0.6273 -0.9560
19812TIP3   OH280850   2.689   5.454   4.126 -0.5576  0.3430 -0.3313
19812TIP3    H180851   2.665   5.414   4.042 -1.2438 -0.3752  0.1969
19812TIP3    H280852   2.706   5.546   4.105 -1.0915  0.2541 -1.1985
19813TIP3   OH280853   5.007   6.270   5.738 -0.1651 -0.6748 -0.0608
19813TIP3    H180854   4.915   6.246   5.747 -1.2987  2.3921 -1.8027
19813TIP3    H280855   5.006   6.365   5.730  3.3475 -0.3668  1.2938
19814TIP3   OH280856   0.088   3.805  15.992  0.4176  0.0689  0.0955
19814TIP3    H180857   0.002   3.846  15.979  0.0334 -0.9544 -0.7685
19814TIP3    H280858   0.148   3.878  16.007 -0.3655  0.8924 -0.6611
19815TIP3   OH280859   6.428   2.839  17.224  0.5203  0.4884 -0.6834
19815TIP3    H180860   6.407   2.928  17.253  0.9883  0.0597  1.1268
19815TIP3    H280861   6.517   2.845  17.189  0.8790  0.5920  0.2256
19816TIP3   OH280862   6.521   2.136  12.404  0.0181 -0.0617  0.9613
19816TIP3    H180863   6.484   2.148  12.492 -0.9480  0.3184  0.5186
19816TIP3    H280864   6.545   2.224  12.376 -1.9966  0.2173 -0.1165
19817TIP3   OH280865   3.986   6.521   0.671  0.4153  0.1716 -0.0467
19817TIP3    H180866   3.935   6.526   0.590  0.1311 -0.8970  0.0407
19817TIP3    H280867   3.994   6.611   0.701 -0.4803  0.4640 -0.6532
19818TIP3   OH280868   4.956   3.937   3.480 -0.3655  0.2796  0.3239
19818TIP3    H180869   4.961   4.020   3.527  0.2728 -0.3160  1.3459
19818TIP3    H280870   5.035   3.889   3.507 -1.0864 -0.9466  0.3283
19819TIP3   OH280871   0.749   4.519   3.408  0.1930 -0.4938  0.3998
19819TIP3    H180872   0.654   4.522   3.407  0.1411  2.8088  2.2616
19819TIP3    H280873   0.776   4.558   3.325 -0.2368  2.1579  1.4024
19820TIP3   OH280874   3.606   4.042   0.389 -0.0587  0.4091 -0.2679
19820TIP3    H180875   3.598   4.026   0.295 -3.2308 -1.4676  0.1600
19820TIP3    H280876   3.628   3.956   0.426 -3.3257 -0.0554  0.9609
19821TIP3   OH280877   6.233   4.173   4.193  0.4078 -0.2106  0.5653
19821TIP3    H180878   6.314   4.211   4.226  1.6057 -2.5388  0.4622
19821TIP3    H280879   6.188   4.142   4.272 -0.8046  1.7116  0.6988
19822TIP3   OH280880   5.755   6.145   6.545  0.5404  0.1115 -0.2967
19822TIP3    H180881   5.757   6.068   6.602  2.0087  1.5574  1.7771
19822TIP3    H280882   5.845   6.152   6.512  0.0073  0.0224 -1.8123
19823TIP3   OH280883   6.544   3.423  12.851 -0.6170 -0.4053  0.1364
19823TIP3    H180884   6.456   3.444  12.818 -0.6511  0.0944  0.5384
19823TIP3    H280885   6.571   3.348  12.798 -0.1028  1.1940 -2.0061
19824TIP3   OH280886   5.890   1.074  13.869 -0.5057  0.0270  0.1585
19824TIP3    H180887   5.939   1.008  13.918 -0.7611 -1.8097 -1.8620
19824TIP3    H280888   5.955   1.115  13.812 -0.7968 -0.5106 -0.5885
19825TIP3   OH280889   4.228   1.135   1.107  0.0770 -0.1415 -0.1147
19825TIP3    H180890   4.215   1.177   1.192 -1.0221  1.9350 -1.2029
19825TIP3    H280891   4.240   1.209   1.046 -0.8042 -1.4625 -1.9925
19826TIP3   OH280892   6.390   2.016  13.301  0.3836 -0.4493  0.3890
19826TIP3    H180893   6.335   2.048  13.373  0.4971  0.3142  0.1465
19826TIP3    H280894   6.454   2.085  13.287  1.0407 -1.0705  0.2634
19827TIP3   OH280895   0.333   5.575  15.736  0.0363 -0.6456 -0.7343
19827TIP3    H180896   0.362   5.667  15.730  1.2522 -0.8537  1.2181
19827TIP3    H280897   0.240   5.581  15.757  0.3251  0.1829  0.4011
19828TIP3   OH280898   2.885   0.699  12.455 -0.1700 -0.0296  0.2569
19828TIP3    H180899   2.979   0.697  12.438  0.1953 -0.5039  2.0699
19828TIP3    H280900   2.851   0.768  12.398  1.7745  2.2077  1.6168
19829TIP3   OH280901   3.630   1.827  12.003 -0.4561  0.4918  0.4849
19829TIP3    H180902   3.662   1.749  12.050 -0.2802  0.3366  0.1180
19829TIP3    H280903   3.623   1.798  11.912  1.6731  1.4780 -0.0682
19830TIP3   OH280904   1.743   4.062  12.225 -0.0212  0.0827 -0.0810
19830TIP3    H180905   1.657   4.043  12.263 -1.0928 -0.5937 -2.5912
19830TIP3    H280906   1.756   4.156  12.240 -2.2363  0.6850 -1.3959
19831TIP3   OH280907   3.495   4.469  14.603  0.3750  0.0100 -0.3083
19831TIP3    H180908   3.555   4.543  14.614  0.0670  0.0911  0.8641
19831TIP3    H280909   3.526   4.425  14.523  0.9012  1.0717 -0.7054
19832TIP3   OH280910   3.036   1.722  17.124 -0.7307  0.4309 -0.0821
19832TIP3    H180911   3.048   1.794  17.062 -0.7687 -1.1679 -2.0198
19832TIP3    H280912   2.941   1.712  17.130 -0.7344  0.7386  0.4566
19833TIP3   OH280913   2.658   4.326   6.161  0.0471  0.4130  0.1126
19833TIP3    H180914   2.630   4.411   6.126  1.8803  0.9721 -0.1101
19833TIP3    H280915   2.732   4.347   6.219  2.3490 -1.2024 -2.0113
19834TIP3   OH280916   4.002   6.199   3.718  0.5335 -0.1498  0.0021
19834TIP3    H180917   3.956   6.195   3.635  2.5267  0.4434 -1.1823
19834TIP3    H280918   3.970   6.123   3.767 -1.7965  0.3309 -0.6431
19835TIP3   OH280919   3.845   5.977   4.233 -0.4344 -0.1291 -0.0373
19835TIP3    H180920   3.780   6.036   4.271  0.2075  0.3968  0.2629
19835TIP3    H280921   3.903   6.035   4.184  0.7444 -0.3871  1.0236
19836TIP3   OH280922   5.310   2.891   5.783  0.4415  0.4303  0.4753
19836TIP3    H180923   5.259   2.835   5.724 -1.2442  0.4954  1.8186
19836TIP3    H280924   5.401   2.873   5.759 -0.1303 -1.0201 -0.7960
19837TIP3   OH280925   1.528   1.185  11.933  0.4216  0.3115 -0.0217
19837TIP3    H180926   1.480   1.151  12.009  0.1060 -1.2020 -0.8372
19837TIP3    H280927   1.568   1.266  11.963  0.0944 -0.1220  1.6767
19838TIP3   OH280928   2.651   1.687  16.345 -0.3993  0.3135  0.1555
19838TIP3    H180929   2.675   1.763  16.399  1.5399 -0.1104 -0.0530
19838TIP3    H280930   2.684   1.612  16.394  0.1096 -0.1874 -0.9372
19839TIP3   OH280931   1.044   5.121   2.103 -0.3876  0.5468  0.1600
19839TIP3    H180932   1.097   5.200   2.097 -0.4208  0.5298 -0.4560
19839TIP3    H280933   0.978   5.140   2.169  0.1941  0.6807  0.7168
19840TIP3   OH280934   1.136   0.637   0.763  0.9599 -0.0366 -0.1855
19840TIP3    H180935   1.067   0.689   0.722 -0.0285 -0.3189  1.0373
19840TIP3    H280936   1.112   0.546   0.743 -0.3348 -0.2681  2.0756
19841TIP3   OH280937   5.301   3.249   0.531  0.1048 -0.1001 -0.4363
19841TIP3    H180938   5.251   3.331   0.521  1.3142  1.0718  2.1820
19841TIP3    H280939   5.286   3.224   0.622  2.0229 -1.2571 -0.4107
19842TIP3   OH280940   4.565   2.967  12.678  0.3802  0.0203  0.5136
19842TIP3    H180941   4.625   2.954  12.605 -0.0458 -0.7191  0.2815
19842TIP3    H280942   4.489   3.011  12.639 -0.8023 -2.2955  0.0002
19843TIP3   OH280943   0.314   2.374   0.329  0.0086  0.0597  0.7933
19843TIP3    H180944   0.319   2.369   0.234  1.7993  1.6769  0.7440
19843TIP3    H280945   0.268   2.456   0.346 -0.6076 -0.3876  1.3568
19844TIP3   OH280946   5.444   0.184  16.919  0.2008 -0.2860 -0.4449
19844TIP3    H180947   5.512   0.215  16.859  0.4873 -1.6596 -0.8669
19844TIP3    H280948   5.444   0.089  16.908 -0.1859 -0.5143  1.2594
19845TIP3   OH280949   5.207   1.114  12.027 -0.2220 -0.3152 -0.4989
19845TIP3    H180950   5.130   1.157  12.066 -0.4055 -1.7865  0.8883
19845TIP3    H280951   5.273   1.183  12.022  0.2118 -0.1549  3.6419
19846TIP3   OH280952   2.515   1.846   3.114 -1.0370  0.0857 -0.4707
19846TIP3    H180953   2.607   1.829   3.136 -0.8519  0.7830 -0.6889
19846TIP3    H280954   2.471   1.852   3.199 -0.8800 -0.2306 -0.3645
19847TIP3   OH280955   2.256   0.662   5.044 -0.0562  0.2990  0.0057
19847TIP3    H180956   2.282   0.570   5.041  1.0497  0.6153 -0.9326
19847TIP3    H280957   2.183   0.668   4.982  0.3952  0.2055 -0.5368
19848TIP3   OH280958   1.131   6.423   0.563 -0.7257  0.1501  0.1180
19848TIP3    H180959   1.151   6.330   0.551 -1.0135  0.1216 -0.1649
19848TIP3    H280960   1.103   6.430   0.654 -0.9844 -0.0938  0.0593
19849TIP3   OH280961   0.519   5.451  14.572 -0.3404  0.7502  0.3007
19849TIP3    H180962   0.554   5.362  14.570  0.9667  1.1467  2.3461
19849TIP3    H280963   0.570   5.498  14.505  0.2477  0.3929  0.4926
19850TIP3   OH280964   0.957   4.774   1.406  0.1945  0.0048 -0.1963
19850TIP3    H180965   0.994   4.770   1.494 -2.4086 -1.5166  0.9554
19850TIP3    H280966   0.938   4.683   1.384 -1.0527  0.5395 -1.4780
19851TIP3   OH280967   0.769   3.778  14.449 -0.3600 -0.4545  0.0566
19851TIP3    H180968   0.783   3.758  14.541 -2.4116 -1.9577  0.1235
19851TIP3    H280969   0.797   3.699  14.403  0.4233  0.1965 -0.6182
19852TIP3   OH280970   2.942   2.382   0.865  0.0346 -0.2468 -0.5990
19852TIP3    H180971   2.890   2.449   0.820 -1.6718 -0.6442  0.6825
19852TIP3    H280972   2.896   2.368   0.948  1.5771 -1.4634  0.0990
19853TIP3   OH280973   0.649   5.852  13.645 -0.1223  0.4396 -0.2831
19853TIP3    H180974   0.604   5.776  13.682 -0.6388  0.6647 -0.4403
19853TIP3    H280975   0.590   5.884  13.577  0.7359  0.1181 -1.2240
19854TIP3   OH280976   1.436   4.308  12.506 -0.9136  0.0577  0.0616
19854TIP3    H180977   1.430   4.215  12.486 -4.1791  0.0229  0.6222
19854TIP3    H280978   1.518   4.317  12.555 -2.0171 -3.1876  2.9259
19855TIP3   OH280979   1.719   6.077  14.112  0.0051 -0.1464  1.0102
19855TIP3    H180980   1.793   6.061  14.170  1.2850  0.9762 -0.2289
19855TIP3    H280981   1.751   6.142  14.049 -1.7123 -0.3838 -0.1945
19856TIP3   OH280982   4.776   1.380  17.189 -0.2967 -0.3532 -0.1668
19856TIP3    H180983   4.832   1.435  17.245  0.0765 -0.5953 -0.2986
19856TIP3    H280984   4.782   1.421  17.103 -0.3356 -0.3728 -0.1785
19857TIP3   OH280985   4.734   0.293  12.448  0.2469 -0.8122  0.1310
19857TIP3    H180986   4.792   0.358  12.408 -0.7394 -0.5262 -0.8777
19857TIP3    H280987   4.729   0.319  12.540  0.0744  0.3948 -0.1960
19858TIP3   OH280988   2.022   5.813  12.698 -0.7842 -0.3521  0.0212
19858TIP3    H180989   2.102   5.861  12.716 -0.8758 -0.2140  0.0611
19858TIP3    H280990   2.000   5.834  12.607 -0.3510 -1.0084 -0.2372
19859TIP3   OH280991   2.025   4.227   0.591 -0.1126  0.7774 -0.0830
19859TIP3    H180992   2.016   4.285   0.515 -0.0294  0.2176 -0.5230
19859TIP3    H280993   2.060   4.283   0.660  2.2602  0.7336 -1.1773
19860TIP3   OH280994   0.072   0.917   1.836  0.0648  0.2965 -0.0252
19860TIP3    H180995   0.093   0.832   1.875 -1.7926 -0.0645  0.2765
19860TIP3    H280996  -0.019   0.909   1.809  0.2155  1.8035 -1.1029
19861TIP3   OH280997   5.242   4.741   4.263 -0.7481 -0.0258 -0.2959
19861TIP3    H180998   5.184   4.748   4.339 -1.3763  1.6700 -0.8957
19861TIP3    H280999   5.281   4.828   4.255  0.3283 -0.5628 -1.1368
19862TIP3   OH281000   2.116   6.005   2.500 -0.2199 -0.5966  0.1829
19862TIP3    H181001   2.070   6.088   2.505 -1.0289 -0.9110 -1.3142
19862TIP3    H281002   2.051   5.940   2.528  0.7075 -0.6810  2.3229
19863TIP3   OH281003   5.558   2.445   4.140 -0.3502  0.3986 -0.8243
19863TIP3    H181004   5.634   2.395   4.170 -1.0978 -1.2032 -1.4733
19863TIP3    H281005   5.542   2.413   4.051 -1.6942  0.7980 -0.7514
19864TIP3   OH281006   1.177   5.986  17.046  1.0134  0.0265  0.4975
19864TIP3    H181007   1.211   5.917  16.989 -0.0140 -0.1929  0.1291
19864TIP3    H281008   1.092   5.952  17.076 -0.1337  1.6552 -0.7247
19865TIP3   OH281009   0.911   1.261   1.132  0.2299 -0.4038 -0.3243
19865TIP3    H181010   0.950   1.184   1.089 -0.7413 -1.5238  0.7103
19865TIP3    H281011   0.891   1.321   1.060  1.1891 -1.0233 -1.1409
19866TIP3   OH281012   3.880   3.158   6.160  0.1324  0.3009 -0.5178
19866TIP3    H181013   3.836   3.078   6.132 -0.9762  0.0750  1.6845
19866TIP3    H281014   3.809   3.215   6.189  1.0861  1.1438  0.2179
19867TIP3   OH281015   3.136   0.394  12.201  0.6517  0.0075 -0.5190
19867TIP3    H181016   3.167   0.433  12.283 -0.3266 -0.4003  0.0652
19867TIP3    H281017   3.069   0.455  12.170 -0.9279 -1.1927  0.4317
19868TIP3   OH281018   3.697   1.552  11.979  0.6333  0.4082  0.5576
19868TIP3    H181019   3.777   1.508  11.951  1.0570  0.1318  2.1296
19868TIP3    H281020   3.634   1.481  11.995 -0.2143  0.6545 -1.3940
19869TIP3   OH281021   3.268   6.150   1.656 -0.0855  0.4251 -0.3803
19869TIP3    H181022   3.242   6.234   1.617 -1.8259 -0.6469 -1.6859
19869TIP3    H281023   3.226   6.150   1.742 -1.3120  0.3257 -0.9527
19870TIP3   OH281024   2.331   5.595   4.977 -0.1578 -0.1774 -0.2221
19870TIP3    H181025   2.274   5.671   4.974 -0.2719 -0.0676  2.7644
19870TIP3    H281026   2.415   5.626   4.942 -0.5566  0.9501 -0.2085
19871TIP3   OH281027   1.569   3.374   5.455 -0.8723 -0.0600  0.0558
19871TIP3    H181028   1.529   3.341   5.536  0.6547  0.9010  1.2812
19871TIP3    H281029   1.663   3.367   5.471 -0.5178  2.2533 -0.7209
19872TIP3   OH281030   5.429   2.314   4.929  0.7447  0.4717  0.3824
19872TIP3    H181031   5.458   2.332   5.018  1.8006 -1.9561  0.6141
19872TIP3    H281032   5.485   2.368   4.873  0.5490  1.4816  1.1318
19873TIP3   OH281033   4.975   1.577  11.031  0.1720 -0.4599  0.0907
19873TIP3    H181034   4.884   1.606  11.028  0.5911  0.8464 -2.6230
19873TIP3    H281035   5.009   1.611  11.114 -1.3526  0.4685  0.3646
19874TIP3   OH281036   6.439   6.462   4.791  0.0315 -0.0399 -0.1721
19874TIP3    H181037   6.381   6.484   4.717 -0.7180 -1.7270 -0.1209
19874TIP3    H281038   6.457   6.369   4.781  0.8915 -0.0343  1.1263
19875TIP3   OH281039   4.078   6.313  17.108  0.0330  0.0894  0.1696
19875TIP3    H181040   4.079   6.330  17.202 -1.2499  2.9379 -0.2149
19875TIP3    H281041   3.985   6.312  17.084  0.2365 -2.4718 -0.8684
19876TIP3   OH281042   2.419   2.410   2.910  0.1234  0.3654 -0.1476
19876TIP3    H181043   2.351   2.448   2.855  0.3912 -0.2224 -0.8975
19876TIP3    H281044   2.372   2.360   2.977 -0.1848 -0.5941 -1.0618
19877TIP3   OH281045   2.293   2.551   5.793  0.2406 -0.0396 -0.4170
19877TIP3    H181046   2.207   2.591   5.787 -0.0476 -0.4294  0.9353
19877TIP3    H281047   2.355   2.624   5.792 -0.1427  0.2815 -0.4489
19878TIP3   OH281048   0.497   1.743  12.604  0.3481 -0.6140 -0.1150
19878TIP3    H181049   0.457   1.742  12.691  0.3291 -0.5383 -0.1236
19878TIP3    H281050   0.483   1.654  12.571  1.4159 -1.0133  0.4444
19879TIP3   OH281051   0.202   3.125  17.009 -0.0201 -0.3401  0.0304
19879TIP3    H181052   0.133   3.189  16.994  0.1140 -0.2458 -0.1935
19879TIP3    H281053   0.278   3.160  16.962 -0.0804 -0.9078 -0.5002
19880TIP3   OH281054   5.755   3.078  16.166 -0.0541 -0.3193 -0.6267
19880TIP3    H181055   5.790   3.015  16.229 -0.1569 -2.4675 -2.5709
19880TIP3    H281056   5.833   3.122  16.131  0.0263  0.6398  0.6533
19881TIP3   OH281057   0.062   3.385  12.581  0.0604  0.7454  0.4120
19881TIP3    H181058   0.020   3.312  12.536  0.5643  0.1260  0.9184
19881TIP3    H281059   0.155   3.378  12.556  0.1166  1.1865  0.4950
19882TIP3   OH281060   5.526   6.690   0.372  0.2323 -0.0411  0.2299
19882TIP3    H181061   5.515   6.785   0.372  0.1444 -0.0401  0.9690
19882TIP3    H281062   5.444   6.656   0.337  0.2031  0.1539  0.1092
19883TIP3   OH281063   1.496   2.161   0.667  0.3649 -0.4238 -0.7146
19883TIP3    H181064   1.414   2.122   0.697  0.2665  1.1633  1.3254
19883TIP3    H281065   1.559   2.088   0.669 -0.1727 -0.9084  1.3855
19884TIP3   OH281066   6.616   6.610   2.484 -0.2999  0.0173  0.4268
19884TIP3    H181067   6.631   6.694   2.528 -2.8392 -0.3707  2.2624
19884TIP3    H281068   6.540   6.573   2.528 -1.9751 -1.2879 -3.2007
19885TIP3   OH281069   1.292   4.889  15.070  0.6574  0.0488  0.1507
19885TIP3    H181070   1.356   4.884  14.998  1.5957 -1.1501  1.0290
19885TIP3    H281071   1.317   4.968  15.118  1.0513 -0.0432  0.1026
19886TIP3   OH281072   2.659   5.203  16.884 -0.4863 -0.4048 -0.3379
19886TIP3    H181073   2.740   5.215  16.835  0.1631  0.2267  0.8428
19886TIP3    H281074   2.619   5.290  16.886 -0.0625 -0.2124  0.9604
19887TIP3   OH281075   5.770   4.147   5.655  0.1549  0.1806 -0.1211
19887TIP3    H181076   5.727   4.230   5.633  0.0697  0.0647 -0.3917
19887TIP3    H281077   5.851   4.147   5.604 -1.0651 -1.0751 -2.2001
19888TIP3   OH281078   0.564   3.254   1.182 -0.0342 -0.3889  0.6163
19888TIP3    H181079   0.530   3.179   1.134  0.5787  0.1628 -0.7166
19888TIP3    H281080   0.650   3.226   1.214 -0.1664 -0.5324  0.8523
19889TIP3   OH281081   1.230   0.712  16.456  0.0862  0.5540  0.0142
19889TIP3    H181082   1.166   0.644  16.478  2.6090 -1.8701  0.5414
19889TIP3    H281083   1.268   0.682  16.373  0.6700  1.8201 -0.1879
19890TIP3   OH281084   6.343   4.854   4.063  0.5494 -0.2660  0.1668
19890TIP3    H181085   6.290   4.788   4.109 -0.6467 -0.5487 -1.5337
19890TIP3    H281086   6.418   4.868   4.121  0.0927 -2.0224  1.2844
19891TIP3   OH281087   6.243   6.533   0.999 -0.2639 -0.4748  0.4540
19891TIP3    H181088   6.149   6.519   0.999 -0.6296  0.5885  4.4959
19891TIP3    H281089   6.258   6.602   0.934 -2.3532 -0.3054  0.0988
19892TIP3   OH281090   3.173   6.422   1.606 -0.3768  0.0219  0.7006
19892TIP3    H181091   3.234   6.467   1.548  0.8864 -1.1214  1.0942
19892TIP3    H281092   3.088   6.464   1.589  0.3306  1.0156 -0.5310
19893TIP3   OH281093   0.517   5.479   4.747 -0.4748 -0.0647 -0.2309
19893TIP3    H181094   0.429   5.510   4.729 -0.6204  0.0420  0.6583
19893TIP3    H281095   0.572   5.529   4.686 -1.0077 -0.0397 -0.6991
19894TIP3   OH281096   1.703   1.479   4.249 -0.4230 -0.3786 -0.1448
19894TIP3    H181097   1.651   1.559   4.255 -0.0177 -0.0709 -0.6678
19894TIP3    H281098   1.773   1.500   4.187 -0.3794 -1.1755 -0.3751
19895TIP3   OH281099   2.210   6.711   0.249 -0.1331 -0.5118  0.4096
19895TIP3    H181100   2.171   6.688   0.165 -0.7891  0.8336  0.3328
19895TIP3    H281101   2.138   6.747   0.300  0.9731  2.3131  0.1674
19896TIP3   OH281102   5.013   2.164  12.773  0.0197  0.2643  0.0120
19896TIP3    H181103   4.937   2.180  12.717  0.7155 -0.8278 -1.3217
19896TIP3    H281104   5.078   2.227  12.743  0.1420  0.1759  0.0896
19897TIP3   OH281105   1.405   6.640   4.724  0.4045  0.3385  0.2429
19897TIP3    H181106   1.374   6.683   4.804 -0.5766 -0.1523  0.1451
19897TIP3    H281107   1.325   6.617   4.677  0.9313 -0.6366 -0.2126
19898TIP3   OH281108   4.007   1.078   5.129 -0.1347 -0.7776  0.3984
19898TIP3    H181109   3.938   1.062   5.193 -0.6985 -0.9664 -0.2417
19898TIP3    H281110   4.034   0.990   5.101  1.4521 -0.7842  1.7422
19899TIP3   OH281111   0.672   5.182   5.579 -0.4491 -0.7259 -0.2118
19899TIP3    H181112   0.630   5.216   5.500 -0.6518 -2.1109 -0.7322
19899TIP3    H281113   0.762   5.163   5.553 -0.1372  0.0346  0.2642
19900TIP3   OH281114   4.097   5.485   0.074 -0.1087  0.1676 -0.1083
19900TIP3    H181115   4.048   5.564   0.095 -0.5488 -0.2734  0.5359
19900TIP3    H281116   4.043   5.413   0.106  0.5930 -0.3649 -0.0951
19901TIP3   OH281117   1.055   6.580   6.208 -0.6163 -0.0120  0.2429
19901TIP3    H181118   1.089   6.617   6.289  1.7345  0.4195 -0.8402
19901TIP3    H281119   0.965   6.554   6.228 -0.1073  0.0941  2.9432
19902TIP3   OH281120   3.076   6.249  13.273  0.2200 -0.5348  0.5058
19902TIP3    H181121   3.152   6.200  13.240 -0.4680 -0.9981 -0.4281
19902TIP3    H281122   3.027   6.185  13.324 -0.3253 -0.6595 -0.1566
19903TIP3   OH281123   3.809   0.068   3.678  0.0514  0.4602  0.0469
19903TIP3    H181124   3.714   0.079   3.679  0.0425  0.3501  1.0310
19903TIP3    H281125   3.838   0.115   3.600 -0.7622  0.8977  0.0024
19904TIP3   OH281126   5.639   2.665  12.646  0.1299 -0.0463 -0.6966
19904TIP3    H181127   5.727   2.674  12.609  1.0266 -0.7815  1.0815
19904TIP3    H281128   5.599   2.751  12.634  0.5918 -0.0667 -2.6862
19905TIP3   OH281129   1.506   2.381  11.773  0.2886  0.7242  0.1026
19905TIP3    H181130   1.598   2.398  11.793  0.8983 -1.9879 -0.0573
19905TIP3    H281131   1.498   2.397  11.679 -0.1577  3.6463  0.5375
19906TIP3   OH281132   2.851   2.204   3.170  0.1611  0.4867 -0.0995
19906TIP3    H181133   2.924   2.263   3.151 -0.0629  1.2563  1.3521
19906TIP3    H281134   2.888   2.139   3.230 -0.2936  0.7372  0.4496
19907TIP3   OH281135   1.692   0.891  15.714 -0.3730 -0.0761 -0.3481
19907TIP3    H181136   1.697   0.957  15.784 -1.8530  1.1363 -1.3082
19907TIP3    H281137   1.700   0.942  15.633  1.8757 -1.5187 -1.0990
19908TIP3   OH281138   4.032   2.100   3.763 -0.2180 -0.2725 -0.1223
19908TIP3    H181139   4.118   2.088   3.803 -0.3110  0.8731  0.4588
19908TIP3    H281140   3.979   2.030   3.799 -0.3013  0.7170  1.8298
19909TIP3   OH281141   4.074   2.898   5.461 -0.1844  0.4559 -0.4807
19909TIP3    H181142   4.076   2.946   5.543  3.9602  0.0620 -0.1068
19909TIP3    H281143   4.092   2.964   5.394  0.2486  0.2454 -0.5793
19910TIP3   OH281144   6.257   1.888   2.664  0.5631  0.0392 -0.6242
19910TIP3    H181145   6.271   1.794   2.653  0.2925 -0.6267  3.2079
19910TIP3    H281146   6.164   1.896   2.686  1.1100  0.7241  1.8172
19911TIP3   OH281147   0.251   4.067   1.974  0.2536 -0.5057  0.1692
19911TIP3    H181148   0.240   3.994   2.035 -0.1826  0.0760  0.8009
19911TIP3    H281149   0.202   4.139   2.013  1.1251  0.2953 -0.1637
19912TIP3   OH281150   1.575   0.403   2.610 -0.3376  0.1643  0.2309
19912TIP3    H181151   1.578   0.327   2.669  0.0603  0.2837  0.3667
19912TIP3    H281152   1.636   0.381   2.540 -0.7545  0.0553 -0.1022
19913TIP3   OH281153   1.373   6.597  14.370  0.1840 -0.1365 -0.6404
19913TIP3    H181154   1.438   6.600  14.300  1.8111  0.4961  0.8350
19913TIP3    H281155   1.343   6.687  14.380  0.9929  0.0305  0.3875
19914TIP3   OH281156   0.854   0.331   4.624 -0.0340 -0.2089 -0.5150
19914TIP3    H181157   0.879   0.352   4.714  2.0867  0.4340 -1.2044
19914TIP3    H281158   0.860   0.414   4.577 -0.3671 -0.6737 -1.4056
19915TIP3   OH281159   1.144   6.086   4.752 -0.0177  0.3236 -0.1131
19915TIP3    H181160   1.124   6.007   4.803  0.6077 -0.4010 -0.9555
19915TIP3    H281161   1.109   6.067   4.665  1.8413  0.1629 -0.8588
19916TIP3   OH281162   1.974   4.695  12.192  0.1700 -0.6244 -0.2061
19916TIP3    H181163   1.979   4.729  12.103  0.4066  0.3077  0.1534
19916TIP3    H281164   2.017   4.610  12.188  2.5968  0.5338 -0.4546
19917TIP3   OH281165   5.131   3.913  12.528 -0.1027 -0.4190 -0.2861
19917TIP3    H181166   5.100   3.940  12.441 -0.6125 -2.6500 -0.8816
19917TIP3    H281167   5.226   3.916  12.521 -0.1366  1.5040 -0.1802
19918TIP3   OH281168   4.948   4.323  11.704 -0.7587 -0.0881 -0.2961
19918TIP3    H181169   5.002   4.391  11.745  0.2107  0.2815 -2.0339
19918TIP3    H281170   4.956   4.247  11.761 -0.2163  0.6604  0.6493
19919TIP3   OH281171   5.635   4.365   4.619  0.1934  0.3606  0.4589
19919TIP3    H181172   5.708   4.415   4.656 -0.2265  0.5581  1.0395
19919TIP3    H281173   5.677   4.300   4.562  0.8736  0.0127  1.3275
19920TIP3   OH281174   6.251   2.244   0.506  0.1893  0.3654 -0.1817
19920TIP3    H181175   6.282   2.277   0.422 -0.5354  1.8580  0.1016
19920TIP3    H281176   6.157   2.234   0.495 -0.0273  1.2533  0.6264
19921TIP3   OH281177   4.203   0.090  17.291 -0.6377  0.5058 -0.2673
19921TIP3    H181178   4.296   0.069  17.293 -0.7562 -0.0113 -0.0460
19921TIP3    H281179   4.193   0.150  17.217 -0.4996 -1.2779 -1.8001
19922TIP3   OH281180   2.564   6.424  13.664  0.0990 -0.5092  0.1269
19922TIP3    H181181   2.586   6.498  13.719 -0.7662 -0.3160  0.2347
19922TIP3    H281182   2.476   6.398  13.693  0.6631 -2.0205  0.5687
19923TIP3   OH281183   5.042   6.697   0.078 -0.7234 -0.7473  0.3198
19923TIP3    H181184   5.065   6.787   0.055 -2.6178 -0.1224  0.6818
19923TIP3    H281185   5.126   6.653   0.092  0.2551  1.4805  2.0398
19924TIP3   OH281186   0.298   5.182   0.695 -0.0491  0.0248  0.5298
19924TIP3    H181187   0.379   5.188   0.746 -0.1363  1.2006  0.5591
19924TIP3    H281188   0.235   5.141   0.755  0.4678 -0.7613  0.5542
19925TIP3   OH281189   1.429   2.717  15.664  0.0065  0.9236 -0.6635
19925TIP3    H181190   1.436   2.809  15.690 -0.3689  0.7994 -0.1184
19925TIP3    H281191   1.486   2.710  15.588 -2.3800  2.3600 -2.7384
19926TIP3   OH281192   2.484   3.852  11.356  0.6237 -1.0307 -0.0082
19926TIP3    H181193   2.477   3.821  11.446 -0.7714 -1.5449 -0.2704
19926TIP3    H281194   2.397   3.838  11.319  0.4564  1.4828 -0.7267
19927TIP3   OH281195   1.436   3.004  15.363 -0.2018 -0.1602 -0.1477
19927TIP3    H181196   1.489   2.961  15.296  1.0917  1.0426  0.0539
19927TIP3    H281197   1.423   2.937  15.430  2.9759  0.0215  0.8455
19928TIP3   OH281198   6.492   0.308   2.525  0.3322 -0.3937 -0.2103
19928TIP3    H181199   6.570   0.357   2.549  1.7550 -2.0934 -1.1757
19928TIP3    H281200   6.419   0.365   2.551  1.8697  1.8915 -0.5980
19929TIP3   OH281201   2.096   0.964   4.358 -0.1590  0.1305  0.4278
19929TIP3    H181202   2.186   0.984   4.386 -0.0975 -0.9741  1.0597
19929TIP3    H281203   2.103   0.951   4.263  0.2646  0.4832  0.4068
19930TIP3   OH281204   1.850   1.208   0.424 -0.2736  0.2982 -0.1195
19930TIP3    H181205   1.843   1.173   0.513 -1.4653 -0.7834 -0.6007
19930TIP3    H281206   1.801   1.145   0.370  0.0248  1.1857 -1.4700
19931TIP3   OH281207   1.680   5.594   1.268 -0.4413 -0.5578  0.1827
19931TIP3    H181208   1.610   5.529   1.257 -0.2756 -0.7406  0.2068
19931TIP3    H281209   1.755   5.543   1.298  0.0170 -0.5254 -0.8639
19932TIP3   OH281210   5.917   1.790  14.758  0.2304  0.5232 -0.4274
19932TIP3    H181211   5.941   1.739  14.835  0.9331  2.1962  0.5076
19932TIP3    H281212   5.987   1.772  14.695  0.3985  0.2409 -0.1660
19933TIP3   OH281213   5.764   1.292  13.025 -0.8429 -0.4753 -0.1776
19933TIP3    H181214   5.741   1.344  12.948  0.6130  0.3195 -0.1067
19933TIP3    H281215   5.779   1.203  12.991 -1.2491 -0.3659 -0.6392
19934TIP3   OH281216   2.788   5.436  16.312 -0.5377  0.8757  0.0898
19934TIP3    H181217   2.882   5.434  16.295  0.0017 -1.5591  2.6153
19934TIP3    H281218   2.748   5.441  16.225  1.8921 -1.7747 -1.3436
19935TIP3   OH281219   4.581   6.757  16.966 -0.0337  0.0788 -0.3102
19935TIP3    H181220   4.568   6.769  16.872 -0.2510 -0.5665 -0.3650
19935TIP3    H281221   4.493   6.764  17.003 -0.1711 -1.3244 -0.3460
19936TIP3   OH281222   1.082   2.387   3.004 -0.4822  0.0682 -0.3091
19936TIP3    H181223   1.121   2.418   3.086 -0.2186 -1.2301  0.0723
19936TIP3    H281224   1.019   2.320   3.031 -0.5302 -0.2385 -1.1564
19937TIP3   OH281225   4.069   5.601   4.083  0.3228 -0.8963 -0.2390
19937TIP3    H181226   3.974   5.602   4.072  0.1830  0.5004  0.8437
19937TIP3    H281227   4.099   5.681   4.039  0.8446 -0.6736  0.5119
19938TIP3   OH281228   3.275   2.410   2.453  0.0821 -0.0025  0.4395
19938TIP3    H181229   3.238   2.322   2.451 -1.5764  0.6668  0.4433
19938TIP3    H281230   3.291   2.431   2.361  0.8671 -0.4467  0.4656
19939TIP3   OH281231   4.034   0.957  12.999  0.3585 -0.7139  0.1567
19939TIP3    H181232   3.970   1.027  13.013  0.2814 -0.6167 -0.6349
19939TIP3    H281233   4.115   1.003  12.977  0.1452 -0.8679 -1.0251
19940TIP3   OH281234   2.684   1.506  13.434  0.2151 -0.2630 -0.3596
19940TIP3    H181235   2.636   1.572  13.483  0.6203  0.0498 -0.3790
19940TIP3    H281236   2.621   1.470  13.372  0.2021  0.6610 -0.8933
19941TIP3   OH281237   0.456   4.950  16.077 -0.2638 -0.1215  0.2087
19941TIP3    H181238   0.376   4.947  16.130  1.1419 -0.2316  2.4816
19941TIP3    H281239   0.527   4.953  16.141  1.6075 -0.6469 -1.7165
19942TIP3   OH281240   1.440   4.732  12.461 -0.0317 -0.8755 -0.2586
19942TIP3    H181241   1.410   4.780  12.539  0.5655  1.1566 -1.2038
19942TIP3    H281242   1.505   4.790  12.421 -0.0349 -2.0427 -2.0770
19943TIP3   OH281243   5.871   2.811   4.003  0.2695  0.2231  0.4396
19943TIP3    H181244   5.853   2.724   3.967  2.0404 -0.0761  0.1779
19943TIP3    H281245   5.933   2.850   3.942  0.2662  1.2987  1.0833
19944TIP3   OH281246   4.476   3.621   5.214 -0.1792  0.0311 -0.3195
19944TIP3    H181247   4.448   3.561   5.284  1.9169  0.4821  1.0068
19944TIP3    H281248   4.479   3.566   5.136 -1.2963 -0.8238  0.2075
19945TIP3   OH281249   0.565   0.492  14.116 -0.0491 -0.3645 -1.1556
19945TIP3    H181250   0.618   0.532  14.185  1.1266 -0.7093 -1.8305
19945TIP3    H281251   0.500   0.440  14.164 -0.2902  0.6815 -0.3043
19946TIP3   OH281252   5.554   2.633  15.150  0.1792 -0.0883 -0.0553
19946TIP3    H181253   5.568   2.547  15.190 -2.2235 -1.2044 -1.3928
19946TIP3    H281254   5.624   2.641  15.086  0.8094 -0.7370  0.5196
19947TIP3   OH281255   1.507   4.508   4.877 -0.0184  0.3121 -1.1506
19947TIP3    H181256   1.461   4.426   4.893  1.3043 -0.1417  0.7146
19947TIP3    H281257   1.457   4.573   4.927  0.3741  0.1317 -0.5061
19948TIP3   OH281258   2.855   4.280  13.990  0.4033 -0.3640  0.8356
19948TIP3    H181259   2.947   4.255  13.989  0.3631 -0.5266  0.1065
19948TIP3    H281260   2.839   4.311  14.079  1.3825  0.4596  0.7457
19949TIP3   OH281261   4.721   0.247   0.767  0.3798 -0.3185 -0.4824
19949TIP3    H181262   4.800   0.295   0.743  1.1865 -0.1606  2.2054
19949TIP3    H281263   4.738   0.157   0.739  0.6394  0.0967 -1.7152
19950TIP3   OH281264   3.634   1.049  10.807  0.2174 -0.3704 -0.5313
19950TIP3    H181265   3.687   1.113  10.855 -1.1836  0.2118  0.3005
19950TIP3    H281266   3.582   1.005  10.875 -0.7491 -0.5445 -1.3596
19951TIP3   OH281267   6.229   1.627  16.536 -0.9387 -0.1858 -0.8606
19951TIP3    H181268   6.259   1.620  16.445  0.0242 -2.8857 -0.4314
19951TIP3    H281269   6.309   1.622  16.588 -1.5686  0.1976  0.1782
19952TIP3   OH281270   4.153   0.328  11.550  0.0636  0.2715  0.1558
19952TIP3    H181271   4.168   0.251  11.494 -0.2577  0.7336 -0.5824
19952TIP3    H281272   4.136   0.399  11.489  0.7224  1.0224  0.8295
19953TIP3   OH281273   5.194   1.066  13.736 -0.1317 -0.3031 -0.1854
19953TIP3    H181274   5.229   1.110  13.814 -0.8427  0.7363 -0.4342
19953TIP3    H281275   5.145   0.992  13.771  0.2816 -0.3566  0.2994
19954TIP3   OH281276   5.625   1.759  15.648 -0.2274  0.6550 -0.3937
19954TIP3    H181277   5.688   1.829  15.665  1.3987 -0.7701 -0.2000
19954TIP3    H281278   5.652   1.722  15.564  0.0140 -0.7731  0.2697
19955TIP3   OH281279   4.113   3.136  16.826 -0.3323  0.4892  0.4824
19955TIP3    H181280   4.172   3.182  16.766 -0.8655 -1.5816 -1.7926
19955TIP3    H281281   4.171   3.080  16.878 -0.0816 -1.7247 -1.9119
19956TIP3   OH281282   3.683   1.183  15.664 -0.1183  0.5095 -0.5812
19956TIP3    H181283   3.704   1.228  15.582 -0.1144  2.6582  0.5559
19956TIP3    H281284   3.587   1.184  15.668 -0.1244  0.2463 -0.6337
19957TIP3   OH281285   2.540   0.519   1.373  0.8228  0.0178  0.1293
19957TIP3    H181286   2.525   0.612   1.386  3.0032  0.5741 -0.8320
19957TIP3    H281287   2.482   0.495   1.300 -0.6268  0.3018  1.1544
19958TIP3   OH281288   5.609   4.647   1.206 -0.1138  0.0642  0.1418
19958TIP3    H181289   5.551   4.571   1.201 -0.0748 -0.0034  0.7217
19958TIP3    H281290   5.561   4.716   1.161  0.0540 -0.4247 -0.8245
19959TIP3   OH281291   4.129   4.198   5.365 -0.8484 -0.0989 -0.0382
19959TIP3    H181292   4.072   4.269   5.396  0.0006  0.1423  1.0413
19959TIP3    H281293   4.100   4.121   5.413 -1.2063 -0.2968 -0.5682
19960TIP3   OH281294   4.490   2.708   3.639  0.1125  0.4164  0.1699
19960TIP3    H181295   4.584   2.721   3.646  0.3984 -1.9629  3.4455
19960TIP3    H281296   4.480   2.634   3.579  0.7193 -1.3959  2.1732
19961TIP3   OH281297   3.811   2.994   2.303  0.2210 -0.0127 -0.4331
19961TIP3    H181298   3.855   3.077   2.319 -0.6878  0.2766  0.6818
19961TIP3    H281299   3.838   2.938   2.376 -0.4523 -0.1561 -0.2868
19962TIP3   OH281300   3.425   4.230  12.557 -0.6793  0.0052  0.2835
19962TIP3    H181301   3.467   4.241  12.471  0.5580  0.8608  0.9704
19962TIP3    H281302   3.434   4.137  12.576  1.3929  0.2429  0.6263
19963TIP3   OH281303   3.334   3.046   4.403 -0.3973 -0.0429 -0.0653
19963TIP3    H181304   3.300   2.957   4.394  1.3800 -0.6694 -1.0697
19963TIP3    H281305   3.315   3.070   4.493  0.5773 -2.1127  0.7464
19964TIP3   OH281306   3.934   3.269  12.467  0.2066 -0.6570  0.1223
19964TIP3    H181307   3.948   3.190  12.520 -0.0560  0.8563  2.5801
19964TIP3    H281308   3.856   3.250  12.416 -0.8305 -1.4449  1.8982
19965TIP3   OH281309   1.272   5.392  10.973 -0.3701  0.0863  0.9964
19965TIP3    H181310   1.351   5.443  10.989 -0.1871 -0.1858  0.9785
19965TIP3    H281311   1.299   5.301  10.988 -0.3459 -0.1268 -0.2068
19966TIP3   OH281312   6.020   1.351   4.801 -0.1222 -0.7013 -0.1068
19966TIP3    H181313   5.958   1.341   4.873 -1.0331  1.7186 -0.4886
19966TIP3    H281314   6.087   1.285   4.819 -0.2737 -0.1710  2.9759
19967TIP3   OH281315   6.495   5.973  13.760 -0.6045  0.3371  0.2735
19967TIP3    H181316   6.472   6.006  13.847  0.5713  0.5221  0.5229
19967TIP3    H281317   6.437   5.898  13.747 -1.9406  1.2793  0.5176
19968TIP3   OH281318   0.743   3.799  13.689 -0.5371 -0.2391 -0.0651
19968TIP3    H181319   0.723   3.854  13.765 -1.0798 -0.9604  0.3323
19968TIP3    H281320   0.808   3.848  13.639 -2.3648  1.6400 -0.7250
19969TIP3   OH281321   3.405   6.370  14.770 -0.1850  0.2305 -0.1706
19969TIP3    H181322   3.446   6.415  14.695 -0.5151  1.4423  0.3412
19969TIP3    H281323   3.476   6.317  14.807  0.2923  0.4968 -0.6798
19970TIP3   OH281324   6.311   4.964  12.173 -0.3739  0.0244 -0.3086
19970TIP3    H181325   6.317   4.932  12.083  0.8340 -0.9881  0.0807
19970TIP3    H281326   6.228   4.929  12.206  0.1872 -1.4613 -0.3883
19971TIP3   OH281327   2.242   2.359  11.580 -0.0125 -0.0008 -0.6468
19971TIP3    H181328   2.202   2.439  11.546 -1.4910 -0.8723 -1.0440
19971TIP3    H281329   2.195   2.288  11.536 -1.2804 -1.1904  2.3121
19972TIP3   OH281330   4.614   2.152   2.273 -0.0271 -0.2204 -0.3113
19972TIP3    H181331   4.642   2.242   2.287 -0.9471  0.1797 -0.9344
19972TIP3    H281332   4.648   2.104   2.348  1.5665  0.3930 -0.5995
19973TIP3   OH281333   5.091   4.667  16.349  0.2829  0.3208  0.2448
19973TIP3    H181334   4.998   4.668  16.326 -0.4552  3.6702  2.5716
19973TIP3    H281335   5.093   4.632  16.438  1.3710 -0.4661 -0.0782
19974TIP3   OH281336   3.818   5.369  12.862 -0.1088  0.2579  0.6668
19974TIP3    H181337   3.743   5.342  12.914 -0.7803  0.0309 -0.3976
19974TIP3    H281338   3.820   5.309  12.788  0.2814  1.1287 -0.0576
19975TIP3   OH281339   1.783   2.250   3.441 -0.0348  0.4243  0.4341
19975TIP3    H181340   1.771   2.213   3.353 -0.1167 -1.7740  1.3317
19975TIP3    H281341   1.732   2.332   3.439 -0.6268  0.0631 -1.3335
19976TIP3   OH281342   5.591   6.689   0.863 -0.0952  0.1004  0.4013
19976TIP3    H181343   5.616   6.669   0.773  0.3692 -1.8002  0.9077
19976TIP3    H281344   5.499   6.663   0.869 -0.2656  0.6892  0.3455
19977TIP3   OH281345   5.158   5.724   4.803  0.0041 -0.2994  0.7361
19977TIP3    H181346   5.115   5.806   4.826 -0.1372 -0.5094  1.2309
19977TIP3    H281347   5.133   5.709   4.712 -0.3002  0.0011  0.7696
19978TIP3   OH281348   5.420   5.169   1.667  0.2884 -0.2941 -0.2163
19978TIP3    H181349   5.424   5.262   1.692 -0.4411 -0.0611 -0.9049
19978TIP3    H281350   5.342   5.136   1.712  0.5583 -0.5782  0.0400
19979TIP3   OH281351   4.682   0.720   1.220 -0.3728 -0.3166  0.0443
19979TIP3    H181352   4.741   0.650   1.249 -0.2517  0.1770  1.0603
19979TIP3    H281353   4.643   0.687   1.140 -2.2467 -2.6924  1.7746
19980TIP3   OH281354   2.610   1.545   1.671  0.0598  0.1722  0.2499
19980TIP3    H181355   2.540   1.603   1.700 -0.4904  0.2442 -1.1468
19980TIP3    H281356   2.608   1.550   1.575  2.3528  0.6144  0.1511
19981TIP3   OH281357   1.252   0.571   4.249 -0.1440  0.5487 -0.2908
19981TIP3    H181358   1.315   0.555   4.178 -0.1097  0.8868 -0.3400
19981TIP3    H281359   1.306   0.595   4.324 -0.1430 -0.4199  0.0325
19982TIP3   OH281360   3.021   6.669   5.760 -0.4235  0.3591 -0.0690
19982TIP3    H181361   2.960   6.705   5.696  0.9233  2.5317 -0.2149
19982TIP3    H281362   2.975   6.673   5.844 -1.0300  0.4822 -0.4079
19983TIP3   OH281363   0.497   5.495  10.750  0.4507 -0.4143 -0.3872
19983TIP3    H181364   0.471   5.579  10.712  0.2192 -1.0162 -1.6054
19983TIP3    H281365   0.432   5.478  10.818  0.7647  0.6016  0.1871
19984TIP3   OH281366   2.636   5.224  15.707  0.4496  0.3048 -0.3680
19984TIP3    H181367   2.607   5.133  15.713  0.8461  0.2806  2.3512
19984TIP3    H281368   2.555   5.274  15.697 -0.0011 -0.2255  0.4775
19985TIP3   OH281369   2.001   2.889  11.020  0.4047 -0.0641 -0.1160
19985TIP3    H181370   1.995   2.856  10.931  1.7216  2.0108 -1.0472
19985TIP3    H281371   1.942   2.965  11.022 -1.5566 -1.5205  1.5754
19986LIG      O81372   5.358   1.484   4.866 -0.7597  0.0752 -0.4474
19986LIG     C181373   5.320   1.524   5.002 -0.3893  0.1297  0.3350
19986LIG     C281374   5.383   1.665   5.017  0.5138  0.2548  0.7811
19986LIG     C381375   5.167   1.532   5.000  0.1257  0.1983  0.3262
19986LIG     H181376   5.364   1.446   5.067  0.5064  0.2544 -0.1130
19986LIG     H281377   5.331   1.736   4.949  0.0860 -0.7312  0.0611
19986LIG     H381378   5.491   1.670   4.995  0.2745  2.0817 -0.1678
19986LIG     H481379   5.367   1.685   5.125  1.3995 -0.0052  0.9639
19986LIG     H581380   5.130   1.615   4.936 -0.2761  0.2505  0.6244
19986LIG     H681381   5.134   1.570   5.099  1.0735  4.6122 -0.8344
19986LIG     H781382   5.125   1.432   4.974  2.6625 -1.1927  1.2163
19986LIG     H881383   5.354   1.388   4.867  1.3031 -0.0635  0.2074
   6.78308   6.78308  17.31944
